 Q-Chem 5.1, Q-Chem, Inc., Pleasanton, CA (2018)
 Q-Chem 5.1.1 for Intel X86 EM64T Linux

User input:
--------------------------------------------------------------

$comment
potential surface scanner
$end

$rem
JOBTYPE  PES_SCAN
UNRESTRICTED TRUE
SYM_IGNORE  TRUE
GEOM_OPT_MAX_CYCLES 400
SCF_MAX_CYCLES 400
METHOD   B3LYP
BASIS   6-31G**
PDB_PRINT 2
SCF_CONVERGENCE 6
THRESH 14
SCF_PRINT 1
$end
$molecule
0 3
C -1.856469 1.299446 0.157876
C -1.192568 -0.000000 -0.155154
Se 1.407316 -0.000000 -0.179684
H 0.871096 0.000001 1.186799
C -1.856470 -1.299446 0.157876
H -1.158560 2.139270 0.075425
H -2.702003 1.513900 -0.519274
H -2.271291 1.291593 1.173850
H -0.530982 -0.000000 -1.031214
H -2.702003 -1.513900 -0.519273
H -1.158560 -2.139271 0.075425
H -2.271292 -1.291593 1.173850
$end
$scan
stre 2 3 2.500000 2.501000 0.100000
$end
--------------------------------------------------------------

   10   -2520.3242523967      4.53e-07  Convergence criterion met
 Total energy in the final basis set =    -2520.3242523967
   10   -2520.3154551404      4.73e-07  Convergence criterion met
 Total energy in the final basis set =    -2520.3154551404
   10   -2520.3154191296      4.79e-07  Convergence criterion met
 Total energy in the final basis set =    -2520.3154191296
   10   -2520.3154592633      4.82e-07  Convergence criterion met
 Total energy in the final basis set =    -2520.3154592633
   10   -2520.3154695418      4.84e-07  Convergence criterion met
 Total energy in the final basis set =    -2520.3154695418
   10   -2520.3154717712      4.84e-07  Convergence criterion met
 Total energy in the final basis set =    -2520.3154717712
   10   -2520.3154734841      4.84e-07  Convergence criterion met
 Total energy in the final basis set =    -2520.3154734841

             Standard Nuclear Orientation (Angstroms)
    I     Atom           X                Y                Z
 ----------------------------------------------------------------
    1      C      -1.8371670507     1.2965290624     0.1543850883
    2      C      -1.1714485508    -0.0000002619    -0.1686383779
    3      Se      1.3284793422    -0.0000001210    -0.1496381253
    4      H       0.7952060413     0.0000015675     1.2187170073
    5      C      -1.8371675316    -1.2965293189     0.1543851087
    6      H      -1.1475335865     2.1409067760     0.0513524087
    7      H      -2.7013934861     1.5014920689    -0.5017891331
    8      H      -2.2267607815     1.2890017601     1.1803381623
    9      H      -0.5483108294    -0.0000003754    -1.0725116893
   10      H      -2.7013938902    -1.5014921581    -0.5017892593
   11      H      -1.1475342946    -2.1409072446     0.0513526817
   12      H      -2.2267613821    -1.2890017549     1.1803381279
 ----------------------------------------------------------------

   10   -2520.3154738577      4.84e-07  Convergence criterion met
 Total energy in the final basis set =    -2520.3154738577

                    Orbital Energies (a.u.)
 --------------------------------------------------------------

 Alpha MOs
 -- Occupied --
******* -58.089 -52.148 -52.146 -52.143 -10.205 -10.189 -10.189
 -7.824  -5.771  -5.766  -5.754  -2.104  -2.103  -2.094  -2.091
 -2.089  -0.803  -0.701  -0.699  -0.588  -0.470  -0.442  -0.421
 -0.396  -0.388  -0.364  -0.364  -0.265  -0.237  -0.171

 Beta MOs
 -- Occupied --
******* -58.088 -52.145 -52.144 -52.142 -10.189 -10.189 -10.189
 -7.820  -5.764  -5.762  -5.753  -2.099  -2.098  -2.090  -2.089
 -2.087  -0.781  -0.698  -0.669  -0.560  -0.458  -0.422  -0.414
 -0.389  -0.377  -0.359  -0.348  -0.225

          Ground-State Mulliken Net Atomic Charges

     Atom                 Charge (a.u.)    Spin (a.u.)
  --------------------------------------------------------
      1 C                    -0.332071      -0.065714
      2 C                    -0.125579       1.019490
      3 Se                   -0.140064       0.936553
      4 H                     0.070029      -0.008188
      5 C                    -0.332071      -0.065714
      6 H                     0.128991       0.012909
      7 H                     0.118202       0.062357
      8 H                     0.115824       0.019574
      9 H                     0.133721      -0.006106
     10 H                     0.118202       0.062357
     11 H                     0.128991       0.012909
     12 H                     0.115824       0.019574
  --------------------------------------------------------
  Sum of atomic charges =     0.000000

                    Cartesian Multipole Moments
 -----------------------------------------------------------------
    Charge (ESU x 10^10)
                 0.0000
    Dipole Moment (Debye)
         X      -2.1202      Y       0.0000      Z       0.4097
       Tot       2.1594
    Quadrupole Moments (Debye-Ang)
        XX     -39.9171     XY      -0.0000     YY     -41.1072
        XZ       0.4821     YZ       0.0000     ZZ     -37.5810

 Final energy is   -2520.31547385765
 **  OPTIMIZATION CONVERGED  **
 Total job time:  32.24s(wall), 374.51s(cpu)
        *  Thank you very much for using Q-Chem.  Have a nice day.  *
