 Q-Chem 5.1, Q-Chem, Inc., Pleasanton, CA (2018)
 Q-Chem 5.1.1 for Intel X86 EM64T Linux

User input:
--------------------------------------------------------------

$comment
potential surface scanner
$end

$rem
JOBTYPE  PES_SCAN
UNRESTRICTED TRUE
SYM_IGNORE  TRUE
GEOM_OPT_MAX_CYCLES 400
SCF_MAX_CYCLES 400
METHOD   B3LYP
BASIS   6-31G**
PDB_PRINT 2
SCF_CONVERGENCE 6
THRESH 14
SCF_PRINT 1
$end
$molecule
0 3
C -1.962320 1.302387 0.157093
C -1.300135 0.000000 -0.144827
Se 1.999668 0.000000 -0.180883
H 1.212742 0.000000 1.071561
C -1.962320 -1.302387 0.157093
H -1.261317 2.140880 0.094980
H -2.786846 1.522544 -0.544263
H -2.407749 1.300775 1.160522
H -0.497599 0.000000 -0.886011
H -2.786846 -1.522544 -0.544263
H -1.261317 -2.140880 0.094980
H -2.407749 -1.300775 1.160522
$end
$scan
stre 2 3 3.200000 3.201000 0.100000
$end
--------------------------------------------------------------

   10   -2520.3473432542      4.06e-07  Convergence criterion met
 Total energy in the final basis set =    -2520.3473432542
   10   -2520.3449536164      3.94e-07  Convergence criterion met
 Total energy in the final basis set =    -2520.3449536164
   10   -2520.3459487355      3.96e-07  Convergence criterion met
 Total energy in the final basis set =    -2520.3459487355
   10   -2520.3462318412      4.02e-07  Convergence criterion met
 Total energy in the final basis set =    -2520.3462318412
   10   -2520.3462366277      4.02e-07  Convergence criterion met
 Total energy in the final basis set =    -2520.3462366277
   10   -2520.3462380371      4.02e-07  Convergence criterion met
 Total energy in the final basis set =    -2520.3462380371
   10   -2520.3462421703      4.03e-07  Convergence criterion met
 Total energy in the final basis set =    -2520.3462421703
   10   -2520.3462443912      4.03e-07  Convergence criterion met
 Total energy in the final basis set =    -2520.3462443912

             Standard Nuclear Orientation (Angstroms)
    I     Atom           X                Y                Z
 ----------------------------------------------------------------
    1      C      -1.9464390020     1.3025189276     0.1577727875
    2      C      -1.2839266476     0.0000000000    -0.1427593960
    3      Se      1.9157887571     0.0000000000    -0.1854365297
    4      H       1.1441927559     0.0000000000     1.0756530679
    5      C      -1.9464390020    -1.3025189276     0.1577727875
    6      H      -1.2461081036     2.1412064740     0.0914350066
    7      H      -2.7741279404     1.5199768455    -0.5405319857
    8      H      -2.3875358869     1.3021551177     1.1631508193
    9      H      -0.4894209994     0.0000000000    -0.8946063976
   10      H      -2.7741279404    -1.5199768455    -0.5405319857
   11      H      -1.2461081036    -2.1412064740     0.0914350066
   12      H      -2.3875358869    -1.3021551177     1.1631508193
 ----------------------------------------------------------------

   10   -2520.3462453550      4.03e-07  Convergence criterion met
 Total energy in the final basis set =    -2520.3462453550

                    Orbital Energies (a.u.)
 --------------------------------------------------------------

 Alpha MOs
 -- Occupied --
******* -58.107 -52.166 -52.163 -52.160 -10.198 -10.183 -10.183
 -7.840  -5.788  -5.782  -5.770  -2.121  -2.120  -2.111  -2.107
 -2.105  -0.787  -0.703  -0.695  -0.578  -0.457  -0.433  -0.413
 -0.389  -0.385  -0.359  -0.359  -0.281  -0.248  -0.189

 Beta MOs
 -- Occupied --
******* -58.105 -52.162 -52.162 -52.159 -10.184 -10.184 -10.183
 -7.837  -5.781  -5.780  -5.769  -2.116  -2.115  -2.106  -2.105
 -2.103  -0.768  -0.692  -0.669  -0.554  -0.450  -0.415  -0.406
 -0.383  -0.374  -0.355  -0.348  -0.236

          Ground-State Mulliken Net Atomic Charges

     Atom                 Charge (a.u.)    Spin (a.u.)
  --------------------------------------------------------
      1 C                    -0.336933      -0.074845
      2 C                    -0.086890       1.032630
      3 Se                   -0.108724       0.997969
      4 H                     0.081299      -0.027213
      5 C                    -0.336933      -0.074845
      6 H                     0.120334       0.009610
      7 H                     0.114729       0.064569
      8 H                     0.111242       0.020853
      9 H                     0.095572      -0.043762
     10 H                     0.114729       0.064569
     11 H                     0.120334       0.009610
     12 H                     0.111242       0.020853
  --------------------------------------------------------
  Sum of atomic charges =    -0.000000

                    Cartesian Multipole Moments
 -----------------------------------------------------------------
    Charge (ESU x 10^10)
                -0.0000
    Dipole Moment (Debye)
         X      -1.2326      Y       0.0000      Z       0.5209
       Tot       1.3381
    Quadrupole Moments (Debye-Ang)
        XX     -39.4372     XY       0.0000     YY     -41.3638
        XZ       0.6244     YZ      -0.0000     ZZ     -38.2176

 Final energy is   -2520.34624535503
 **  OPTIMIZATION CONVERGED  **
 Total job time:  34.29s(wall), 399.04s(cpu)
        *  Thank you very much for using Q-Chem.  Have a nice day.  *
