 Q-Chem 5.1, Q-Chem, Inc., Pleasanton, CA (2018)
 Q-Chem 5.1.1 for Intel X86 EM64T Linux

User input:
--------------------------------------------------------------

$comment
potential surface scanner
$end

$rem
JOBTYPE  PES_SCAN
UNRESTRICTED TRUE
SYM_IGNORE  TRUE
GEOM_OPT_MAX_CYCLES 400
SCF_MAX_CYCLES 400
METHOD   B3LYP
BASIS   6-31G**
PDB_PRINT 2
SCF_CONVERGENCE 6
THRESH 14
SCF_PRINT 1
$end
$molecule
0 1
C -1.782788 1.286401 0.144630
C -1.245422 0.000000 -0.417369
Se 1.214499 0.000000 0.028493
H 0.977056 0.000000 1.487701
C -1.782788 -1.286401 0.144630
H -1.271337 2.158018 -0.266397
H -2.851058 1.363549 -0.114436
H -1.710010 1.316777 1.235415
H -1.137550 0.000000 -1.500751
H -2.851058 -1.363549 -0.114436
H -1.271337 -2.158018 -0.266397
H -1.710010 -1.316777 1.235415
$end
$scan
stre 2 3 2.600000 2.601000 0.100000
$end
--------------------------------------------------------------

   10   -2520.4180256007      3.11e-07  Convergence criterion met
 Total energy in the final basis set =    -2520.4180256007
   10   -2520.4105692198      5.40e-07  Convergence criterion met
 Total energy in the final basis set =    -2520.4105692198
   10   -2520.4104926259      5.52e-07  Convergence criterion met
 Total energy in the final basis set =    -2520.4104926259
   10   -2520.4105830108      5.61e-07  Convergence criterion met
 Total energy in the final basis set =    -2520.4105830108
   10   -2520.4105852273      5.63e-07  Convergence criterion met
 Total energy in the final basis set =    -2520.4105852273

             Standard Nuclear Orientation (Angstroms)
    I     Atom           X                Y                Z
 ----------------------------------------------------------------
    1      C      -1.7937947023     1.2885971133     0.1425488553
    2      C      -1.2803370462     0.0000000000    -0.4256027132
    3      Se      1.2772531196     0.0000000000     0.0420835128
    4      H       1.0193094279     0.0000000000     1.4982582861
    5      C      -1.7937947023    -1.2885971133     0.1425488553
    6      H      -1.2705381902     2.1534716875    -0.2672705193
    7      H      -2.8619171854     1.3825126169    -0.1150984758
    8      H      -1.7204310381     1.3130924134     1.2331908387
    9      H      -1.1446662694     0.0000000000    -1.5049824834
   10      H      -2.8619171854    -1.3825126169    -0.1150984758
   11      H      -1.2705381902    -2.1534716875    -0.2672705193
   12      H      -1.7204310381    -1.3130924134     1.2331908387
 ----------------------------------------------------------------

   10   -2520.4105856647      5.64e-07  Convergence criterion met
 Total energy in the final basis set =    -2520.4105856647

                    Orbital Energies (a.u.)
 --------------------------------------------------------------

 Alpha MOs
 -- Occupied --
******* -58.066 -52.124 -52.123 -52.120 -10.258 -10.200 -10.200
 -7.798  -5.743  -5.741  -5.731  -2.077  -2.076  -2.068  -2.066
 -2.064  -0.808  -0.711  -0.653  -0.589  -0.474  -0.447  -0.429
 -0.405  -0.375  -0.371  -0.349  -0.249  -0.209

 Beta MOs
 -- Occupied --
******* -58.066 -52.124 -52.123 -52.120 -10.258 -10.200 -10.200
 -7.798  -5.743  -5.741  -5.731  -2.077  -2.076  -2.068  -2.066
 -2.064  -0.808  -0.711  -0.653  -0.589  -0.474  -0.447  -0.429
 -0.405  -0.375  -0.371  -0.349  -0.249  -0.209

          Ground-State Mulliken Net Atomic Charges

     Atom                 Charge (a.u.)    Spin (a.u.)
  --------------------------------------------------------
      1 C                    -0.318741      -0.000000
      2 C                    -0.059833       0.000000
      3 Se                   -0.270233       0.000000
      4 H                     0.046672      -0.000000
      5 C                    -0.318741       0.000000
      6 H                     0.145076       0.000000
      7 H                     0.117228       0.000000
      8 H                     0.127318       0.000000
      9 H                     0.141633       0.000000
     10 H                     0.117228      -0.000000
     11 H                     0.145076      -0.000000
     12 H                     0.127318      -0.000000
  --------------------------------------------------------
  Sum of atomic charges =     0.000000

                    Cartesian Multipole Moments
 -----------------------------------------------------------------
    Charge (ESU x 10^10)
                -0.0000
    Dipole Moment (Debye)
         X      -3.5329      Y      -0.0000      Z       0.1416
       Tot       3.5357
    Quadrupole Moments (Debye-Ang)
        XX     -38.5942     XY      -0.0000     YY     -40.4117
        XZ       1.0201     YZ       0.0000     ZZ     -36.7837

 Final energy is   -2520.41058566465
 **  OPTIMIZATION CONVERGED  **
 Total job time:  24.71s(wall), 285.03s(cpu)
        *  Thank you very much for using Q-Chem.  Have a nice day.  *
