 Q-Chem 5.1, Q-Chem, Inc., Pleasanton, CA (2018)
 Q-Chem 5.1.1 for Intel X86 EM64T Linux

User input:
--------------------------------------------------------------

$comment
potential surface scanner
$end

$rem
JOBTYPE  PES_SCAN
UNRESTRICTED TRUE
SYM_IGNORE  TRUE
GEOM_OPT_MAX_CYCLES 400
SCF_MAX_CYCLES 400
METHOD   B3LYP
BASIS   6-31G**
PDB_PRINT 2
SCF_CONVERGENCE 6
THRESH 14
SCF_PRINT 1
$end
$molecule
0 3
C -2.443470 1.297909 0.070644
C -1.745596 0.000000 -0.163026
Se 3.952606 0.000000 -0.019851
H 3.902470 0.000000 1.459980
C -2.443470 -1.297909 0.070644
H -1.773691 2.154015 -0.053204
H -3.290571 1.444121 -0.622140
H -2.873988 1.351025 1.082106
H -0.767837 0.000000 -0.635416
H -3.290571 -1.444121 -0.622140
H -1.773691 -2.154015 -0.053204
H -2.873988 -1.351025 1.082106
$end
$scan
stre 2 3 5.600000 5.601000 0.100000
$end
--------------------------------------------------------------

   10   -2520.3485231523      4.80e-07  Convergence criterion met
 Total energy in the final basis set =    -2520.3485231523
    9   -2520.3472398136      9.54e-07  Convergence criterion met
 Total energy in the final basis set =    -2520.3472398136
   10   -2520.3482400222      5.22e-07  Convergence criterion met
 Total energy in the final basis set =    -2520.3482400222
   10   -2520.3485120328      4.86e-07  Convergence criterion met
 Total energy in the final basis set =    -2520.3485120328
   10   -2520.3485188665      4.80e-07  Convergence criterion met
 Total energy in the final basis set =    -2520.3485188665
   10   -2520.3485229129      4.77e-07  Convergence criterion met
 Total energy in the final basis set =    -2520.3485229129
   10   -2520.3485388262      4.70e-07  Convergence criterion met
 Total energy in the final basis set =    -2520.3485388262
   10   -2520.3485634363      4.63e-07  Convergence criterion met
 Total energy in the final basis set =    -2520.3485634363
   10   -2520.3485918890      4.62e-07  Convergence criterion met
 Total energy in the final basis set =    -2520.3485918890
   10   -2520.3486205023      4.69e-07  Convergence criterion met
 Total energy in the final basis set =    -2520.3486205023
   10   -2520.3486291221      4.76e-07  Convergence criterion met
 Total energy in the final basis set =    -2520.3486291221

             Standard Nuclear Orientation (Angstroms)
    I     Atom           X                Y                Z
 ----------------------------------------------------------------
    1      C      -2.4301326085     1.2996075568     0.0944761765
    2      C      -1.7196933707     0.0000000000    -0.0854956996
    3      Se      3.8801188070     0.0000000000    -0.1313606335
    4      H       3.8254672109     0.0000000000     1.3481484223
    5      C      -2.4301326083    -1.2996075569     0.0944761775
    6      H      -1.7345885965     2.1432458844     0.1466526274
    7      H      -3.1280165439     1.5119435584    -0.7353856318
    8      H      -3.0388156833     1.3044970573     1.0092649306
    9      H      -0.7445827815     0.0000000000    -0.5648092939
   10      H      -3.1280165429    -1.5119435581    -0.7353856319
   11      H      -1.7345885971    -2.1432458852     0.1466526264
   12      H      -3.0388156852    -1.3044970564     1.0092649299
 ----------------------------------------------------------------

   10   -2520.3486298957      4.77e-07  Convergence criterion met
 Total energy in the final basis set =    -2520.3486298957

                    Orbital Energies (a.u.)
 --------------------------------------------------------------

 Alpha MOs
 -- Occupied --
******* -58.118 -52.178 -52.175 -52.172 -10.182 -10.174 -10.174
 -7.852  -5.801  -5.794  -5.782  -2.133  -2.132  -2.123  -2.118
 -2.116  -0.774  -0.712  -0.684  -0.564  -0.445  -0.422  -0.402
 -0.395  -0.379  -0.348  -0.342  -0.300  -0.257  -0.175

 Beta MOs
 -- Occupied --
******* -58.117 -52.174 -52.174 -52.171 -10.175 -10.175 -10.169
 -7.849  -5.793  -5.792  -5.780  -2.128  -2.127  -2.117  -2.117
 -2.114  -0.756  -0.682  -0.677  -0.543  -0.440  -0.405  -0.396
 -0.384  -0.373  -0.344  -0.336  -0.244

          Ground-State Mulliken Net Atomic Charges

     Atom                 Charge (a.u.)    Spin (a.u.)
  --------------------------------------------------------
      1 C                    -0.333601      -0.080433
      2 C                    -0.074620       1.019676
      3 Se                   -0.075261       1.027558
      4 H                     0.075556      -0.027494
      5 C                    -0.333601      -0.080433
      6 H                     0.108725       0.006839
      7 H                     0.108504       0.062696
      8 H                     0.106209       0.024410
      9 H                     0.094651      -0.046764
     10 H                     0.108504       0.062696
     11 H                     0.108725       0.006839
     12 H                     0.106209       0.024410
  --------------------------------------------------------
  Sum of atomic charges =    -0.000000

                    Cartesian Multipole Moments
 -----------------------------------------------------------------
    Charge (ESU x 10^10)
                -0.0000
    Dipole Moment (Debye)
         X      -0.1242      Y      -0.0000      Z       0.6107
       Tot       0.6232
    Quadrupole Moments (Debye-Ang)
        XX     -41.5889     XY       0.0000     YY     -38.3220
        XZ       2.5663     YZ       0.0000     ZZ     -38.1899

 Final energy is   -2520.34862989567
 **  OPTIMIZATION CONVERGED  **
 Total job time:  39.14s(wall), 455.23s(cpu)
        *  Thank you very much for using Q-Chem.  Have a nice day.  *
