 Q-Chem 5.1, Q-Chem, Inc., Pleasanton, CA (2018)
 Q-Chem 5.1.1 for Intel X86 EM64T Linux

User input:
--------------------------------------------------------------

$comment
potential surface scanner
$end

$rem
JOBTYPE  PES_SCAN
UNRESTRICTED TRUE
SYM_IGNORE  TRUE
GEOM_OPT_MAX_CYCLES 400
SCF_MAX_CYCLES 400
METHOD   B3LYP
BASIS   6-31G**
PDB_PRINT 2
SCF_CONVERGENCE 6
THRESH 14
SCF_PRINT 1
$end
$molecule
0 3
C -2.430133 1.299608 0.094476
C -1.719693 0.000000 -0.085496
Se 3.880119 0.000000 -0.131361
H 3.825467 0.000000 1.348148
C -2.430133 -1.299608 0.094476
H -1.734589 2.143246 0.146653
H -3.128017 1.511944 -0.735386
H -3.038816 1.304497 1.009265
H -0.744583 0.000000 -0.564809
H -3.128017 -1.511944 -0.735386
H -1.734589 -2.143246 0.146653
H -3.038816 -1.304497 1.009265
$end
$scan
stre 2 3 5.500000 5.501000 0.100000
$end
--------------------------------------------------------------

   10   -2520.3486298954      4.77e-07  Convergence criterion met
 Total energy in the final basis set =    -2520.3486298954
    9   -2520.3473040137      9.81e-07  Convergence criterion met
 Total energy in the final basis set =    -2520.3473040137
   10   -2520.3483475543      5.20e-07  Convergence criterion met
 Total energy in the final basis set =    -2520.3483475543
   10   -2520.3486294508      4.84e-07  Convergence criterion met
 Total energy in the final basis set =    -2520.3486294508
   10   -2520.3486339741      4.78e-07  Convergence criterion met
 Total energy in the final basis set =    -2520.3486339741

             Standard Nuclear Orientation (Angstroms)
    I     Atom           X                Y                Z
 ----------------------------------------------------------------
    1      C      -2.4120850645     1.2994586083     0.0949399860
    2      C      -1.7061822672     0.0000000000    -0.1032146446
    3      Se      3.7938010212     0.0000000000    -0.1167734549
    4      H       3.7481913726     0.0000000000     1.3630947388
    5      C      -2.4120850645    -1.2994586083     0.0949399860
    6      H      -1.7160111067     2.1437100843     0.1251253891
    7      H      -3.1341514612     1.5094684668    -0.7145799722
    8      H      -2.9937683925     1.3056406595     1.0271322374
    9      H      -0.7455780768     0.0000000000    -0.6118439199
   10      H      -3.1341514612    -1.5094684668    -0.7145799722
   11      H      -1.7160111067    -2.1437100843     0.1251253891
   12      H      -2.9937683925    -1.3056406595     1.0271322374
 ----------------------------------------------------------------

   10   -2520.3486343006      4.77e-07  Convergence criterion met
 Total energy in the final basis set =    -2520.3486343006

                    Orbital Energies (a.u.)
 --------------------------------------------------------------

 Alpha MOs
 -- Occupied --
******* -58.118 -52.178 -52.175 -52.172 -10.182 -10.174 -10.174
 -7.852  -5.801  -5.794  -5.782  -2.133  -2.132  -2.123  -2.118
 -2.116  -0.774  -0.712  -0.684  -0.564  -0.445  -0.422  -0.402
 -0.395  -0.379  -0.348  -0.341  -0.300  -0.257  -0.175

 Beta MOs
 -- Occupied --
******* -58.117 -52.174 -52.174 -52.171 -10.175 -10.175 -10.169
 -7.849  -5.793  -5.792  -5.780  -2.128  -2.127  -2.117  -2.117
 -2.114  -0.756  -0.682  -0.677  -0.542  -0.440  -0.405  -0.396
 -0.384  -0.373  -0.344  -0.336  -0.244

          Ground-State Mulliken Net Atomic Charges

     Atom                 Charge (a.u.)    Spin (a.u.)
  --------------------------------------------------------
      1 C                    -0.333637      -0.080345
      2 C                    -0.074665       1.019531
      3 Se                   -0.075283       1.027589
      4 H                     0.075594      -0.027497
      5 C                    -0.333637      -0.080345
      6 H                     0.108741       0.006755
      7 H                     0.108391       0.062710
      8 H                     0.106181       0.024434
      9 H                     0.095002      -0.046730
     10 H                     0.108391       0.062710
     11 H                     0.108741       0.006755
     12 H                     0.106181       0.024434
  --------------------------------------------------------
  Sum of atomic charges =     0.000000

                    Cartesian Multipole Moments
 -----------------------------------------------------------------
    Charge (ESU x 10^10)
                -0.0000
    Dipole Moment (Debye)
         X      -0.1222      Y      -0.0000      Z       0.6122
       Tot       0.6243
    Quadrupole Moments (Debye-Ang)
        XX     -41.5741     XY      -0.0000     YY     -38.3252
        XZ       2.5093     YZ      -0.0000     ZZ     -38.1372

 Final energy is   -2520.34863430061
 **  OPTIMIZATION CONVERGED  **
 Total job time:  19.84s(wall), 229.86s(cpu)
        *  Thank you very much for using Q-Chem.  Have a nice day.  *
