 Q-Chem 5.1, Q-Chem, Inc., Pleasanton, CA (2018)
 Q-Chem 5.1.1 for Intel X86 EM64T Linux

User input:
--------------------------------------------------------------

$comment
potential surface scanner
$end

$rem
JOBTYPE  PES_SCAN
UNRESTRICTED TRUE
SYM_IGNORE  TRUE
GEOM_OPT_MAX_CYCLES 400
SCF_MAX_CYCLES 400
METHOD   B3LYP
BASIS   6-31G**
PDB_PRINT 2
SCF_CONVERGENCE 6
THRESH 14
SCF_PRINT 1
$end
$molecule
0 1
C -1.741080 1.275884 0.152331
C -1.106486 0.000000 -0.384069
Se 0.963269 0.000000 -0.028943
H 0.808724 0.000000 1.439436
C -1.741080 -1.275884 0.152331
H -1.265450 2.169200 -0.257983
H -2.806326 1.299066 -0.114520
H -1.674032 1.324743 1.244240
H -1.113532 0.000000 -1.478060
H -2.806326 -1.299066 -0.114520
H -1.265450 -2.169200 -0.257983
H -1.674032 -1.324743 1.244240
$end
$scan
stre 2 3 2.200000 2.201000 0.100000
$end
--------------------------------------------------------------

    9   -2520.4434713731      7.49e-07  Convergence criterion met
 Total energy in the final basis set =    -2520.4434713731
    9   -2520.4387962807      7.21e-07  Convergence criterion met
 Total energy in the final basis set =    -2520.4387962807
    9   -2520.4388619324      7.36e-07  Convergence criterion met
 Total energy in the final basis set =    -2520.4388619324
    9   -2520.4389184747      7.50e-07  Convergence criterion met
 Total energy in the final basis set =    -2520.4389184747
    9   -2520.4389206927      7.51e-07  Convergence criterion met
 Total energy in the final basis set =    -2520.4389206927

             Standard Nuclear Orientation (Angstroms)
    I     Atom           X                Y                Z
 ----------------------------------------------------------------
    1      C      -1.7510871785     1.2786630023     0.1506843920
    2      C      -1.1404592436     0.0000000000    -0.3922519888
    3      Se      1.0269291957     0.0000000000    -0.0148568051
    4      H       0.8504352446     0.0000000000     1.4514776225
    5      C      -1.7510871785    -1.2786630023     0.1506843920
    6      H      -1.2683137829     2.1676456538    -0.2599778974
    7      H      -2.8172866315     1.3132364842    -0.1147058641
    8      H      -1.6830687407     1.3235118651     1.2423087243
    9      H      -1.1191935296     0.0000000000    -1.4844875383
   10      H      -2.8172866315    -1.3132364842    -0.1147058641
   11      H      -1.2683137829    -2.1676456538    -0.2599778974
   12      H      -1.6830687407    -1.3235118651     1.2423087243
 ----------------------------------------------------------------

    9   -2520.4389210564      7.51e-07  Convergence criterion met
 Total energy in the final basis set =    -2520.4389210564

                    Orbital Energies (a.u.)
 --------------------------------------------------------------

 Alpha MOs
 -- Occupied --
******* -58.079 -52.136 -52.135 -52.132 -10.238 -10.189 -10.189
 -7.811  -5.756  -5.753  -5.743  -2.090  -2.090  -2.082  -2.079
 -2.077  -0.801  -0.698  -0.673  -0.579  -0.463  -0.440  -0.417
 -0.395  -0.371  -0.360  -0.349  -0.284  -0.220

 Beta MOs
 -- Occupied --
******* -58.079 -52.136 -52.135 -52.132 -10.238 -10.189 -10.189
 -7.811  -5.756  -5.753  -5.743  -2.090  -2.090  -2.082  -2.079
 -2.077  -0.801  -0.698  -0.673  -0.579  -0.463  -0.440  -0.417
 -0.395  -0.371  -0.360  -0.349  -0.284  -0.220

          Ground-State Mulliken Net Atomic Charges

     Atom                 Charge (a.u.)    Spin (a.u.)
  --------------------------------------------------------
      1 C                    -0.304229      -0.000000
      2 C                    -0.130996       0.000000
      3 Se                   -0.143697      -0.000000
      4 H                     0.050180       0.000000
      5 C                    -0.304229       0.000000
      6 H                     0.130269      -0.000000
      7 H                     0.107602      -0.000000
      8 H                     0.113924       0.000000
      9 H                     0.129379      -0.000000
     10 H                     0.107602       0.000000
     11 H                     0.130269       0.000000
     12 H                     0.113924      -0.000000
  --------------------------------------------------------
  Sum of atomic charges =     0.000000

                    Cartesian Multipole Moments
 -----------------------------------------------------------------
    Charge (ESU x 10^10)
                 0.0000
    Dipole Moment (Debye)
         X      -2.1863      Y       0.0000      Z       0.2816
       Tot       2.2043
    Quadrupole Moments (Debye-Ang)
        XX     -38.8334     XY      -0.0000     YY     -40.8848
        XZ       1.1629     YZ       0.0000     ZZ     -36.9516

 Final energy is   -2520.43892105642
 **  OPTIMIZATION CONVERGED  **
 Total job time:  34.27s(wall), 278.09s(cpu)
        *  Thank you very much for using Q-Chem.  Have a nice day.  *
