 Q-Chem 5.1, Q-Chem, Inc., Pleasanton, CA (2018)
 Q-Chem 5.1.1 for Intel X86 EM64T Linux

User input:
--------------------------------------------------------------

$comment
potential surface scanner
$end

$rem
JOBTYPE  PES_SCAN
UNRESTRICTED TRUE
SYM_IGNORE  TRUE
GEOM_OPT_MAX_CYCLES 400
SCF_MAX_CYCLES 400
METHOD   B3LYP
BASIS   6-31G**
PDB_PRINT 2
SCF_CONVERGENCE 6
THRESH 14
SCF_PRINT 1
$end
$molecule
0 3
C -2.215175 1.298806 0.123217
C -1.516850 0.000000 -0.105070
Se 3.082695 0.000000 -0.169719
H 2.524584 0.000000 1.196678
C -2.215175 -1.298806 0.123217
H -1.520597 2.144839 0.116765
H -2.975499 1.504374 -0.651704
H -2.752076 1.307113 1.081895
H -0.585530 0.000000 -0.665738
H -2.975499 -1.504374 -0.651704
H -1.520597 -2.144839 0.116765
H -2.752076 -1.307113 1.081895
$end
$scan
stre 2 3 4.500000 4.501000 0.100000
$end
--------------------------------------------------------------

   10   -2520.3488218126      4.79e-07  Convergence criterion met
 Total energy in the final basis set =    -2520.3488218126
   10   -2520.3476591148      5.28e-07  Convergence criterion met
 Total energy in the final basis set =    -2520.3476591148
   10   -2520.3485714625      5.14e-07  Convergence criterion met
 Total energy in the final basis set =    -2520.3485714625
   10   -2520.3488230429      4.82e-07  Convergence criterion met
 Total energy in the final basis set =    -2520.3488230429

             Standard Nuclear Orientation (Angstroms)
    I     Atom           X                Y                Z
 ----------------------------------------------------------------
    1      C      -2.1962680869     1.2985805610     0.1225657087
    2      C      -1.5040312146     0.0000000000    -0.1249433426
    3      Se      2.9958869500     0.0000000000    -0.1520822248
    4      H       2.4407955234     0.0000000000     1.2154697848
    5      C      -2.1962680869    -1.2985805610     0.1225657087
    6      H      -1.5024742528     2.1449139782     0.0970220024
    7      H      -2.9777542734     1.5040372986    -0.6310672313
    8      H      -2.7066241908     1.3065359704     1.0956332503
    9      H      -0.5882046509     0.0000000000    -0.7102546777
   10      H      -2.9777542734    -1.5040372986    -0.6310672313
   11      H      -1.5024742528    -2.1449139782     0.0970220024
   12      H      -2.7066241908    -1.3065359704     1.0956332503
 ----------------------------------------------------------------

   10   -2520.3488264433      4.78e-07  Convergence criterion met
 Total energy in the final basis set =    -2520.3488264433

                    Orbital Energies (a.u.)
 --------------------------------------------------------------

 Alpha MOs
 -- Occupied --
******* -58.118 -52.178 -52.175 -52.171 -10.182 -10.175 -10.175
 -7.852  -5.800  -5.793  -5.781  -2.133  -2.132  -2.122  -2.118
 -2.116  -0.774  -0.712  -0.685  -0.564  -0.445  -0.422  -0.402
 -0.395  -0.380  -0.349  -0.342  -0.300  -0.257  -0.176

 Beta MOs
 -- Occupied --
******* -58.117 -52.174 -52.173 -52.171 -10.176 -10.176 -10.169
 -7.849  -5.792  -5.791  -5.780  -2.127  -2.126  -2.117  -2.117
 -2.114  -0.757  -0.682  -0.678  -0.543  -0.440  -0.405  -0.397
 -0.384  -0.374  -0.345  -0.336  -0.244

          Ground-State Mulliken Net Atomic Charges

     Atom                 Charge (a.u.)    Spin (a.u.)
  --------------------------------------------------------
      1 C                    -0.333827      -0.079888
      2 C                    -0.083069       1.017535
      3 Se                   -0.077308       1.029033
      4 H                     0.078110      -0.027583
      5 C                    -0.333827      -0.079888
      6 H                     0.107889       0.006564
      7 H                     0.108923       0.062884
      8 H                     0.105513       0.024248
      9 H                     0.105270      -0.046602
     10 H                     0.108923       0.062884
     11 H                     0.107889       0.006564
     12 H                     0.105513       0.024248
  --------------------------------------------------------
  Sum of atomic charges =     0.000000

                    Cartesian Multipole Moments
 -----------------------------------------------------------------
    Charge (ESU x 10^10)
                 0.0000
    Dipole Moment (Debye)
         X      -0.3745      Y       0.0000      Z       0.5425
       Tot       0.6592
    Quadrupole Moments (Debye-Ang)
        XX     -42.5099     XY      -0.0000     YY     -38.3522
        XZ       0.3648     YZ      -0.0000     ZZ     -38.7250

 Final energy is   -2520.34882644328
 **  OPTIMIZATION CONVERGED  **
 Total job time:  18.11s(wall), 202.52s(cpu)
        *  Thank you very much for using Q-Chem.  Have a nice day.  *
