 Q-Chem 5.1, Q-Chem, Inc., Pleasanton, CA (2018)
 Q-Chem 5.1.1 for Intel X86 EM64T Linux

User input:
--------------------------------------------------------------

$comment
potential surface scanner
$end

$rem
JOBTYPE  PES_SCAN
UNRESTRICTED TRUE
SYM_IGNORE  TRUE
GEOM_OPT_MAX_CYCLES 400
SCF_MAX_CYCLES 400
METHOD   B3LYP
BASIS   6-31G**
PDB_PRINT 2
SCF_CONVERGENCE 6
THRESH 14
SCF_PRINT 1
$end
$molecule
0 3
C -2.309369 1.299286 0.104059
C -1.623439 0.000000 -0.155898
Se 3.376247 0.000000 -0.099819
H 3.203990 0.000000 1.370300
C -2.309369 -1.299286 0.104059
H -1.612589 2.143137 0.076602
H -3.097155 1.511736 -0.641142
H -2.810059 1.303639 1.082011
H -0.720248 0.000000 -0.761148
H -3.097155 -1.511736 -0.641142
H -1.612589 -2.143137 0.076602
H -2.810059 -1.303639 1.082011
$end
$scan
stre 2 3 4.900000 4.901000 0.100000
$end
--------------------------------------------------------------

   10   -2520.3486888725      4.77e-07  Convergence criterion met
 Total energy in the final basis set =    -2520.3486888725
   10   -2520.3477114125      5.28e-07  Convergence criterion met
 Total energy in the final basis set =    -2520.3477114125
   10   -2520.3484656939      5.13e-07  Convergence criterion met
 Total energy in the final basis set =    -2520.3484656939
   10   -2520.3486736576      4.80e-07  Convergence criterion met
 Total energy in the final basis set =    -2520.3486736576
   10   -2520.3486770252      4.76e-07  Convergence criterion met
 Total energy in the final basis set =    -2520.3486770252
   10   -2520.3486781915      4.75e-07  Convergence criterion met
 Total energy in the final basis set =    -2520.3486781915
   10   -2520.3486832955      4.71e-07  Convergence criterion met
 Total energy in the final basis set =    -2520.3486832955
   10   -2520.3486903349      4.69e-07  Convergence criterion met
 Total energy in the final basis set =    -2520.3486903349
   10   -2520.3487001077      4.70e-07  Convergence criterion met
 Total energy in the final basis set =    -2520.3487001077
   10   -2520.3487088878      4.74e-07  Convergence criterion met
 Total energy in the final basis set =    -2520.3487088878
   10   -2520.3487129401      4.78e-07  Convergence criterion met
 Total energy in the final basis set =    -2520.3487129401

             Standard Nuclear Orientation (Angstroms)
    I     Atom           X                Y                Z
 ----------------------------------------------------------------
    1      C      -2.2894134609     1.2994989202     0.1121735873
    2      C      -1.5929728772     0.0000000000    -0.1173981315
    3      Se      3.3068508599     0.0000000000    -0.1589595440
    4      H       3.0404319003     0.0000000000     1.2978192741
    5      C      -2.2894134607    -1.2994989202     0.1121735875
    6      H      -1.5904115622     2.1419106852     0.1278319112
    7      H      -3.0341182672     1.5184936768    -0.6742693576
    8      H      -2.8430994009     1.2996115667     1.0610525545
    9      H      -0.6620185017     0.0000000000    -0.6785439900
   10      H      -3.0341182668    -1.5184936770    -0.6742693575
   11      H      -1.5904115618    -2.1419106851     0.1278319113
   12      H      -2.8430994007    -1.2996115667     1.0610525547
 ----------------------------------------------------------------

   10   -2520.3487138028      4.80e-07  Convergence criterion met
 Total energy in the final basis set =    -2520.3487138028

                    Orbital Energies (a.u.)
 --------------------------------------------------------------

 Alpha MOs
 -- Occupied --
******* -58.118 -52.178 -52.175 -52.172 -10.182 -10.174 -10.174
 -7.852  -5.800  -5.794  -5.782  -2.133  -2.132  -2.122  -2.118
 -2.116  -0.773  -0.712  -0.684  -0.564  -0.444  -0.422  -0.402
 -0.395  -0.379  -0.348  -0.341  -0.300  -0.257  -0.175

 Beta MOs
 -- Occupied --
******* -58.117 -52.174 -52.173 -52.171 -10.175 -10.175 -10.168
 -7.849  -5.792  -5.792  -5.780  -2.128  -2.127  -2.117  -2.117
 -2.114  -0.756  -0.682  -0.677  -0.542  -0.440  -0.405  -0.396
 -0.384  -0.373  -0.344  -0.336  -0.244

          Ground-State Mulliken Net Atomic Charges

     Atom                 Charge (a.u.)    Spin (a.u.)
  --------------------------------------------------------
      1 C                    -0.333749      -0.080079
      2 C                    -0.078032       1.018705
      3 Se                   -0.075908       1.028122
      4 H                     0.076405      -0.027550
      5 C                    -0.333749      -0.080079
      6 H                     0.108475       0.007402
      7 H                     0.108487       0.063260
      8 H                     0.105545       0.023008
      9 H                     0.100018      -0.046461
     10 H                     0.108487       0.063260
     11 H                     0.108475       0.007402
     12 H                     0.105545       0.023008
  --------------------------------------------------------
  Sum of atomic charges =    -0.000000

                    Cartesian Multipole Moments
 -----------------------------------------------------------------
    Charge (ESU x 10^10)
                -0.0000
    Dipole Moment (Debye)
         X      -0.2249      Y      -0.0000      Z       0.5896
       Tot       0.6311
    Quadrupole Moments (Debye-Ang)
        XX     -42.1910     XY       0.0000     YY     -38.3439
        XZ       1.4565     YZ       0.0000     ZZ     -38.2845

 Final energy is   -2520.34871380276
 **  OPTIMIZATION CONVERGED  **
 Total job time:  41.55s(wall), 470.83s(cpu)
        *  Thank you very much for using Q-Chem.  Have a nice day.  *
