 Q-Chem 5.1, Q-Chem, Inc., Pleasanton, CA (2018)
 Q-Chem 5.1.1 for Intel X86 EM64T Linux

User input:
--------------------------------------------------------------

$comment
potential surface scanner
$end

$rem
JOBTYPE  PES_SCAN
UNRESTRICTED TRUE
SYM_IGNORE  TRUE
GEOM_OPT_MAX_CYCLES 400
SCF_MAX_CYCLES 400
METHOD   B3LYP
BASIS   6-31G**
PDB_PRINT 2
SCF_CONVERGENCE 6
THRESH 14
SCF_PRINT 1
$end
$molecule
0 1
C -1.724218 1.269498 0.155121
C -1.037780 0.000000 -0.364235
Se 0.837382 0.000000 -0.058023
H 0.745485 0.000000 1.416473
C -1.724218 -1.269498 0.155121
H -1.262832 2.171068 -0.255025
H -2.786876 1.268663 -0.116463
H -1.661104 1.326992 1.247652
H -1.096828 0.000000 -1.460284
H -2.786876 -1.268663 -0.116463
H -1.262832 -2.171068 -0.255025
H -1.661104 -1.326992 1.247652
$end
$scan
stre 2 3 2.000000 2.001000 0.100000
$end
--------------------------------------------------------------

    9   -2520.4420796603      6.76e-07  Convergence criterion met
 Total energy in the final basis set =    -2520.4420796603
    9   -2520.4448277844      6.93e-07  Convergence criterion met
 Total energy in the final basis set =    -2520.4448277844
    9   -2520.4450842460      7.13e-07  Convergence criterion met
 Total energy in the final basis set =    -2520.4450842460
    9   -2520.4451327080      7.26e-07  Convergence criterion met
 Total energy in the final basis set =    -2520.4451327080
    9   -2520.4451348732      7.26e-07  Convergence criterion met
 Total energy in the final basis set =    -2520.4451348732

             Standard Nuclear Orientation (Angstroms)
    I     Atom           X                Y                Z
 ----------------------------------------------------------------
    1      C      -1.7320850938     1.2730029182     0.1539077555
    2      C      -1.0725074716     0.0000000000    -0.3745291159
    3      Se      0.8999130896     0.0000000000    -0.0435352211
    4      H       0.7734134951     0.0000000000     1.4275963230
    5      C      -1.7320850938    -1.2730029182     0.1539077555
    6      H      -1.2631242562     2.1701990850    -0.2563730574
    7      H      -2.7960838949     1.2847259369    -0.1152735107
    8      H      -1.6668174093     1.3262481838     1.2461070271
    9      H      -1.1063988047     0.0000000000    -1.4697674151
   10      H      -2.7960838949    -1.2847259369    -0.1152735107
   11      H      -1.2631242562    -2.1701990850    -0.2563730573
   12      H      -1.6668174093    -1.3262481838     1.2461070271
 ----------------------------------------------------------------

    9   -2520.4451350811      7.26e-07  Convergence criterion met
 Total energy in the final basis set =    -2520.4451350811

                    Orbital Energies (a.u.)
 --------------------------------------------------------------

 Alpha MOs
 -- Occupied --
******* -58.082 -52.140 -52.139 -52.136 -10.228 -10.185 -10.185
 -7.815  -5.761  -5.757  -5.748  -2.095  -2.094  -2.086  -2.083
 -2.082  -0.805  -0.693  -0.685  -0.576  -0.461  -0.440  -0.415
 -0.392  -0.377  -0.354  -0.343  -0.300  -0.222

 Beta MOs
 -- Occupied --
******* -58.082 -52.140 -52.139 -52.136 -10.228 -10.185 -10.185
 -7.815  -5.761  -5.757  -5.748  -2.095  -2.094  -2.086  -2.083
 -2.082  -0.805  -0.693  -0.685  -0.576  -0.461  -0.440  -0.415
 -0.392  -0.377  -0.354  -0.343  -0.300  -0.222

          Ground-State Mulliken Net Atomic Charges

     Atom                 Charge (a.u.)    Spin (a.u.)
  --------------------------------------------------------
      1 C                    -0.301325      -0.000000
      2 C                    -0.145636      -0.000000
      3 Se                   -0.100231       0.000000
      4 H                     0.048956      -0.000000
      5 C                    -0.301325       0.000000
      6 H                     0.124639      -0.000000
      7 H                     0.103839       0.000000
      8 H                     0.108655       0.000000
      9 H                     0.125294       0.000000
     10 H                     0.103839      -0.000000
     11 H                     0.124639      -0.000000
     12 H                     0.108655      -0.000000
  --------------------------------------------------------
  Sum of atomic charges =    -0.000000

                    Cartesian Multipole Moments
 -----------------------------------------------------------------
    Charge (ESU x 10^10)
                -0.0000
    Dipole Moment (Debye)
         X      -1.7516      Y      -0.0000      Z       0.3116
       Tot       1.7791
    Quadrupole Moments (Debye-Ang)
        XX     -39.0153     XY       0.0000     YY     -41.0169
        XZ       1.2290     YZ      -0.0000     ZZ     -37.0212

 Final energy is   -2520.44513508112
 **  OPTIMIZATION CONVERGED  **
 Total job time:  23.85s(wall), 275.90s(cpu)
        *  Thank you very much for using Q-Chem.  Have a nice day.  *
