 Q-Chem 5.1, Q-Chem, Inc., Pleasanton, CA (2018)
 Q-Chem 5.1.1 for Intel X86 EM64T Linux

User input:
--------------------------------------------------------------

$comment
potential surface scanner
$end

$rem
JOBTYPE  PES_SCAN
UNRESTRICTED TRUE
SYM_IGNORE  TRUE
GEOM_OPT_MAX_CYCLES 400
SCF_MAX_CYCLES 400
METHOD   B3LYP
BASIS   6-31G**
PDB_PRINT 2
SCF_CONVERGENCE 6
THRESH 14
SCF_PRINT 1
$end
$molecule
0 3
C -1.946439 1.302519 0.157773
C -1.283927 0.000000 -0.142759
Se 1.915789 0.000000 -0.185437
H 1.144193 0.000000 1.075653
C -1.946439 -1.302519 0.157773
H -1.246108 2.141206 0.091435
H -2.774128 1.519977 -0.540532
H -2.387536 1.302155 1.163151
H -0.489421 0.000000 -0.894606
H -2.774128 -1.519977 -0.540532
H -1.246108 -2.141206 0.091435
H -2.387536 -1.302155 1.163151
$end
$scan
stre 2 3 3.100000 3.101000 0.100000
$end
--------------------------------------------------------------

   10   -2520.3462453628      4.03e-07  Convergence criterion met
 Total energy in the final basis set =    -2520.3462453628
   10   -2520.3434679311      3.90e-07  Convergence criterion met
 Total energy in the final basis set =    -2520.3434679311
   10   -2520.3444242308      3.94e-07  Convergence criterion met
 Total energy in the final basis set =    -2520.3444242308
   10   -2520.3446860979      3.99e-07  Convergence criterion met
 Total energy in the final basis set =    -2520.3446860979
   10   -2520.3446900212      4.00e-07  Convergence criterion met
 Total energy in the final basis set =    -2520.3446900212

             Standard Nuclear Orientation (Angstroms)
    I     Atom           X                Y                Z
 ----------------------------------------------------------------
    1      C      -1.9321909463     1.3028706137     0.1580548360
    2      C      -1.2714100674     0.0000000000    -0.1442098285
    3      Se      1.8282016012     0.0000000000    -0.1932762126
    4      H       1.0972521593     0.0000000000     1.0903140879
    5      C      -1.9321909463    -1.3028706137     0.1580548360
    6      H      -1.2305882184     2.1405172173     0.0913434964
    7      H      -2.7609301758     1.5224582710    -0.5382832003
    8      H      -2.3709944908     1.3011694642     1.1643842967
    9      H      -0.4864240305     0.0000000000    -0.9073219043
   10      H      -2.7609301758    -1.5224582710    -0.5382832003
   11      H      -1.2305882184    -2.1405172173     0.0913434964
   12      H      -2.3709944908    -1.3011694642     1.1643842967
 ----------------------------------------------------------------

   10   -2520.3446907818      4.00e-07  Convergence criterion met
 Total energy in the final basis set =    -2520.3446907818

                    Orbital Energies (a.u.)
 --------------------------------------------------------------

 Alpha MOs
 -- Occupied --
******* -58.105 -52.164 -52.161 -52.158 -10.199 -10.184 -10.184
 -7.839  -5.786  -5.780  -5.769  -2.119  -2.118  -2.109  -2.105
 -2.103  -0.788  -0.702  -0.695  -0.579  -0.459  -0.434  -0.413
 -0.390  -0.384  -0.361  -0.360  -0.277  -0.247  -0.189

 Beta MOs
 -- Occupied --
******* -58.104 -52.160 -52.160 -52.157 -10.185 -10.185 -10.184
 -7.835  -5.779  -5.778  -5.767  -2.114  -2.113  -2.104  -2.104
 -2.101  -0.769  -0.693  -0.669  -0.554  -0.451  -0.416  -0.407
 -0.384  -0.373  -0.355  -0.350  -0.234

          Ground-State Mulliken Net Atomic Charges

     Atom                 Charge (a.u.)    Spin (a.u.)
  --------------------------------------------------------
      1 C                    -0.336818      -0.074322
      2 C                    -0.089619       1.038148
      3 Se                   -0.112407       0.988876
      4 H                     0.080489      -0.027060
      5 C                    -0.336818      -0.074322
      6 H                     0.121538       0.010089
      7 H                     0.115129       0.064535
      8 H                     0.111785       0.020971
      9 H                     0.098270      -0.042511
     10 H                     0.115129       0.064535
     11 H                     0.121538       0.010089
     12 H                     0.111785       0.020971
  --------------------------------------------------------
  Sum of atomic charges =    -0.000000

                    Cartesian Multipole Moments
 -----------------------------------------------------------------
    Charge (ESU x 10^10)
                 0.0000
    Dipole Moment (Debye)
         X      -1.3106      Y      -0.0000      Z       0.5263
       Tot       1.4124
    Quadrupole Moments (Debye-Ang)
        XX     -39.4307     XY       0.0000     YY     -41.3245
        XZ       0.6034     YZ       0.0000     ZZ     -38.1715

 Final energy is   -2520.34469078179
 **  OPTIMIZATION CONVERGED  **
 Total job time:  23.29s(wall), 270.09s(cpu)
        *  Thank you very much for using Q-Chem.  Have a nice day.  *
