 Q-Chem 5.1, Q-Chem, Inc., Pleasanton, CA (2018)
 Q-Chem 5.1.1 for Intel X86 EM64T Linux

User input:
--------------------------------------------------------------

$comment
potential surface scanner
$end

$rem
JOBTYPE  PES_SCAN
UNRESTRICTED TRUE
SYM_IGNORE  TRUE
GEOM_OPT_MAX_CYCLES 400
SCF_MAX_CYCLES 400
METHOD   B3LYP
BASIS   6-31G**
PDB_PRINT 2
SCF_CONVERGENCE 6
THRESH 14
SCF_PRINT 1
$end
$molecule
0 3
C -2.348135 1.299160 0.104335
C -1.646442 0.000000 -0.110947
Se 3.553513 0.000000 -0.132596
H 3.374840 0.000000 1.336801
C -2.348135 -1.299160 0.104335
H -1.651796 2.143697 0.118710
H -3.088262 1.509276 -0.688784
H -2.908314 1.304623 1.049429
H -0.710691 0.000000 -0.664143
H -3.088262 -1.509276 -0.688784
H -1.651796 -2.143697 0.118710
H -2.908314 -1.304623 1.049429
$end
$scan
stre 2 3 5.100000 5.101000 0.100000
$end
--------------------------------------------------------------

   10   -2520.3486787607      4.80e-07  Convergence criterion met
 Total energy in the final basis set =    -2520.3486787607
   10   -2520.3475562655      5.17e-07  Convergence criterion met
 Total energy in the final basis set =    -2520.3475562655
   10   -2520.3484431867      5.19e-07  Convergence criterion met
 Total energy in the final basis set =    -2520.3484431867
   10   -2520.3486851827      4.84e-07  Convergence criterion met
 Total energy in the final basis set =    -2520.3486851827
   10   -2520.3486885417      4.79e-07  Convergence criterion met
 Total energy in the final basis set =    -2520.3486885417

             Standard Nuclear Orientation (Angstroms)
    I     Atom           X                Y                Z
 ----------------------------------------------------------------
    1      C      -2.3289884822     1.2992178436     0.1041017176
    2      C      -1.6350055351     0.0000000000    -0.1342313494
    3      Se      3.4649605412     0.0000000000    -0.1156295005
    4      H       3.2913718011     0.0000000000     1.3543534965
    5      C      -2.3289884822    -1.2992178436     0.1041017176
    6      H      -1.6321338289     2.1434212235     0.0972112381
    7      H      -3.0938158953     1.5105754881    -0.6649140083
    8      H      -2.8590687196     1.3039925935     1.0664213120
    9      H      -0.7151069550     0.0000000000    -0.7136381655
   10      H      -3.0938158953    -1.5105754881    -0.6649140083
   11      H      -1.6321338289    -2.1434212235     0.0972112381
   12      H      -2.8590687196    -1.3039925935     1.0664213120
 ----------------------------------------------------------------

   10   -2520.3486887531      4.79e-07  Convergence criterion met
 Total energy in the final basis set =    -2520.3486887531

                    Orbital Energies (a.u.)
 --------------------------------------------------------------

 Alpha MOs
 -- Occupied --
******* -58.118 -52.178 -52.175 -52.172 -10.182 -10.174 -10.174
 -7.852  -5.800  -5.794  -5.782  -2.133  -2.132  -2.122  -2.118
 -2.116  -0.774  -0.712  -0.684  -0.564  -0.444  -0.422  -0.402
 -0.395  -0.379  -0.348  -0.341  -0.300  -0.257  -0.175

 Beta MOs
 -- Occupied --
******* -58.117 -52.174 -52.173 -52.171 -10.175 -10.175 -10.168
 -7.849  -5.792  -5.791  -5.780  -2.127  -2.127  -2.117  -2.117
 -2.114  -0.756  -0.682  -0.677  -0.542  -0.440  -0.405  -0.396
 -0.384  -0.373  -0.344  -0.336  -0.244

          Ground-State Mulliken Net Atomic Charges

     Atom                 Charge (a.u.)    Spin (a.u.)
  --------------------------------------------------------
      1 C                    -0.333782      -0.079968
      2 C                    -0.075845       1.018636
      3 Se                   -0.075695       1.027845
      4 H                     0.076038      -0.027491
      5 C                    -0.333782      -0.079968
      6 H                     0.108693       0.007039
      7 H                     0.108283       0.063156
      8 H                     0.105830       0.023449
      9 H                     0.097455      -0.046342
     10 H                     0.108283       0.063156
     11 H                     0.108693       0.007039
     12 H                     0.105830       0.023449
  --------------------------------------------------------
  Sum of atomic charges =     0.000000

                    Cartesian Multipole Moments
 -----------------------------------------------------------------
    Charge (ESU x 10^10)
                 0.0000
    Dipole Moment (Debye)
         X      -0.1924      Y      -0.0000      Z       0.6016
       Tot       0.6316
    Quadrupole Moments (Debye-Ang)
        XX     -42.0034     XY       0.0000     YY     -38.3367
        XZ       1.8455     YZ       0.0000     ZZ     -38.1168

 Final energy is   -2520.34868875307
 **  OPTIMIZATION CONVERGED  **
 Total job time:  21.61s(wall), 236.74s(cpu)
        *  Thank you very much for using Q-Chem.  Have a nice day.  *
