 Q-Chem 5.1, Q-Chem, Inc., Pleasanton, CA (2018)
 Q-Chem 5.1.1 for Intel X86 EM64T Linux

User input:
--------------------------------------------------------------

$comment
potential surface scanner
$end

$rem
JOBTYPE  PES_SCAN
UNRESTRICTED TRUE
SYM_IGNORE  TRUE
GEOM_OPT_MAX_CYCLES 400
SCF_MAX_CYCLES 400
METHOD   B3LYP
BASIS   6-31G**
PDB_PRINT 2
SCF_CONVERGENCE 6
THRESH 14
SCF_PRINT 1
$end
$molecule
0 1
C -1.761508 1.281334 0.148815
C -1.174970 0.000000 -0.400471
Se 1.089977 0.000000 -0.000455
H 0.893301 0.000000 1.463679
C -1.761508 -1.281334 0.148815
H -1.270522 2.165314 -0.262189
H -2.828606 1.328515 -0.114733
H -1.692123 1.321780 1.240147
H -1.124592 0.000000 -1.490334
H -2.828606 -1.328515 -0.114733
H -1.270522 -2.165314 -0.262189
H -1.692123 -1.321780 1.240147
$end
$scan
stre 2 3 2.400000 2.401000 0.100000
$end
--------------------------------------------------------------

    9   -2520.4325932390      7.56e-07  Convergence criterion met
 Total energy in the final basis set =    -2520.4325932390
    9   -2520.4253917343      8.87e-07  Convergence criterion met
 Total energy in the final basis set =    -2520.4253917343
    9   -2520.4253648676      9.45e-07  Convergence criterion met
 Total energy in the final basis set =    -2520.4253648676
   10   -2520.4254414133      1.81e-07  Convergence criterion met
 Total energy in the final basis set =    -2520.4254414133
   10   -2520.4254436272      1.81e-07  Convergence criterion met
 Total energy in the final basis set =    -2520.4254436272

             Standard Nuclear Orientation (Angstroms)
    I     Atom           X                Y                Z
 ----------------------------------------------------------------
    1      C      -1.7720825324     1.2839239305     0.1467373964
    2      C      -1.2100779699     0.0000000000    -0.4089521576
    3      Se      1.1523216102     0.0000000000     0.0142119226
    4      H       0.9355167428     0.0000000000     1.4760341015
    5      C      -1.7720825324    -1.2839239306     0.1467373964
    6      H      -1.2715670358     2.1620770271    -0.2645326083
    7      H      -2.8399586965     1.3453049027    -0.1144540958
    8      H      -1.7008389406     1.3195636156     1.2377721595
    9      H      -1.1306679725     0.0000000000    -1.4958405702
   10      H      -2.8399586965    -1.3453049027    -0.1144540958
   11      H      -1.2715670358    -2.1620770271    -0.2645326083
   12      H      -1.7008389406    -1.3195636156     1.2377721595
 ----------------------------------------------------------------

   10   -2520.4254439993      1.81e-07  Convergence criterion met
 Total energy in the final basis set =    -2520.4254439993

                    Orbital Energies (a.u.)
 --------------------------------------------------------------

 Alpha MOs
 -- Occupied --
******* -58.073 -52.130 -52.130 -52.127 -10.249 -10.194 -10.194
 -7.805  -5.750  -5.747  -5.737  -2.084  -2.083  -2.075  -2.073
 -2.071  -0.803  -0.704  -0.663  -0.583  -0.468  -0.443  -0.422
 -0.400  -0.368  -0.367  -0.352  -0.266  -0.215

 Beta MOs
 -- Occupied --
******* -58.073 -52.130 -52.130 -52.127 -10.249 -10.194 -10.194
 -7.805  -5.750  -5.747  -5.737  -2.084  -2.083  -2.075  -2.073
 -2.071  -0.803  -0.704  -0.663  -0.583  -0.468  -0.443  -0.422
 -0.400  -0.368  -0.367  -0.352  -0.266  -0.215

          Ground-State Mulliken Net Atomic Charges

     Atom                 Charge (a.u.)    Spin (a.u.)
  --------------------------------------------------------
      1 C                    -0.310462       0.000000
      2 C                    -0.098024      -0.000000
      3 Se                   -0.205402       0.000000
      4 H                     0.048991      -0.000000
      5 C                    -0.310462      -0.000000
      6 H                     0.137331      -0.000000
      7 H                     0.112188      -0.000000
      8 H                     0.120507      -0.000000
      9 H                     0.135308       0.000000
     10 H                     0.112188       0.000000
     11 H                     0.137331      -0.000000
     12 H                     0.120507       0.000000
  --------------------------------------------------------
  Sum of atomic charges =     0.000000

                    Cartesian Multipole Moments
 -----------------------------------------------------------------
    Charge (ESU x 10^10)
                 0.0000
    Dipole Moment (Debye)
         X      -2.8075      Y       0.0000      Z       0.2210
       Tot       2.8162
    Quadrupole Moments (Debye-Ang)
        XX     -38.6748     XY       0.0000     YY     -40.6677
        XZ       1.0986     YZ      -0.0000     ZZ     -36.8643

 Final energy is   -2520.42544399930
 **  OPTIMIZATION CONVERGED  **
 Total job time:  24.02s(wall), 277.88s(cpu)
        *  Thank you very much for using Q-Chem.  Have a nice day.  *
