 Q-Chem 5.1, Q-Chem, Inc., Pleasanton, CA (2018)
 Q-Chem 5.1.1 for Intel X86 EM64T Linux

User input:
--------------------------------------------------------------

$comment
potential surface scanner
$end

$rem
JOBTYPE  PES_SCAN
UNRESTRICTED TRUE
SYM_IGNORE  TRUE
GEOM_OPT_MAX_CYCLES 400
SCF_MAX_CYCLES 400
METHOD   B3LYP
BASIS   6-31G**
PDB_PRINT 2
SCF_CONVERGENCE 6
THRESH 14
SCF_PRINT 1
$end
$molecule
0 3
C -1.837167 1.296529 0.154385
C -1.171449 -0.000000 -0.168638
Se 1.328479 -0.000000 -0.149638
H 0.795206 0.000002 1.218717
C -1.837168 -1.296529 0.154385
H -1.147534 2.140907 0.051352
H -2.701393 1.501492 -0.501789
H -2.226761 1.289002 1.180338
H -0.548311 -0.000000 -1.072512
H -2.701394 -1.501492 -0.501789
H -1.147534 -2.140907 0.051353
H -2.226761 -1.289002 1.180338
$end
$scan
stre 2 3 2.400000 2.401000 0.100000
$end
--------------------------------------------------------------

   10   -2520.3154738683      4.84e-07  Convergence criterion met
 Total energy in the final basis set =    -2520.3154738683
   10   -2520.3043365330      5.11e-07  Convergence criterion met
 Total energy in the final basis set =    -2520.3043365330
   10   -2520.3041248571      5.15e-07  Convergence criterion met
 Total energy in the final basis set =    -2520.3041248571
   10   -2520.3042132963      5.25e-07  Convergence criterion met
 Total energy in the final basis set =    -2520.3042132963
   10   -2520.3042181693      5.24e-07  Convergence criterion met
 Total energy in the final basis set =    -2520.3042181693
   10   -2520.3042197545      5.23e-07  Convergence criterion met
 Total energy in the final basis set =    -2520.3042197545
   10   -2520.3042208701      5.23e-07  Convergence criterion met
 Total energy in the final basis set =    -2520.3042208701

             Standard Nuclear Orientation (Angstroms)
    I     Atom           X                Y                Z
 ----------------------------------------------------------------
    1      C      -1.8181176840     1.2928177471     0.1531941082
    2      C      -1.1478998480    -0.0000030641    -0.1786174987
    3      Se      1.2515943148    -0.0000038400    -0.1293344570
    4      H       0.7231136603     0.0000263486     1.2431035112
    5      C      -1.8181234629    -1.2928217864     0.1531906364
    6      H      -1.1367576318     2.1423415834     0.0374321450
    7      H      -2.6943144601     1.4894974383    -0.4895348948
    8      H      -2.1915311822     1.2829132067     1.1850131593
    9      H      -0.5671265444    -0.0000034220    -1.1108430409
   10      H      -2.6943214867    -1.4894963320    -0.4895382101
   11      H      -1.1367665891    -2.1423477728     0.0374265463
   12      H      -2.1915360859    -1.2829181067     1.1850099949
 ----------------------------------------------------------------

   10   -2520.3042215413      5.24e-07  Convergence criterion met
 Total energy in the final basis set =    -2520.3042215413

                    Orbital Energies (a.u.)
 --------------------------------------------------------------

 Alpha MOs
 -- Occupied --
******* -58.087 -52.146 -52.144 -52.140 -10.207 -10.190 -10.190
 -7.821  -5.768  -5.763  -5.752  -2.102  -2.101  -2.092  -2.088
 -2.086  -0.808  -0.702  -0.700  -0.590  -0.473  -0.444  -0.423
 -0.397  -0.390  -0.365  -0.362  -0.269  -0.235  -0.160

 Beta MOs
 -- Occupied --
******* -58.086 -52.143 -52.141 -52.140 -10.191 -10.190 -10.190
 -7.818  -5.762  -5.760  -5.750  -2.097  -2.096  -2.087  -2.087
 -2.084  -0.785  -0.699  -0.670  -0.561  -0.461  -0.424  -0.416
 -0.390  -0.378  -0.360  -0.346  -0.223

          Ground-State Mulliken Net Atomic Charges

     Atom                 Charge (a.u.)    Spin (a.u.)
  --------------------------------------------------------
      1 C                    -0.330095      -0.062295
      2 C                    -0.133192       0.994076
      3 Se                   -0.147732       0.933172
      4 H                     0.066276       0.004046
      5 C                    -0.330094      -0.062295
      6 H                     0.130379       0.013248
      7 H                     0.119202       0.061037
      8 H                     0.116765       0.019047
      9 H                     0.142147       0.006630
     10 H                     0.119201       0.061036
     11 H                     0.130379       0.013249
     12 H                     0.116764       0.019048
  --------------------------------------------------------
  Sum of atomic charges =     0.000000

                    Cartesian Multipole Moments
 -----------------------------------------------------------------
    Charge (ESU x 10^10)
                 0.0000
    Dipole Moment (Debye)
         X      -2.3365      Y       0.0000      Z       0.3559
       Tot       2.3634
    Quadrupole Moments (Debye-Ang)
        XX     -40.0367     XY      -0.0001     YY     -41.0633
        XZ       0.4234     YZ       0.0001     ZZ     -37.4856

 Final energy is   -2520.30422154134
 **  OPTIMIZATION CONVERGED  **
 Total job time:  38.31s(wall), 383.10s(cpu)
        *  Thank you very much for using Q-Chem.  Have a nice day.  *
