 Q-Chem 5.1, Q-Chem, Inc., Pleasanton, CA (2018)
 Q-Chem 5.1.1 for Intel X86 EM64T Linux

User input:
--------------------------------------------------------------

$comment
potential surface scanner
$end

$rem
JOBTYPE  PES_SCAN
UNRESTRICTED TRUE
SYM_IGNORE  TRUE
GEOM_OPT_MAX_CYCLES 400
SCF_MAX_CYCLES 400
METHOD   B3LYP
BASIS   6-31G**
PDB_PRINT 2
SCF_CONVERGENCE 6
THRESH 14
SCF_PRINT 1
$end
$molecule
0 1
C -1.730200 1.249200 0.145700
C -1.070500 -0.000000 -0.441800
Se 0.838900 0.000000 0.000600
H 0.783300 0.000000 1.559600
C -1.730200 -1.249200 0.145700
H -1.260200 2.139200 -0.272800
H -2.792000 1.249200 -0.100300
H -1.608100 1.249200 1.228900
H -1.192500 -0.000000 -1.524900
H -2.792000 -1.249200 -0.100300
H -1.260200 -2.139200 -0.272800
H -1.608100 -1.249200 1.228900
$end
$scan
stre 2 3 1.000000 1.001000 0.100000
$end
--------------------------------------------------------------

    9   -2520.4375567929      9.33e-07  Convergence criterion met
 Total energy in the final basis set =    -2520.4375567929
    9   -2520.4301686091      6.81e-07  Convergence criterion met
 Total energy in the final basis set =    -2520.4301686091
    9   -2520.3985670908      5.97e-07  Convergence criterion met
 Total energy in the final basis set =    -2520.3985670908
    9   -2520.3312487391      6.06e-07  Convergence criterion met
 Total energy in the final basis set =    -2520.3312487391
    9   -2520.2186337193      6.53e-07  Convergence criterion met
 Total energy in the final basis set =    -2520.2186337193
    9   -2520.0336386724      7.24e-07  Convergence criterion met
 Total energy in the final basis set =    -2520.0336386724
   10   -2519.7755548429      2.92e-07  Convergence criterion met
 Total energy in the final basis set =    -2519.7755548429
   10   -2519.6066010372      3.87e-07  Convergence criterion met
   10   -2518.6660350675      4.21e-07  Convergence criterion met
 Total energy in the final basis set =    -2518.6660350675
   10   -2518.6660387413      4.18e-07  Convergence criterion met
 Total energy in the final basis set =    -2518.6660387413
   10   -2518.6660415070      4.17e-07  Convergence criterion met
 Total energy in the final basis set =    -2518.6660415070
   10   -2518.6660457050      4.16e-07  Convergence criterion met
 Total energy in the final basis set =    -2518.6660457050
   10   -2518.6660504598      4.15e-07  Convergence criterion met
 Total energy in the final basis set =    -2518.6660504598
   10   -2518.6660532722      4.17e-07  Convergence criterion met
 Total energy in the final basis set =    -2518.6660532722

             Standard Nuclear Orientation (Angstroms)
    I     Atom           X                Y                Z
 ----------------------------------------------------------------
    1      C      -1.7381941568     1.3486683035     0.1587752714
    2      C      -0.5808982438     0.0000000000    -0.2960799988
    3      Se      0.4119537018     0.0000000000    -0.1767274865
    4      H       0.8413677376     0.0000000000     1.3279727761
    5      C      -1.7381941562    -1.3486683031     0.1587752720
    6      H      -1.2759537869     2.2600361450    -0.2360471726
    7      H      -2.7660817281     1.2325346034    -0.1911106727
    8      H      -1.6944276683     1.3417099779     1.2516723138
    9      H      -1.1449085181     0.0000000000    -1.2252447742
   10      H      -2.7660817279    -1.2325346034    -0.1911106713
   11      H      -1.2759537860    -2.2600361457    -0.2360471724
   12      H      -1.6944276671    -1.3417099778     1.2516723152
 ----------------------------------------------------------------

   10   -2518.6660539717      4.18e-07  Convergence criterion met
 Total energy in the final basis set =    -2518.6660539717

                    Orbital Energies (a.u.)
 --------------------------------------------------------------

 Alpha MOs
 -- Occupied --
******* -58.158 -52.211 -52.208 -52.207 -10.356 -10.176 -10.176
 -7.942  -5.922  -5.862  -5.856  -2.274  -2.232  -2.227  -2.183
 -2.183  -0.934  -0.694  -0.676  -0.609  -0.497  -0.478  -0.420
 -0.401  -0.388  -0.377  -0.371  -0.233  -0.168

 Beta MOs
 -- Occupied --
******* -58.158 -52.211 -52.208 -52.207 -10.356 -10.176 -10.176
 -7.942  -5.922  -5.862  -5.856  -2.274  -2.232  -2.227  -2.183
 -2.183  -0.934  -0.694  -0.676  -0.609  -0.497  -0.478  -0.420
 -0.401  -0.388  -0.377  -0.371  -0.233  -0.168

          Ground-State Mulliken Net Atomic Charges

     Atom                 Charge (a.u.)    Spin (a.u.)
  --------------------------------------------------------
      1 C                    -0.415682      -0.000000
      2 C                    -0.489272      -0.000000
      3 Se                    0.529620       0.000000
      4 H                    -0.042822      -0.000000
      5 C                    -0.415682      -0.000000
      6 H                     0.099843       0.000000
      7 H                     0.099444       0.000000
      8 H                     0.113571       0.000000
      9 H                     0.208121      -0.000000
     10 H                     0.099444      -0.000000
     11 H                     0.099843      -0.000000
     12 H                     0.113571       0.000000
  --------------------------------------------------------
  Sum of atomic charges =    -0.000000

                    Cartesian Multipole Moments
 -----------------------------------------------------------------
    Charge (ESU x 10^10)
                 0.0000
    Dipole Moment (Debye)
         X      -1.3947      Y      -0.0000      Z      -0.7764
       Tot       1.5962
    Quadrupole Moments (Debye-Ang)
        XX     -41.0186     XY       0.0000     YY     -40.4328
        XZ       1.8915     YZ      -0.0000     ZZ     -36.8606

 Final energy is   -2518.66605397174
 **  OPTIMIZATION CONVERGED  **
 Total job time:  188.56s(wall), 2207.63s(cpu)
        *  Thank you very much for using Q-Chem.  Have a nice day.  *
