 Q-Chem 5.1, Q-Chem, Inc., Pleasanton, CA (2018)
 Q-Chem 5.1.1 for Intel X86 EM64T Linux

User input:
--------------------------------------------------------------

$comment
potential surface scanner
$end

$rem
JOBTYPE  PES_SCAN
UNRESTRICTED TRUE
SYM_IGNORE  TRUE
GEOM_OPT_MAX_CYCLES 400
SCF_MAX_CYCLES 400
METHOD   B3LYP
BASIS   6-31G**
PDB_PRINT 2
SCF_CONVERGENCE 6
THRESH 14
SCF_PRINT 1
$end
$molecule
0 1
C -1.730200 1.249200 0.145700
C -1.070500 -0.000000 -0.441800
Se 0.838900 0.000000 0.000600
H 0.783300 0.000000 1.559600
C -1.730200 -1.249200 0.145700
H -1.260200 2.139200 -0.272800
H -2.792000 1.249200 -0.100300
H -1.608100 1.249200 1.228900
H -1.192500 -0.000000 -1.524900
H -2.792000 -1.249200 -0.100300
H -1.260200 -2.139200 -0.272800
H -1.608100 -1.249200 1.228900
$end
$scan
stre 2 3 1.900000 1.901000 0.100000
$end
--------------------------------------------------------------

    9   -2520.4375567929      9.33e-07  Convergence criterion met
 Total energy in the final basis set =    -2520.4375567929
    9   -2520.4416292379      6.55e-07  Convergence criterion met
 Total energy in the final basis set =    -2520.4416292379
    9   -2520.4419542587      6.61e-07  Convergence criterion met
 Total energy in the final basis set =    -2520.4419542587
    9   -2520.4420773209      6.78e-07  Convergence criterion met
 Total energy in the final basis set =    -2520.4420773209

             Standard Nuclear Orientation (Angstroms)
    I     Atom           X                Y                Z
 ----------------------------------------------------------------
    1      C      -1.7242180149     1.2694977247     0.1551207327
    2      C      -1.0377800937     0.0000000000    -0.3642348236
    3      Se      0.8373824560     0.0000000000    -0.0580228301
    4      H       0.7454850968     0.0000000000     1.4164729711
    5      C      -1.7242180150    -1.2694977247     0.1551207327
    6      H      -1.2628317703     2.1710682777    -0.2550251590
    7      H      -2.7868761174     1.2686631615    -0.1164629469
    8      H      -1.6611037517     1.3269920915     1.2476515552
    9      H      -1.0968281504     0.0000000000    -1.4602836813
   10      H      -2.7868761174    -1.2686631615    -0.1164629469
   11      H      -1.2628317703    -2.1710682777    -0.2550251590
   12      H      -1.6611037517    -1.3269920915     1.2476515552
 ----------------------------------------------------------------

    9   -2520.4420797021      6.76e-07  Convergence criterion met
 Total energy in the final basis set =    -2520.4420797021

                    Orbital Energies (a.u.)
 --------------------------------------------------------------

 Alpha MOs
 -- Occupied --
******* -58.083 -52.140 -52.139 -52.137 -10.223 -10.184 -10.184
 -7.817  -5.763  -5.758  -5.749  -2.096  -2.095  -2.088  -2.084
 -2.083  -0.812  -0.691  -0.690  -0.575  -0.461  -0.440  -0.416
 -0.391  -0.380  -0.352  -0.341  -0.307  -0.221

 Beta MOs
 -- Occupied --
******* -58.083 -52.140 -52.139 -52.137 -10.223 -10.184 -10.184
 -7.817  -5.763  -5.758  -5.749  -2.096  -2.095  -2.088  -2.084
 -2.083  -0.812  -0.691  -0.690  -0.575  -0.461  -0.440  -0.416
 -0.391  -0.380  -0.352  -0.341  -0.307  -0.221

          Ground-State Mulliken Net Atomic Charges

     Atom                 Charge (a.u.)    Spin (a.u.)
  --------------------------------------------------------
      1 C                    -0.301479       0.000000
      2 C                    -0.142128      -0.000000
      3 Se                   -0.089864      -0.000000
      4 H                     0.046929       0.000000
      5 C                    -0.301479      -0.000000
      6 H                     0.122454       0.000000
      7 H                     0.102405       0.000000
      8 H                     0.106874       0.000000
      9 H                     0.124555       0.000000
     10 H                     0.102405       0.000000
     11 H                     0.122454      -0.000000
     12 H                     0.106874       0.000000
  --------------------------------------------------------
  Sum of atomic charges =    -0.000000

                    Cartesian Multipole Moments
 -----------------------------------------------------------------
    Charge (ESU x 10^10)
                 0.0000
    Dipole Moment (Debye)
         X      -1.6249      Y       0.0000      Z       0.3126
       Tot       1.6547
    Quadrupole Moments (Debye-Ang)
        XX     -39.0910     XY       0.0000     YY     -41.0377
        XZ       1.2723     YZ       0.0000     ZZ     -37.0460

 Final energy is   -2520.44207970213
 **  OPTIMIZATION CONVERGED  **
 Total job time:  20.84s(wall), 233.09s(cpu)
        *  Thank you very much for using Q-Chem.  Have a nice day.  *
