 Q-Chem 5.1, Q-Chem, Inc., Pleasanton, CA (2018)
 Q-Chem 5.1.1 for Intel X86 EM64T Linux

User input:
--------------------------------------------------------------

$comment
potential surface scanner
$end

$rem
JOBTYPE  PES_SCAN
UNRESTRICTED TRUE
SYM_IGNORE  TRUE
GEOM_OPT_MAX_CYCLES 400
SCF_MAX_CYCLES 400
METHOD   B3LYP
BASIS   6-31G**
PDB_PRINT 2
SCF_CONVERGENCE 6
THRESH 14
SCF_PRINT 1
$end
$molecule
0 3
C -1.997064 1.301788 0.158062
C -1.328441 0.000000 -0.132403
Se 2.171033 0.000000 -0.193063
H 1.365907 0.000000 1.049337
C -1.997064 -1.301788 0.158062
H -1.295088 2.140736 0.115057
H -2.803697 1.524333 -0.563230
H -2.467333 1.298556 1.150044
H -0.503923 0.000000 -0.847234
H -2.803697 -1.524333 -0.563230
H -1.295088 -2.140736 0.115057
H -2.467333 -1.298556 1.150044
$end
$scan
stre 2 3 3.400000 3.401000 0.100000
$end
--------------------------------------------------------------

   10   -2520.3486551361      4.12e-07  Convergence criterion met
 Total energy in the final basis set =    -2520.3486551361
   10   -2520.3473104849      4.15e-07  Convergence criterion met
 Total energy in the final basis set =    -2520.3473104849
   10   -2520.3479383110      4.10e-07  Convergence criterion met
 Total energy in the final basis set =    -2520.3479383110
   10   -2520.3481079343      4.09e-07  Convergence criterion met
 Total energy in the final basis set =    -2520.3481079343
   10   -2520.3481124589      4.09e-07  Convergence criterion met
 Total energy in the final basis set =    -2520.3481124589
   10   -2520.3481147425      4.09e-07  Convergence criterion met
 Total energy in the final basis set =    -2520.3481147425
   10   -2520.3481162225      4.09e-07  Convergence criterion met
 Total energy in the final basis set =    -2520.3481162225

             Standard Nuclear Orientation (Angstroms)
    I     Atom           X                Y                Z
 ----------------------------------------------------------------
    1      C      -1.9790786177     1.3020142981     0.1566056343
    2      C      -1.3147147486     0.0000000000    -0.1425694682
    3      Se      2.0850941322     0.0000000000    -0.1786191243
    4      H       1.2899038903     0.0000000000     1.0694354116
    5      C      -1.9790786177    -1.3020142981     0.1566056343
    6      H      -1.2784411723     2.1411061125     0.0985029964
    7      H      -2.7995684376     1.5218506637    -0.5496547916
    8      H      -2.4304786637     1.3005109161     1.1573596682
    9      H      -0.5069374914     0.0000000000    -0.8773708338
   10      H      -2.7995684376    -1.5218506637    -0.5496547916
   11      H      -1.2784411723    -2.1411061125     0.0985029964
   12      H      -2.4304786637    -1.3005109161     1.1573596682
 ----------------------------------------------------------------

   10   -2520.3481167234      4.09e-07  Convergence criterion met
 Total energy in the final basis set =    -2520.3481167234

                    Orbital Energies (a.u.)
 --------------------------------------------------------------

 Alpha MOs
 -- Occupied --
******* -58.110 -52.169 -52.166 -52.163 -10.196 -10.182 -10.182
 -7.844  -5.792  -5.785  -5.773  -2.124  -2.124  -2.114  -2.110
 -2.108  -0.785  -0.705  -0.693  -0.575  -0.455  -0.431  -0.411
 -0.388  -0.387  -0.357  -0.355  -0.287  -0.250  -0.188

 Beta MOs
 -- Occupied --
******* -58.109 -52.165 -52.165 -52.162 -10.183 -10.183 -10.181
 -7.840  -5.784  -5.783  -5.772  -2.119  -2.118  -2.109  -2.109
 -2.106  -0.767  -0.691  -0.671  -0.552  -0.449  -0.413  -0.405
 -0.381  -0.376  -0.353  -0.346  -0.237

          Ground-State Mulliken Net Atomic Charges

     Atom                 Charge (a.u.)    Spin (a.u.)
  --------------------------------------------------------
      1 C                    -0.336985      -0.075846
      2 C                    -0.082519       1.025723
      3 Se                   -0.101553       1.009810
      4 H                     0.081534      -0.027092
      5 C                    -0.336985      -0.075846
      6 H                     0.118109       0.009180
      7 H                     0.113925       0.064694
      8 H                     0.110178       0.020352
      9 H                     0.092083      -0.045200
     10 H                     0.113925       0.064694
     11 H                     0.118109       0.009180
     12 H                     0.110178       0.020352
  --------------------------------------------------------
  Sum of atomic charges =    -0.000000

                    Cartesian Multipole Moments
 -----------------------------------------------------------------
    Charge (ESU x 10^10)
                 0.0000
    Dipole Moment (Debye)
         X      -1.0794      Y      -0.0000      Z       0.5175
       Tot       1.1970
    Quadrupole Moments (Debye-Ang)
        XX     -39.4562     XY       0.0000     YY     -41.4360
        XZ       0.7104     YZ       0.0000     ZZ     -38.2517

 Final energy is   -2520.34811672344
 **  OPTIMIZATION CONVERGED  **
 Total job time:  30.90s(wall), 352.28s(cpu)
        *  Thank you very much for using Q-Chem.  Have a nice day.  *
