 Q-Chem 5.1, Q-Chem, Inc., Pleasanton, CA (2018)
 Q-Chem 5.1.1 for Intel X86 EM64T Linux

User input:
--------------------------------------------------------------

$comment
potential surface scanner
$end

$rem
JOBTYPE  PES_SCAN
UNRESTRICTED TRUE
SYM_IGNORE  TRUE
GEOM_OPT_MAX_CYCLES 400
SCF_MAX_CYCLES 400
METHOD   B3LYP
BASIS   6-31G**
PDB_PRINT 2
SCF_CONVERGENCE 6
THRESH 14
SCF_PRINT 1
$end
$molecule
0 3
C -2.374065 1.299284 0.095868
C -1.680145 0.000000 -0.141681
Se 3.619581 0.000000 -0.087762
H 3.580245 0.000000 1.392318
C -2.374065 -1.299284 0.095868
H -1.678104 2.144050 0.083099
H -3.143380 1.507347 -0.669485
H -2.899313 1.306556 1.060982
H -0.751751 0.000000 -0.707306
H -3.143380 -1.507347 -0.669485
H -1.678104 -2.144050 0.083099
H -2.899313 -1.306556 1.060982
$end
$scan
stre 2 3 5.200000 5.201000 0.100000
$end
--------------------------------------------------------------

   10   -2520.3486370801      4.77e-07  Convergence criterion met
 Total energy in the final basis set =    -2520.3486370801
   10   -2520.3475644340      5.20e-07  Convergence criterion met
 Total energy in the final basis set =    -2520.3475644340
   10   -2520.3483987133      5.17e-07  Convergence criterion met
 Total energy in the final basis set =    -2520.3483987133
   10   -2520.3486270978      4.82e-07  Convergence criterion met
 Total energy in the final basis set =    -2520.3486270978
   10   -2520.3486311467      4.77e-07  Convergence criterion met
 Total energy in the final basis set =    -2520.3486311467
   10   -2520.3486326008      4.76e-07  Convergence criterion met
 Total energy in the final basis set =    -2520.3486326008
   10   -2520.3486392807      4.72e-07  Convergence criterion met
 Total energy in the final basis set =    -2520.3486392807
   10   -2520.3486496344      4.69e-07  Convergence criterion met
 Total energy in the final basis set =    -2520.3486496344
   10   -2520.3486631077      4.68e-07  Convergence criterion met
 Total energy in the final basis set =    -2520.3486631077
   10   -2520.3486734378      4.73e-07  Convergence criterion met
 Total energy in the final basis set =    -2520.3486734378
   10   -2520.3486785160      4.80e-07  Convergence criterion met
 Total energy in the final basis set =    -2520.3486785160

             Standard Nuclear Orientation (Angstroms)
    I     Atom           X                Y                Z
 ----------------------------------------------------------------
    1      C      -2.3481350686     1.2991598970     0.1043354333
    2      C      -1.6464421041     0.0000000000    -0.1109465722
    3      Se      3.5535128294     0.0000000000    -0.1325960389
    4      H       3.3748396540     0.0000000000     1.3368011119
    5      C      -2.3481350710    -1.2991598977     0.1043354326
    6      H      -1.6517955935     2.1436969920     0.1187104050
    7      H      -3.0882622723     1.5092764791    -0.6887839914
    8      H      -2.9083138953     1.3046233828     1.0494290764
    9      H      -0.7106907084     0.0000000000    -0.6641433437
   10      H      -3.0882622752    -1.5092764774    -0.6887839922
   11      H      -1.6517955975    -2.1436969941     0.1187104036
   12      H      -2.9083138976    -1.3046233828     1.0494290757
 ----------------------------------------------------------------

   10   -2520.3486787607      4.80e-07  Convergence criterion met
 Total energy in the final basis set =    -2520.3486787607

                    Orbital Energies (a.u.)
 --------------------------------------------------------------

 Alpha MOs
 -- Occupied --
******* -58.118 -52.178 -52.175 -52.172 -10.182 -10.174 -10.174
 -7.852  -5.800  -5.794  -5.782  -2.133  -2.132  -2.122  -2.118
 -2.116  -0.774  -0.712  -0.684  -0.564  -0.445  -0.422  -0.402
 -0.395  -0.379  -0.348  -0.341  -0.300  -0.257  -0.176

 Beta MOs
 -- Occupied --
******* -58.117 -52.174 -52.173 -52.171 -10.175 -10.175 -10.169
 -7.849  -5.792  -5.792  -5.780  -2.128  -2.127  -2.117  -2.117
 -2.114  -0.756  -0.682  -0.677  -0.542  -0.440  -0.405  -0.396
 -0.384  -0.373  -0.344  -0.336  -0.244

          Ground-State Mulliken Net Atomic Charges

     Atom                 Charge (a.u.)    Spin (a.u.)
  --------------------------------------------------------
      1 C                    -0.333716      -0.079874
      2 C                    -0.075818       1.018635
      3 Se                   -0.075613       1.027735
      4 H                     0.075996      -0.027489
      5 C                    -0.333716      -0.079874
      6 H                     0.108669       0.007038
      7 H                     0.108342       0.063199
      8 H                     0.105955       0.023317
      9 H                     0.096936      -0.046242
     10 H                     0.108342       0.063199
     11 H                     0.108669       0.007038
     12 H                     0.105955       0.023317
  --------------------------------------------------------
  Sum of atomic charges =    -0.000000

                    Cartesian Multipole Moments
 -----------------------------------------------------------------
    Charge (ESU x 10^10)
                -0.0000
    Dipole Moment (Debye)
         X      -0.1943      Y       0.0000      Z       0.5946
       Tot       0.6255
    Quadrupole Moments (Debye-Ang)
        XX     -41.9932     XY      -0.0000     YY     -38.3334
        XZ       1.9202     YZ      -0.0000     ZZ     -38.1761

 Final energy is   -2520.34867876071
 **  OPTIMIZATION CONVERGED  **
 Total job time:  40.02s(wall), 465.00s(cpu)
        *  Thank you very much for using Q-Chem.  Have a nice day.  *
