 Q-Chem 5.1, Q-Chem, Inc., Pleasanton, CA (2018)
 Q-Chem 5.1.1 for Intel X86 EM64T Linux

User input:
--------------------------------------------------------------

$comment
potential surface scanner
$end

$rem
JOBTYPE  PES_SCAN
UNRESTRICTED TRUE
SYM_IGNORE  TRUE
GEOM_OPT_MAX_CYCLES 400
SCF_MAX_CYCLES 400
METHOD   B3LYP
BASIS   6-31G**
PDB_PRINT 2
SCF_CONVERGENCE 6
THRESH 14
SCF_PRINT 1
$end
$molecule
0 1
C -1.772083 1.283924 0.146737
C -1.210078 0.000000 -0.408952
Se 1.152322 0.000000 0.014212
H 0.935517 0.000000 1.476034
C -1.772083 -1.283924 0.146737
H -1.271567 2.162077 -0.264533
H -2.839959 1.345305 -0.114454
H -1.700839 1.319564 1.237772
H -1.130668 0.000000 -1.495841
H -2.839959 -1.345305 -0.114454
H -1.271567 -2.162077 -0.264533
H -1.700839 -1.319564 1.237772
$end
$scan
stre 2 3 2.500000 2.501000 0.100000
$end
--------------------------------------------------------------

   10   -2520.4254439701      1.81e-07  Convergence criterion met
 Total energy in the final basis set =    -2520.4254439701
   10   -2520.4179917638      2.81e-07  Convergence criterion met
 Total energy in the final basis set =    -2520.4179917638
   10   -2520.4179384955      2.93e-07  Convergence criterion met
 Total energy in the final basis set =    -2520.4179384955
   10   -2520.4180230582      3.10e-07  Convergence criterion met
 Total energy in the final basis set =    -2520.4180230582
   10   -2520.4180253082      3.11e-07  Convergence criterion met
 Total energy in the final basis set =    -2520.4180253082

             Standard Nuclear Orientation (Angstroms)
    I     Atom           X                Y                Z
 ----------------------------------------------------------------
    1      C      -1.7827883317     1.2864009503     0.1446296217
    2      C      -1.2454215615     0.0000000000    -0.4173685346
    3      Se      1.2144985632     0.0000000000     0.0284930275
    4      H       0.9770560840     0.0000000000     1.4877008744
    5      C      -1.7827883317    -1.2864009503     0.1446296217
    6      H      -1.2713367116     2.1580181148    -0.2663973119
    7      H      -2.8510576581     1.3635492055    -0.1144356207
    8      H      -1.7100102336     1.3167774823     1.2354148717
    9      H      -1.1375502156     0.0000000000    -1.5007514890
   10      H      -2.8510576581    -1.3635492055    -0.1144356207
   11      H      -1.2713367116    -2.1580181148    -0.2663973119
   12      H      -1.7100102336    -1.3167774823     1.2354148717
 ----------------------------------------------------------------

   10   -2520.4180256709      3.11e-07  Convergence criterion met
 Total energy in the final basis set =    -2520.4180256709

                    Orbital Energies (a.u.)
 --------------------------------------------------------------

 Alpha MOs
 -- Occupied --
******* -58.070 -52.127 -52.126 -52.124 -10.254 -10.197 -10.197
 -7.802  -5.746  -5.744  -5.734  -2.080  -2.080  -2.072  -2.070
 -2.068  -0.805  -0.707  -0.658  -0.586  -0.471  -0.445  -0.425
 -0.402  -0.371  -0.369  -0.351  -0.257  -0.212

 Beta MOs
 -- Occupied --
******* -58.070 -52.127 -52.126 -52.124 -10.254 -10.197 -10.197
 -7.802  -5.746  -5.744  -5.734  -2.080  -2.080  -2.072  -2.070
 -2.068  -0.805  -0.707  -0.658  -0.586  -0.471  -0.445  -0.425
 -0.402  -0.371  -0.369  -0.351  -0.257  -0.212

          Ground-State Mulliken Net Atomic Charges

     Atom                 Charge (a.u.)    Spin (a.u.)
  --------------------------------------------------------
      1 C                    -0.314428      -0.000000
      2 C                    -0.078884       0.000000
      3 Se                   -0.238201      -0.000000
      4 H                     0.047894      -0.000000
      5 C                    -0.314428      -0.000000
      6 H                     0.141177       0.000000
      7 H                     0.114666       0.000000
      8 H                     0.123943       0.000000
      9 H                     0.138475      -0.000000
     10 H                     0.114666      -0.000000
     11 H                     0.141177       0.000000
     12 H                     0.123943       0.000000
  --------------------------------------------------------
  Sum of atomic charges =    -0.000000

                    Cartesian Multipole Moments
 -----------------------------------------------------------------
    Charge (ESU x 10^10)
                 0.0000
    Dipole Moment (Debye)
         X      -3.1622      Y      -0.0000      Z       0.1824
       Tot       3.1675
    Quadrupole Moments (Debye-Ang)
        XX     -38.6222     XY       0.0000     YY     -40.5420
        XZ       1.0606     YZ       0.0000     ZZ     -36.8217

 Final energy is   -2520.41802567091
 **  OPTIMIZATION CONVERGED  **
 Total job time:  24.57s(wall), 284.65s(cpu)
        *  Thank you very much for using Q-Chem.  Have a nice day.  *
