 Q-Chem 5.1, Q-Chem, Inc., Pleasanton, CA (2018)
 Q-Chem 5.1.1 for Intel X86 EM64T Linux

User input:
--------------------------------------------------------------

$comment
potential surface scanner
$end

$rem
JOBTYPE  PES_SCAN
UNRESTRICTED TRUE
SYM_IGNORE  TRUE
GEOM_OPT_MAX_CYCLES 400
SCF_MAX_CYCLES 400
METHOD   B3LYP
BASIS   6-31G**
PDB_PRINT 2
SCF_CONVERGENCE 6
THRESH 14
SCF_PRINT 1
$end
$molecule
0 3
C -2.328988 1.299218 0.104102
C -1.635006 0.000000 -0.134231
Se 3.464961 0.000000 -0.115630
H 3.291372 0.000000 1.354353
C -2.328988 -1.299218 0.104102
H -1.632134 2.143421 0.097211
H -3.093816 1.510575 -0.664914
H -2.859069 1.303993 1.066421
H -0.715107 0.000000 -0.713638
H -3.093816 -1.510575 -0.664914
H -1.632134 -2.143421 0.097211
H -2.859069 -1.303993 1.066421
$end
$scan
stre 2 3 5.000000 5.001000 0.100000
$end
--------------------------------------------------------------

   10   -2520.3486887531      4.79e-07  Convergence criterion met
 Total energy in the final basis set =    -2520.3486887531
   10   -2520.3476413449      5.24e-07  Convergence criterion met
 Total energy in the final basis set =    -2520.3476413449
   10   -2520.3484607695      5.16e-07  Convergence criterion met
 Total energy in the final basis set =    -2520.3484607695
   10   -2520.3486851172      4.82e-07  Convergence criterion met
 Total energy in the final basis set =    -2520.3486851172
   10   -2520.3486883524      4.78e-07  Convergence criterion met
 Total energy in the final basis set =    -2520.3486883524

             Standard Nuclear Orientation (Angstroms)
    I     Atom           X                Y                Z
 ----------------------------------------------------------------
    1      C      -2.3093686989     1.2992860570     0.1040585531
    2      C      -1.6234388249     0.0000000000    -0.1558979956
    3      Se      3.3762466758     0.0000000000    -0.0998185935
    4      H       3.2039903376     0.0000000000     1.3702997928
    5      C      -2.3093686989    -1.2992860570     0.1040585531
    6      H      -1.6125894836     2.1431370885     0.0766023920
    7      H      -3.0971550884     1.5117362464    -0.6411422134
    8      H      -2.8100590279     1.3036392922     1.0820108314
    9      H      -0.7202475907     0.0000000000    -0.7611483301
   10      H      -3.0971550884    -1.5117362464    -0.6411422134
   11      H      -1.6125894836    -2.1431370885     0.0766023920
   12      H      -2.8100590279    -1.3036392922     1.0820108314
 ----------------------------------------------------------------

   10   -2520.3486888723      4.77e-07  Convergence criterion met
 Total energy in the final basis set =    -2520.3486888723

                    Orbital Energies (a.u.)
 --------------------------------------------------------------

 Alpha MOs
 -- Occupied --
******* -58.118 -52.178 -52.175 -52.171 -10.182 -10.174 -10.174
 -7.852  -5.800  -5.794  -5.782  -2.133  -2.132  -2.122  -2.118
 -2.116  -0.773  -0.712  -0.684  -0.564  -0.444  -0.422  -0.402
 -0.395  -0.379  -0.348  -0.341  -0.300  -0.256  -0.175

 Beta MOs
 -- Occupied --
******* -58.117 -52.174 -52.173 -52.171 -10.175 -10.175 -10.168
 -7.849  -5.792  -5.791  -5.780  -2.127  -2.127  -2.117  -2.117
 -2.114  -0.756  -0.682  -0.677  -0.542  -0.439  -0.405  -0.396
 -0.384  -0.373  -0.344  -0.336  -0.244

          Ground-State Mulliken Net Atomic Charges

     Atom                 Charge (a.u.)    Spin (a.u.)
  --------------------------------------------------------
      1 C                    -0.333864      -0.080021
      2 C                    -0.075705       1.018526
      3 Se                   -0.075800       1.027998
      4 H                     0.076068      -0.027495
      5 C                    -0.333864      -0.080021
      6 H                     0.108718       0.007046
      7 H                     0.108219       0.063143
      8 H                     0.105702       0.023525
      9 H                     0.097888      -0.046416
     10 H                     0.108219       0.063143
     11 H                     0.108718       0.007046
     12 H                     0.105702       0.023525
  --------------------------------------------------------
  Sum of atomic charges =     0.000000

                    Cartesian Multipole Moments
 -----------------------------------------------------------------
    Charge (ESU x 10^10)
                 0.0000
    Dipole Moment (Debye)
         X      -0.1937      Y      -0.0000      Z       0.6070
       Tot       0.6371
    Quadrupole Moments (Debye-Ang)
        XX     -42.0270     XY      -0.0000     YY     -38.3400
        XZ       1.7625     YZ      -0.0000     ZZ     -38.0617

 Final energy is   -2520.34868887227
 **  OPTIMIZATION CONVERGED  **
 Total job time:  20.37s(wall), 235.91s(cpu)
        *  Thank you very much for using Q-Chem.  Have a nice day.  *
