 Q-Chem 5.1, Q-Chem, Inc., Pleasanton, CA (2018)
 Q-Chem 5.1.1 for Intel X86 EM64T Linux

User input:
--------------------------------------------------------------

$comment
potential surface scanner
$end

$rem
JOBTYPE  PES_SCAN
UNRESTRICTED TRUE
SYM_IGNORE  TRUE
GEOM_OPT_MAX_CYCLES 400
SCF_MAX_CYCLES 400
METHOD   B3LYP
BASIS   6-31G**
PDB_PRINT 2
SCF_CONVERGENCE 6
THRESH 14
SCF_PRINT 1
$end
$molecule
0 3
C -2.196268 1.298581 0.122566
C -1.504031 0.000000 -0.124943
Se 2.995887 0.000000 -0.152082
H 2.440796 0.000000 1.215470
C -2.196268 -1.298581 0.122566
H -1.502474 2.144914 0.097022
H -2.977754 1.504037 -0.631067
H -2.706624 1.306536 1.095633
H -0.588205 0.000000 -0.710255
H -2.977754 -1.504037 -0.631067
H -1.502474 -2.144914 0.097022
H -2.706624 -1.306536 1.095633
$end
$scan
stre 2 3 4.400000 4.401000 0.100000
$end
--------------------------------------------------------------

   10   -2520.3488264432      4.78e-07  Convergence criterion met
 Total energy in the final basis set =    -2520.3488264432
   10   -2520.3477281367      5.32e-07  Convergence criterion met
 Total energy in the final basis set =    -2520.3477281367
   10   -2520.3485741695      5.10e-07  Convergence criterion met
 Total energy in the final basis set =    -2520.3485741695
   10   -2520.3488077029      4.79e-07  Convergence criterion met
 Total energy in the final basis set =    -2520.3488077029

             Standard Nuclear Orientation (Angstroms)
    I     Atom           X                Y                Z
 ----------------------------------------------------------------
    1      C      -2.1767210964     1.2985652252     0.1218844115
    2      C      -1.4918607107     0.0000000000    -0.1453610851
    3      Se      2.9081235341     0.0000000000    -0.1335860747
    4      H       2.3526635511     0.0000000000     1.2337300958
    5      C      -2.1767210964    -1.2985652252     0.1218844115
    6      H      -1.4836662962     2.1447280565     0.0771147831
    7      H      -2.9791394362     1.5046818815    -0.6092687450
    8      H      -2.6595523662     1.3063257643     1.1089182857
    9      H      -0.5925609843     0.0000000000    -0.7555824064
   10      H      -2.9791394362    -1.5046818815    -0.6092687450
   11      H      -1.4836662962    -2.1447280565     0.0771147831
   12      H      -2.6595523662    -1.3063257643     1.1089182857
 ----------------------------------------------------------------

   10   -2520.3488106861      4.75e-07  Convergence criterion met
 Total energy in the final basis set =    -2520.3488106861

                    Orbital Energies (a.u.)
 --------------------------------------------------------------

 Alpha MOs
 -- Occupied --
******* -58.118 -52.177 -52.174 -52.171 -10.182 -10.175 -10.175
 -7.852  -5.800  -5.793  -5.781  -2.133  -2.132  -2.122  -2.117
 -2.116  -0.774  -0.712  -0.685  -0.564  -0.445  -0.422  -0.402
 -0.395  -0.380  -0.349  -0.342  -0.300  -0.256  -0.176

 Beta MOs
 -- Occupied --
******* -58.117 -52.174 -52.173 -52.170 -10.175 -10.175 -10.168
 -7.848  -5.792  -5.791  -5.780  -2.127  -2.126  -2.117  -2.117
 -2.114  -0.757  -0.682  -0.677  -0.542  -0.440  -0.405  -0.397
 -0.384  -0.373  -0.345  -0.336  -0.243

          Ground-State Mulliken Net Atomic Charges

     Atom                 Charge (a.u.)    Spin (a.u.)
  --------------------------------------------------------
      1 C                    -0.334042      -0.079841
      2 C                    -0.082790       1.016897
      3 Se                   -0.077710       1.029579
      4 H                     0.078314      -0.027640
      5 C                    -0.334042      -0.079841
      6 H                     0.107900       0.006558
      7 H                     0.108862       0.062922
      8 H                     0.105316       0.024253
      9 H                     0.106114      -0.046622
     10 H                     0.108862       0.062922
     11 H                     0.107900       0.006558
     12 H                     0.105316       0.024253
  --------------------------------------------------------
  Sum of atomic charges =     0.000000

                    Cartesian Multipole Moments
 -----------------------------------------------------------------
    Charge (ESU x 10^10)
                 0.0000
    Dipole Moment (Debye)
         X      -0.3801      Y      -0.0000      Z       0.5438
       Tot       0.6635
    Quadrupole Moments (Debye-Ang)
        XX     -42.5189     XY       0.0000     YY     -38.3588
        XZ       0.2836     YZ      -0.0000     ZZ     -38.6694

 Final energy is   -2520.34881068612
 **  OPTIMIZATION CONVERGED  **
 Total job time:  17.95s(wall), 205.80s(cpu)
        *  Thank you very much for using Q-Chem.  Have a nice day.  *
