 Q-Chem 5.1, Q-Chem, Inc., Pleasanton, CA (2018)
 Q-Chem 5.1.1 for Intel X86 EM64T Linux

User input:
--------------------------------------------------------------

$comment
potential surface scanner
$end

$rem
JOBTYPE  PES_SCAN
UNRESTRICTED TRUE
SYM_IGNORE  TRUE
GEOM_OPT_MAX_CYCLES 400
SCF_MAX_CYCLES 400
METHOD   B3LYP
BASIS   6-31G**
PDB_PRINT 2
SCF_CONVERGENCE 6
THRESH 14
SCF_PRINT 1
$end
$molecule
0 3
C -1.697329 1.265229 0.084407
C -1.075337 -0.012008 -0.419094
Se 1.051418 -0.172131 0.441879
H 0.255317 0.276051 1.653740
C -1.734084 -1.287414 0.057755
H -1.223092 2.154446 -0.346381
H -2.773833 1.326447 -0.138687
H -1.609001 1.341314 1.181566
H -0.857166 -0.009872 -1.488882
H -2.789308 -1.345661 -0.253822
H -1.234943 -2.182533 -0.332395
H -1.734427 -1.353866 1.156419
$end
$scan
stre 2 3 2.200000 2.201000 0.100000
$end
--------------------------------------------------------------

   12   -2520.3104525590      7.00e-07  Convergence criterion met
 Total energy in the final basis set =    -2520.3104525590
   12   -2520.3042854308      5.08e-07  Convergence criterion met
 Total energy in the final basis set =    -2520.3042854308
   12   -2520.3044053410      5.22e-07  Convergence criterion met
 Total energy in the final basis set =    -2520.3044053410
   12   -2520.3049239289      5.94e-07  Convergence criterion met
 Total energy in the final basis set =    -2520.3049239289
   12   -2520.3049558205      6.20e-07  Convergence criterion met
 Total energy in the final basis set =    -2520.3049558205
   12   -2520.3049670576      6.16e-07  Convergence criterion met
 Total energy in the final basis set =    -2520.3049670576
   12   -2520.3049703299      6.17e-07  Convergence criterion met
 Total energy in the final basis set =    -2520.3049703299
   12   -2520.3049736534      6.20e-07  Convergence criterion met
 Total energy in the final basis set =    -2520.3049736534
   12   -2520.3049754721      6.21e-07  Convergence criterion met
 Total energy in the final basis set =    -2520.3049754721
   12   -2520.3049771855      6.21e-07  Convergence criterion met
 Total energy in the final basis set =    -2520.3049771855
   12   -2520.3049787964      6.20e-07  Convergence criterion met
 Total energy in the final basis set =    -2520.3049787964
   12   -2520.3049798004      6.18e-07  Convergence criterion met
 Total energy in the final basis set =    -2520.3049798004

             Standard Nuclear Orientation (Angstroms)
    I     Atom           X                Y                Z
 ----------------------------------------------------------------
    1      C      -1.6787978897     1.2615294454     0.0903834259
    2      C      -1.0435481455    -0.0129146699    -0.4104438631
    3      Se      0.9973760322    -0.1678300720     0.3961726079
    4      H       0.1629682335     0.2793188958     1.6717142922
    5      C      -1.7248638713    -1.2849103210     0.0588026281
    6      H      -1.2414859450     2.1524746235    -0.3731989829
    7      H      -2.7615608465     1.2829717452    -0.0955179383
    8      H      -1.5459711189     1.3494544004     1.1823618852
    9      H      -0.8448852195    -0.0122599617    -1.4841564420
   10      H      -2.7749373438    -1.3179778179    -0.2663168502
   11      H      -1.2337898492    -2.1844897802    -0.3300572601
   12      H      -1.7322890362    -1.3453644876     1.1567614973
 ----------------------------------------------------------------

   12   -2520.3049800378      6.17e-07  Convergence criterion met
 Total energy in the final basis set =    -2520.3049800378

                    Orbital Energies (a.u.)
 --------------------------------------------------------------

 Alpha MOs
 -- Occupied --
******* -58.124 -52.183 -52.180 -52.179 -10.191 -10.182 -10.178
 -7.858  -5.806  -5.797  -5.792  -2.136  -2.135  -2.131  -2.125
 -2.125  -0.794  -0.706  -0.688  -0.569  -0.457  -0.434  -0.410
 -0.390  -0.371  -0.348  -0.344  -0.302  -0.295  -0.107

 Beta MOs
 -- Occupied --
******* -58.122 -52.178 -52.178 -52.176 -10.183 -10.182 -10.178
 -7.854  -5.796  -5.795  -5.788  -2.130  -2.129  -2.124  -2.122
 -2.121  -0.782  -0.686  -0.667  -0.558  -0.451  -0.424  -0.403
 -0.385  -0.348  -0.344  -0.336  -0.273

          Ground-State Mulliken Net Atomic Charges

     Atom                 Charge (a.u.)    Spin (a.u.)
  --------------------------------------------------------
      1 C                    -0.317036      -0.005816
      2 C                    -0.153747       0.387648
      3 Se                    0.094122       1.376042
      4 H                    -0.032036       0.183218
      5 C                    -0.322796      -0.006550
      6 H                     0.104850       0.003098
      7 H                     0.109440       0.014820
      8 H                     0.094055       0.020146
      9 H                     0.102282      -0.011648
     10 H                     0.112788       0.023746
     11 H                     0.107606       0.004806
     12 H                     0.100473       0.010490
  --------------------------------------------------------
  Sum of atomic charges =     0.000000

                    Cartesian Multipole Moments
 -----------------------------------------------------------------
    Charge (ESU x 10^10)
                -0.0000
    Dipole Moment (Debye)
         X      -0.8205      Y       0.0314      Z      -0.2999
       Tot       0.8742
    Quadrupole Moments (Debye-Ang)
        XX     -40.8248     XY       0.5247     YY     -38.8315
        XZ      -0.7270     YZ      -0.2387     ZZ     -40.6155

 Final energy is   -2520.30498003775
 **  OPTIMIZATION CONVERGED  **
 Total job time:  60.27s(wall), 708.45s(cpu)
        *  Thank you very much for using Q-Chem.  Have a nice day.  *
