 Q-Chem 5.1, Q-Chem, Inc., Pleasanton, CA (2018)
 Q-Chem 5.1.1 for Intel X86 EM64T Linux

User input:
--------------------------------------------------------------

$comment
potential surface scanner
$end

$rem
JOBTYPE  PES_SCAN
UNRESTRICTED TRUE
SYM_IGNORE  TRUE
GEOM_OPT_MAX_CYCLES 400
SCF_MAX_CYCLES 400
METHOD   B3LYP
BASIS   6-31G**
PDB_PRINT 2
SCF_CONVERGENCE 6
THRESH 14
SCF_PRINT 1
$end
$molecule
0 1
C -1.730200 1.249200 0.145700
C -1.070500 -0.000000 -0.441800
Se 0.838900 0.000000 0.000600
H 0.783300 0.000000 1.559600
C -1.730200 -1.249200 0.145700
H -1.260200 2.139200 -0.272800
H -2.792000 1.249200 -0.100300
H -1.608100 1.249200 1.228900
H -1.192500 -0.000000 -1.524900
H -2.792000 -1.249200 -0.100300
H -1.260200 -2.139200 -0.272800
H -1.608100 -1.249200 1.228900
$end
$scan
stre 2 3 1.700000 1.701000 0.100000
$end
--------------------------------------------------------------

    9   -2520.4375567929      9.33e-07  Convergence criterion met
 Total energy in the final basis set =    -2520.4375567929
    9   -2520.4301686091      6.81e-07  Convergence criterion met
 Total energy in the final basis set =    -2520.4301686091
    9   -2520.4077897355      6.01e-07  Convergence criterion met
 Total energy in the final basis set =    -2520.4077897355
    9   -2520.4079487533      5.91e-07  Convergence criterion met
 Total energy in the final basis set =    -2520.4079487533
    9   -2520.4087755309      5.90e-07  Convergence criterion met
 Total energy in the final basis set =    -2520.4087755309
    9   -2520.4088344866      5.92e-07  Convergence criterion met
 Total energy in the final basis set =    -2520.4088344866
    9   -2520.4088663874      5.95e-07  Convergence criterion met
 Total energy in the final basis set =    -2520.4088663874
    9   -2520.4088710252      5.95e-07  Convergence criterion met
 Total energy in the final basis set =    -2520.4088710252

             Standard Nuclear Orientation (Angstroms)
    I     Atom           X                Y                Z
 ----------------------------------------------------------------
    1      C      -1.7124746897     1.2626945982     0.1588242799
    2      C      -0.9670683614     0.0000000000    -0.3388866871
    3      Se      0.7150995810     0.0000000000    -0.0933033830
    4      H       0.7163036555     0.0000000000     1.3895959924
    5      C      -1.7124746897    -1.2626945982     0.1588242799
    6      H      -1.2674613958     2.1717850300    -0.2545075991
    7      H      -2.7716144739     1.2324134399    -0.1189498737
    8      H      -1.6537386124     1.3295539012     1.2516200331
    9      H      -1.0755565315     0.0000000000    -1.4348796026
   10      H      -2.7716144739    -1.2324134399    -0.1189498737
   11      H      -1.2674613957    -2.1717850300    -0.2545075991
   12      H      -1.6537386124    -1.3295539012     1.2516200331
 ----------------------------------------------------------------

    9   -2520.4088721872      5.95e-07  Convergence criterion met
 Total energy in the final basis set =    -2520.4088721872

                    Orbital Energies (a.u.)
 --------------------------------------------------------------

 Alpha MOs
 -- Occupied --
******* -58.082 -52.140 -52.138 -52.136 -10.214 -10.183 -10.183
 -7.818  -5.764  -5.759  -5.750  -2.099  -2.097  -2.090  -2.086
 -2.085  -0.836  -0.702  -0.690  -0.574  -0.465  -0.443  -0.421
 -0.390  -0.387  -0.350  -0.344  -0.310  -0.216

 Beta MOs
 -- Occupied --
******* -58.082 -52.140 -52.138 -52.136 -10.214 -10.183 -10.183
 -7.818  -5.764  -5.759  -5.750  -2.099  -2.097  -2.090  -2.086
 -2.085  -0.836  -0.702  -0.690  -0.574  -0.465  -0.443  -0.421
 -0.390  -0.387  -0.350  -0.344  -0.310  -0.216

          Ground-State Mulliken Net Atomic Charges

     Atom                 Charge (a.u.)    Spin (a.u.)
  --------------------------------------------------------
      1 C                    -0.305542       0.000000
      2 C                    -0.113806      -0.000000
      3 Se                   -0.091887      -0.000000
      4 H                     0.038711      -0.000000
      5 C                    -0.305542      -0.000000
      6 H                     0.119445      -0.000000
      7 H                     0.100574      -0.000000
      8 H                     0.105571       0.000000
      9 H                     0.126886       0.000000
     10 H                     0.100574      -0.000000
     11 H                     0.119445       0.000000
     12 H                     0.105571      -0.000000
  --------------------------------------------------------
  Sum of atomic charges =     0.000000

                    Cartesian Multipole Moments
 -----------------------------------------------------------------
    Charge (ESU x 10^10)
                -0.0000
    Dipole Moment (Debye)
         X      -1.5620      Y      -0.0000      Z       0.2735
       Tot       1.5858
    Quadrupole Moments (Debye-Ang)
        XX     -39.1761     XY      -0.0000     YY     -40.9793
        XZ       1.3876     YZ       0.0000     ZZ     -37.0743

 Final energy is   -2520.40887218719
 **  OPTIMIZATION CONVERGED  **
 Total job time:  36.52s(wall), 420.41s(cpu)
        *  Thank you very much for using Q-Chem.  Have a nice day.  *
