 Q-Chem 5.1, Q-Chem, Inc., Pleasanton, CA (2018)
 Q-Chem 5.1.1 for Intel X86 EM64T Linux

User input:
--------------------------------------------------------------

$comment
potential surface scanner
$end

$rem
JOBTYPE  PES_SCAN
UNRESTRICTED TRUE
SYM_IGNORE  TRUE
GEOM_OPT_MAX_CYCLES 400
SCF_MAX_CYCLES 400
METHOD   B3LYP
BASIS   6-31G**
PDB_PRINT 2
SCF_CONVERGENCE 6
THRESH 14
SCF_PRINT 1
$end
$molecule
0 3
C -2.090179 1.298704 0.128797
C -1.434745 0.000000 -0.203907
Se 2.661795 0.000000 -0.035505
H 1.818178 0.000000 1.182906
C -2.090179 -1.298704 0.128797
H -1.401641 2.143677 0.026210
H -2.953218 1.510496 -0.528070
H -2.484432 1.302850 1.154263
H -0.608076 0.000000 -0.909398
H -2.953218 -1.510496 -0.528070
H -1.401641 -2.143677 0.026210
H -2.484432 -1.302850 1.154263
$end
$scan
stre 2 3 4.000000 4.001000 0.100000
$end
--------------------------------------------------------------

   10   -2520.3490178767      4.66e-07  Convergence criterion met
 Total energy in the final basis set =    -2520.3490178767
   10   -2520.3481833466      5.06e-07  Convergence criterion met
 Total energy in the final basis set =    -2520.3481833466
   10   -2520.3487267728      4.82e-07  Convergence criterion met
 Total energy in the final basis set =    -2520.3487267728
   10   -2520.3488761942      4.64e-07  Convergence criterion met
 Total energy in the final basis set =    -2520.3488761942
   10   -2520.3488778433      4.62e-07  Convergence criterion met
 Total energy in the final basis set =    -2520.3488778433

             Standard Nuclear Orientation (Angstroms)
    I     Atom           X                Y                Z
 ----------------------------------------------------------------
    1      C      -2.0686791701     1.2986278527     0.1281065421
    2      C      -1.4231726749     0.0000000000    -0.2239887463
    3      Se      2.5712943120     0.0000000000    -0.0136622030
    4      H       1.7209146679     0.0000000000     1.1997876182
    5      C      -2.0686791701    -1.2986278527     0.1281065421
    6      H      -1.3831204918     2.1435370799     0.0065897953
    7      H      -2.9498379333     1.5111145622    -0.5040911469
    8      H      -2.4340442131     1.3021453872     1.1641955670
    9      H      -0.6194606885     0.0000000000    -0.9552421840
   10      H      -2.9498379333    -1.5111145622    -0.5040911469
   11      H      -1.3831204918    -2.1435370799     0.0065897953
   12      H      -2.4340442131    -1.3021453872     1.1641955670
 ----------------------------------------------------------------

   10   -2520.3488782555      4.62e-07  Convergence criterion met
 Total energy in the final basis set =    -2520.3488782555

                    Orbital Energies (a.u.)
 --------------------------------------------------------------

 Alpha MOs
 -- Occupied --
******* -58.116 -52.176 -52.173 -52.169 -10.184 -10.176 -10.176
 -7.850  -5.798  -5.792  -5.780  -2.131  -2.130  -2.120  -2.116
 -2.114  -0.775  -0.710  -0.686  -0.565  -0.446  -0.424  -0.404
 -0.392  -0.381  -0.350  -0.343  -0.298  -0.255  -0.177

 Beta MOs
 -- Occupied --
******* -58.115 -52.172 -52.171 -52.169 -10.177 -10.177 -10.170
 -7.847  -5.790  -5.789  -5.778  -2.125  -2.125  -2.115  -2.115
 -2.112  -0.758  -0.684  -0.675  -0.544  -0.442  -0.407  -0.398
 -0.382  -0.375  -0.346  -0.338  -0.241

          Ground-State Mulliken Net Atomic Charges

     Atom                 Charge (a.u.)    Spin (a.u.)
  --------------------------------------------------------
      1 C                    -0.335255      -0.079119
      2 C                    -0.082589       1.011650
      3 Se                   -0.080798       1.033712
      4 H                     0.080049      -0.028277
      5 C                    -0.335255      -0.079119
      6 H                     0.108418       0.007111
      7 H                     0.109852       0.063705
      8 H                     0.104964       0.022717
      9 H                     0.107378      -0.045913
     10 H                     0.109852       0.063705
     11 H                     0.108418       0.007111
     12 H                     0.104964       0.022717
  --------------------------------------------------------
  Sum of atomic charges =    -0.000000

                    Cartesian Multipole Moments
 -----------------------------------------------------------------
    Charge (ESU x 10^10)
                 0.0000
    Dipole Moment (Debye)
         X      -0.6126      Y      -0.0000      Z       0.4479
       Tot       0.7589
    Quadrupole Moments (Debye-Ang)
        XX     -42.4233     XY      -0.0000     YY     -38.3534
        XZ      -0.7762     YZ      -0.0000     ZZ     -39.1801

 Final energy is   -2520.34887825546
 **  OPTIMIZATION CONVERGED  **
 Total job time:  21.51s(wall), 250.31s(cpu)
        *  Thank you very much for using Q-Chem.  Have a nice day.  *
