 Q-Chem 5.1, Q-Chem, Inc., Pleasanton, CA (2018)
 Q-Chem 5.1.1 for Intel X86 EM64T Linux

User input:
--------------------------------------------------------------

$comment
potential surface scanner
$end

$rem
JOBTYPE  PES_SCAN
UNRESTRICTED TRUE
SYM_IGNORE  TRUE
GEOM_OPT_MAX_CYCLES 400
SCF_MAX_CYCLES 400
METHOD   B3LYP
BASIS   6-31G**
PDB_PRINT 2
SCF_CONVERGENCE 6
THRESH 14
SCF_PRINT 1
$end
$molecule
0 1
C -1.793795 1.288597 0.142549
C -1.280337 0.000000 -0.425603
Se 1.277253 0.000000 0.042084
H 1.019309 0.000000 1.498258
C -1.793795 -1.288597 0.142549
H -1.270538 2.153472 -0.267271
H -2.861917 1.382513 -0.115098
H -1.720431 1.313092 1.233191
H -1.144666 0.000000 -1.504982
H -2.861917 -1.382513 -0.115098
H -1.270538 -2.153472 -0.267271
H -1.720431 -1.313092 1.233191
$end
$scan
stre 2 3 2.700000 2.701000 0.100000
$end
--------------------------------------------------------------

   10   -2520.4105856664      5.64e-07  Convergence criterion met
 Total energy in the final basis set =    -2520.4105856664
   10   -2520.4033086234      7.84e-07  Convergence criterion met
 Total energy in the final basis set =    -2520.4033086234
   10   -2520.4031899514      7.89e-07  Convergence criterion met
 Total energy in the final basis set =    -2520.4031899514
   10   -2520.4033017394      8.05e-07  Convergence criterion met
 Total energy in the final basis set =    -2520.4033017394
   10   -2520.4033033621      8.06e-07  Convergence criterion met
 Total energy in the final basis set =    -2520.4033033621

             Standard Nuclear Orientation (Angstroms)
    I     Atom           X                Y                Z
 ----------------------------------------------------------------
    1      C      -1.8056599492     1.2903552000     0.1405864615
    2      C      -1.3139522931     0.0000000000    -0.4329191663
    3      Se      1.3417318792     0.0000000000     0.0542568668
    4      H       1.0670745723     0.0000000000     1.5077387112
    5      C      -1.8056599492    -1.2903552000     0.1405864615
    6      H      -1.2704058204     2.1488646416    -0.2666889494
    7      H      -2.8728738516     1.4008145563    -0.1175564921
    8      H      -1.7339351946     1.3086960452     1.2312710604
    9      H      -1.1509075269     0.0000000000    -1.5078015724
   10      H      -2.8728738516    -1.4008145563    -0.1175564921
   11      H      -1.2704058204    -2.1488646416    -0.2666889494
   12      H      -1.7339351946    -1.3086960452     1.2312710604
 ----------------------------------------------------------------

   10   -2520.4033036997      8.06e-07  Convergence criterion met
 Total energy in the final basis set =    -2520.4033036997

                    Orbital Energies (a.u.)
 --------------------------------------------------------------

 Alpha MOs
 -- Occupied --
******* -58.063 -52.120 -52.120 -52.117 -10.263 -10.203 -10.203
 -7.795  -5.739  -5.737  -5.727  -2.074  -2.073  -2.065  -2.063
 -2.061  -0.811  -0.715  -0.649  -0.592  -0.477  -0.449  -0.432
 -0.408  -0.379  -0.374  -0.346  -0.242  -0.207

 Beta MOs
 -- Occupied --
******* -58.063 -52.120 -52.120 -52.117 -10.263 -10.203 -10.203
 -7.795  -5.739  -5.737  -5.727  -2.074  -2.073  -2.065  -2.063
 -2.061  -0.811  -0.715  -0.649  -0.592  -0.477  -0.449  -0.432
 -0.408  -0.379  -0.374  -0.346  -0.242  -0.207

          Ground-State Mulliken Net Atomic Charges

     Atom                 Charge (a.u.)    Spin (a.u.)
  --------------------------------------------------------
      1 C                    -0.323230      -0.000000
      2 C                    -0.041881       0.000000
      3 Se                   -0.300438      -0.000000
      4 H                     0.045483      -0.000000
      5 C                    -0.323230      -0.000000
      6 H                     0.148893       0.000000
      7 H                     0.119848       0.000000
      8 H                     0.130546      -0.000000
      9 H                     0.144723       0.000000
     10 H                     0.119848      -0.000000
     11 H                     0.148893      -0.000000
     12 H                     0.130546       0.000000
  --------------------------------------------------------
  Sum of atomic charges =    -0.000000

                    Cartesian Multipole Moments
 -----------------------------------------------------------------
    Charge (ESU x 10^10)
                 0.0000
    Dipole Moment (Debye)
         X      -3.9107      Y       0.0000      Z       0.1020
       Tot       3.9120
    Quadrupole Moments (Debye-Ang)
        XX     -38.5945     XY      -0.0000     YY     -40.2810
        XZ       0.9845     YZ      -0.0000     ZZ     -36.7519

 Final energy is   -2520.40330369973
 **  OPTIMIZATION CONVERGED  **
 Total job time:  24.10s(wall), 279.67s(cpu)
        *  Thank you very much for using Q-Chem.  Have a nice day.  *
