 Q-Chem 5.1, Q-Chem, Inc., Pleasanton, CA (2018)
 Q-Chem 5.1.1 for Intel X86 EM64T Linux

User input:
--------------------------------------------------------------

$comment
potential surface scanner
$end

$rem
JOBTYPE  PES_SCAN
UNRESTRICTED TRUE
SYM_IGNORE  TRUE
GEOM_OPT_MAX_CYCLES 400
SCF_MAX_CYCLES 400
METHOD   B3LYP
BASIS   6-31G**
PDB_PRINT 2
SCF_CONVERGENCE 6
THRESH 14
SCF_PRINT 1
$end
$molecule
0 1
C -1.751087 1.278663 0.150684
C -1.140459 0.000000 -0.392252
Se 1.026929 0.000000 -0.014857
H 0.850435 0.000000 1.451478
C -1.751087 -1.278663 0.150684
H -1.268314 2.167646 -0.259978
H -2.817287 1.313236 -0.114706
H -1.683069 1.323512 1.242309
H -1.119194 0.000000 -1.484488
H -2.817287 -1.313236 -0.114706
H -1.268314 -2.167646 -0.259978
H -1.683069 -1.323512 1.242309
$end
$scan
stre 2 3 2.300000 2.301000 0.100000
$end
--------------------------------------------------------------

    9   -2520.4389210825      7.51e-07  Convergence criterion met
 Total energy in the final basis set =    -2520.4389210825
    9   -2520.4325143197      6.96e-07  Convergence criterion met
 Total energy in the final basis set =    -2520.4325143197
    9   -2520.4325252854      7.24e-07  Convergence criterion met
 Total energy in the final basis set =    -2520.4325252854
    9   -2520.4325905984      7.54e-07  Convergence criterion met
 Total energy in the final basis set =    -2520.4325905984
    9   -2520.4325928120      7.56e-07  Convergence criterion met
 Total energy in the final basis set =    -2520.4325928120

             Standard Nuclear Orientation (Angstroms)
    I     Atom           X                Y                Z
 ----------------------------------------------------------------
    1      C      -1.7615079669     1.2813338896     0.1488147902
    2      C      -1.1749702724     0.0000000000    -0.4004705187
    3      Se      1.0899773194     0.0000000000    -0.0004553866
    4      H       0.8933005259     0.0000000000     1.4636785021
    5      C      -1.7615079669    -1.2813338896     0.1488147902
    6      H      -1.2705224914     2.1653144804    -0.2621889528
    7      H      -2.8286059793     1.3285149744    -0.1147325025
    8      H      -1.6921229514     1.3217797375     1.2401468389
    9      H      -1.1245917950     0.0000000000    -1.4903339444
   10      H      -2.8286059793    -1.3285149744    -0.1147325025
   11      H      -1.2705224914    -2.1653144804    -0.2621889528
   12      H      -1.6921229514    -1.3217797375     1.2401468389
 ----------------------------------------------------------------

    9   -2520.4325932095      7.56e-07  Convergence criterion met
 Total energy in the final basis set =    -2520.4325932095

                    Orbital Energies (a.u.)
 --------------------------------------------------------------

 Alpha MOs
 -- Occupied --
******* -58.076 -52.133 -52.133 -52.130 -10.243 -10.191 -10.191
 -7.808  -5.753  -5.750  -5.740  -2.087  -2.087  -2.079  -2.076
 -2.074  -0.801  -0.701  -0.668  -0.581  -0.465  -0.441  -0.419
 -0.397  -0.369  -0.363  -0.351  -0.275  -0.218

 Beta MOs
 -- Occupied --
******* -58.076 -52.133 -52.133 -52.130 -10.243 -10.191 -10.191
 -7.808  -5.753  -5.750  -5.740  -2.087  -2.087  -2.079  -2.076
 -2.074  -0.801  -0.701  -0.668  -0.581  -0.465  -0.441  -0.419
 -0.397  -0.369  -0.363  -0.351  -0.275  -0.218

          Ground-State Mulliken Net Atomic Charges

     Atom                 Charge (a.u.)    Spin (a.u.)
  --------------------------------------------------------
      1 C                    -0.307009      -0.000000
      2 C                    -0.115930       0.000000
      3 Se                   -0.173303       0.000000
      4 H                     0.049814       0.000000
      5 C                    -0.307009      -0.000000
      6 H                     0.133662       0.000000
      7 H                     0.109821       0.000000
      8 H                     0.117126       0.000000
      9 H                     0.132220      -0.000000
     10 H                     0.109821       0.000000
     11 H                     0.133662      -0.000000
     12 H                     0.117126       0.000000
  --------------------------------------------------------
  Sum of atomic charges =    -0.000000

                    Cartesian Multipole Moments
 -----------------------------------------------------------------
    Charge (ESU x 10^10)
                -0.0000
    Dipole Moment (Debye)
         X      -2.4786      Y       0.0000      Z       0.2549
       Tot       2.4917
    Quadrupole Moments (Debye-Ang)
        XX     -38.7468     XY      -0.0000     YY     -40.7837
        XZ       1.1325     YZ      -0.0000     ZZ     -36.9091

 Final energy is   -2520.43259320946
 **  OPTIMIZATION CONVERGED  **
 Total job time:  23.27s(wall), 268.85s(cpu)
        *  Thank you very much for using Q-Chem.  Have a nice day.  *
