 Q-Chem 5.1, Q-Chem, Inc., Pleasanton, CA (2018)
 Q-Chem 5.1.1 for Intel X86 EM64T Linux

User input:
--------------------------------------------------------------

$comment
potential surface scanner
$end

$rem
JOBTYPE  PES_SCAN
UNRESTRICTED TRUE
SYM_IGNORE  TRUE
GEOM_OPT_MAX_CYCLES 400
SCF_MAX_CYCLES 400
METHOD   B3LYP
BASIS   6-31G**
PDB_PRINT 2
SCF_CONVERGENCE 6
THRESH 14
SCF_PRINT 1
$end
$molecule
0 1
C -1.732085 1.273003 0.153908
C -1.072507 0.000000 -0.374529
Se 0.899913 0.000000 -0.043535
H 0.773413 0.000000 1.427596
C -1.732085 -1.273003 0.153908
H -1.263124 2.170199 -0.256373
H -2.796084 1.284726 -0.115274
H -1.666817 1.326248 1.246107
H -1.106399 0.000000 -1.469767
H -2.796084 -1.284726 -0.115274
H -1.263124 -2.170199 -0.256373
H -1.666817 -1.326248 1.246107
$end
$scan
stre 2 3 2.100000 2.101000 0.100000
$end
--------------------------------------------------------------

    9   -2520.4451350796      7.26e-07  Convergence criterion met
 Total energy in the final basis set =    -2520.4451350796
    9   -2520.4432702809      7.16e-07  Convergence criterion met
 Total energy in the final basis set =    -2520.4432702809
    9   -2520.4434168145      7.34e-07  Convergence criterion met
 Total energy in the final basis set =    -2520.4434168145
    9   -2520.4434688604      7.49e-07  Convergence criterion met
 Total energy in the final basis set =    -2520.4434688604
    9   -2520.4434710528      7.49e-07  Convergence criterion met
 Total energy in the final basis set =    -2520.4434710528

             Standard Nuclear Orientation (Angstroms)
    I     Atom           X                Y                Z
 ----------------------------------------------------------------
    1      C      -1.7410800812     1.2758840619     0.1523305563
    2      C      -1.1064859072     0.0000000000    -0.3840686477
    3      Se      0.9632690246     0.0000000000    -0.0289428518
    4      H       0.8087243501     0.0000000000     1.4394360287
    5      C      -1.7410800811    -1.2758840619     0.1523305563
    6      H      -1.2654498546     2.1691998455    -0.2579828756
    7      H      -2.8063257562     1.2990662184    -0.1145198335
    8      H      -1.6740320343     1.3247432813     1.2442404110
    9      H      -1.1135320149     0.0000000000    -1.4780600454
   10      H      -2.8063257562    -1.2990662183    -0.1145198335
   11      H      -1.2654498546    -2.1691998455    -0.2579828757
   12      H      -1.6740320343    -1.3247432813     1.2442404110
 ----------------------------------------------------------------

    9   -2520.4434713766      7.49e-07  Convergence criterion met
 Total energy in the final basis set =    -2520.4434713766

                    Orbital Energies (a.u.)
 --------------------------------------------------------------

 Alpha MOs
 -- Occupied --
******* -58.081 -52.138 -52.137 -52.135 -10.233 -10.187 -10.187
 -7.814  -5.759  -5.755  -5.746  -2.093  -2.092  -2.084  -2.081
 -2.080  -0.802  -0.695  -0.679  -0.577  -0.461  -0.440  -0.415
 -0.393  -0.374  -0.356  -0.346  -0.292  -0.221

 Beta MOs
 -- Occupied --
******* -58.081 -52.138 -52.137 -52.135 -10.233 -10.187 -10.187
 -7.814  -5.759  -5.755  -5.746  -2.093  -2.092  -2.084  -2.081
 -2.080  -0.802  -0.695  -0.679  -0.577  -0.461  -0.440  -0.415
 -0.393  -0.374  -0.356  -0.346  -0.292  -0.221

          Ground-State Mulliken Net Atomic Charges

     Atom                 Charge (a.u.)    Spin (a.u.)
  --------------------------------------------------------
      1 C                    -0.302279      -0.000000
      2 C                    -0.141476      -0.000000
      3 Se                   -0.118666      -0.000000
      4 H                     0.049964       0.000000
      5 C                    -0.302279      -0.000000
      6 H                     0.127241       0.000000
      7 H                     0.105585       0.000000
      8 H                     0.111041       0.000000
      9 H                     0.127001       0.000000
     10 H                     0.105585      -0.000000
     11 H                     0.127241       0.000000
     12 H                     0.111041       0.000000
  --------------------------------------------------------
  Sum of atomic charges =    -0.000000

                    Cartesian Multipole Moments
 -----------------------------------------------------------------
    Charge (ESU x 10^10)
                -0.0000
    Dipole Moment (Debye)
         X      -1.9410      Y      -0.0000      Z       0.3006
       Tot       1.9641
    Quadrupole Moments (Debye-Ang)
        XX     -38.9270     XY       0.0000     YY     -40.9646
        XZ       1.1929     YZ       0.0000     ZZ     -36.9888

 Final energy is   -2520.44347137657
 **  OPTIMIZATION CONVERGED  **
 Total job time:  23.46s(wall), 271.40s(cpu)
        *  Thank you very much for using Q-Chem.  Have a nice day.  *
