 Q-Chem 5.1, Q-Chem, Inc., Pleasanton, CA (2018)
 Q-Chem 5.1.1 for Intel X86 EM64T Linux

User input:
--------------------------------------------------------------

$comment
potential surface scanner
$end

$rem
JOBTYPE  PES_SCAN
UNRESTRICTED TRUE
SYM_IGNORE  TRUE
GEOM_OPT_MAX_CYCLES 400
SCF_MAX_CYCLES 400
METHOD   B3LYP
BASIS   6-31G**
PDB_PRINT 2
SCF_CONVERGENCE 6
THRESH 14
SCF_PRINT 1
$end
$molecule
0 1
C -1.730200 1.249200 0.145700
C -1.070500 -0.000000 -0.441800
Se 0.838900 0.000000 0.000600
H 0.783300 0.000000 1.559600
C -1.730200 -1.249200 0.145700
H -1.260200 2.139200 -0.272800
H -2.792000 1.249200 -0.100300
H -1.608100 1.249200 1.228900
H -1.192500 -0.000000 -1.524900
H -2.792000 -1.249200 -0.100300
H -1.260200 -2.139200 -0.272800
H -1.608100 -1.249200 1.228900
$end
$scan
stre 2 3 1.600000 1.601000 0.100000
$end
--------------------------------------------------------------

    9   -2520.4375567929      9.33e-07  Convergence criterion met
 Total energy in the final basis set =    -2520.4375567929
    9   -2520.4301686091      6.81e-07  Convergence criterion met
 Total energy in the final basis set =    -2520.4301686091
    9   -2520.3985670908      5.97e-07  Convergence criterion met
 Total energy in the final basis set =    -2520.3985670908
    9   -2520.3675117292      5.92e-07  Convergence criterion met
 Total energy in the final basis set =    -2520.3675117292
    9   -2520.3675819345      5.93e-07  Convergence criterion met
 Total energy in the final basis set =    -2520.3675819345
    9   -2520.3681969326      6.01e-07  Convergence criterion met
 Total energy in the final basis set =    -2520.3681969326
    9   -2520.3682402263      6.03e-07  Convergence criterion met
 Total energy in the final basis set =    -2520.3682402263
    9   -2520.3682669165      6.03e-07  Convergence criterion met
 Total energy in the final basis set =    -2520.3682669165
    9   -2520.3682691187      6.03e-07  Convergence criterion met
 Total energy in the final basis set =    -2520.3682691187

             Standard Nuclear Orientation (Angstroms)
    I     Atom           X                Y                Z
 ----------------------------------------------------------------
    1      C      -1.7077483668     1.2592756997     0.1602907686
    2      C      -0.9296923716     0.0000000000    -0.3262887095
    3      Se      0.6554404482     0.0000000000    -0.1086790131
    4      H       0.7047604024     0.0000000000     1.3769592464
    5      C      -1.7077483667    -1.2592756997     0.1602907686
    6      H      -1.2705270172     2.1715885302    -0.2549394263
    7      H      -2.7649433523     1.2135812714    -0.1207122316
    8      H      -1.6508126817     1.3296835981     1.2531464653
    9      H      -1.0642456431     0.0000000000    -1.4210626758
   10      H      -2.7649433523    -1.2135812713    -0.1207122316
   11      H      -1.2705270172    -2.1715885302    -0.2549394263
   12      H      -1.6508126817    -1.3296835981     1.2531464653
 ----------------------------------------------------------------

    9   -2520.3682701010      6.02e-07  Convergence criterion met
 Total energy in the final basis set =    -2520.3682701010

                    Orbital Energies (a.u.)
 --------------------------------------------------------------

 Alpha MOs
 -- Occupied --
******* -58.081 -52.139 -52.137 -52.135 -10.211 -10.183 -10.183
 -7.819  -5.765  -5.760  -5.751  -2.100  -2.098  -2.091  -2.086
 -2.086  -0.855  -0.707  -0.690  -0.574  -0.468  -0.444  -0.426
 -0.391  -0.390  -0.351  -0.350  -0.306  -0.212

 Beta MOs
 -- Occupied --
******* -58.081 -52.139 -52.137 -52.135 -10.211 -10.183 -10.183
 -7.819  -5.765  -5.760  -5.751  -2.100  -2.098  -2.091  -2.086
 -2.086  -0.855  -0.707  -0.690  -0.574  -0.468  -0.444  -0.426
 -0.391  -0.390  -0.351  -0.350  -0.306  -0.212

          Ground-State Mulliken Net Atomic Charges

     Atom                 Charge (a.u.)    Spin (a.u.)
  --------------------------------------------------------
      1 C                    -0.309660      -0.000000
      2 C                    -0.095568      -0.000000
      3 Se                   -0.096746       0.000000
      4 H                     0.032214      -0.000000
      5 C                    -0.309660       0.000000
      6 H                     0.118397      -0.000000
      7 H                     0.100068      -0.000000
      8 H                     0.105907       0.000000
      9 H                     0.130675       0.000000
     10 H                     0.100068      -0.000000
     11 H                     0.118397       0.000000
     12 H                     0.105907      -0.000000
  --------------------------------------------------------
  Sum of atomic charges =     0.000000

                    Cartesian Multipole Moments
 -----------------------------------------------------------------
    Charge (ESU x 10^10)
                 0.0000
    Dipole Moment (Debye)
         X      -1.6148      Y      -0.0000      Z       0.2215
       Tot       1.6299
    Quadrupole Moments (Debye-Ang)
        XX     -39.2045     XY      -0.0000     YY     -40.9060
        XZ       1.4452     YZ       0.0000     ZZ     -37.0572

 Final energy is   -2520.36827010096
 **  OPTIMIZATION CONVERGED  **
 Total job time:  40.77s(wall), 467.34s(cpu)
        *  Thank you very much for using Q-Chem.  Have a nice day.  *
