 Q-Chem 5.1, Q-Chem, Inc., Pleasanton, CA (2018)
 Q-Chem 5.1.1 for Intel X86 EM64T Linux

User input:
--------------------------------------------------------------

$comment
potential surface scanner
$end

$rem
JOBTYPE  PES_SCAN
UNRESTRICTED TRUE
SYM_IGNORE  TRUE
GEOM_OPT_MAX_CYCLES 400
SCF_MAX_CYCLES 400
METHOD   B3LYP
BASIS   6-31G**
PDB_PRINT 2
SCF_CONVERGENCE 6
THRESH 14
SCF_PRINT 1
$end
$molecule
0 1
C -1.730200 1.249200 0.145700
C -1.070500 -0.000000 -0.441800
Se 0.838900 0.000000 0.000600
H 0.783300 0.000000 1.559600
C -1.730200 -1.249200 0.145700
H -1.260200 2.139200 -0.272800
H -2.792000 1.249200 -0.100300
H -1.608100 1.249200 1.228900
H -1.192500 -0.000000 -1.524900
H -2.792000 -1.249200 -0.100300
H -1.260200 -2.139200 -0.272800
H -1.608100 -1.249200 1.228900
$end
$scan
stre 2 3 1.200000 1.201000 0.100000
$end
--------------------------------------------------------------

    9   -2520.4375567929      9.33e-07  Convergence criterion met
 Total energy in the final basis set =    -2520.4375567929
    9   -2520.4301686091      6.81e-07  Convergence criterion met
 Total energy in the final basis set =    -2520.4301686091
    9   -2520.3985670908      5.97e-07  Convergence criterion met
 Total energy in the final basis set =    -2520.3985670908
    9   -2520.3312487391      6.06e-07  Convergence criterion met
 Total energy in the final basis set =    -2520.3312487391
    9   -2520.2186337193      6.53e-07  Convergence criterion met
 Total energy in the final basis set =    -2520.2186337193
    9   -2520.0336386724      7.24e-07  Convergence criterion met
 Total energy in the final basis set =    -2520.0336386724
    9   -2519.8231779819      9.47e-07  Convergence criterion met
 Total energy in the final basis set =    -2519.8231779819
   10   -2519.7541836793      3.05e-07  Convergence criterion met
    9   -2519.7388197893      9.27e-07  Convergence criterion met
 Total energy in the final basis set =    -2519.7388197893
    9   -2519.7388256151      9.28e-07  Convergence criterion met
 Total energy in the final basis set =    -2519.7388256151
    9   -2519.7388307807      9.27e-07  Convergence criterion met
 Total energy in the final basis set =    -2519.7388307807
    9   -2519.7388348787      9.24e-07  Convergence criterion met
 Total energy in the final basis set =    -2519.7388348787
    9   -2519.7388377627      9.21e-07  Convergence criterion met
 Total energy in the final basis set =    -2519.7388377627
    9   -2519.7388394061      9.19e-07  Convergence criterion met
 Total energy in the final basis set =    -2519.7388394061

             Standard Nuclear Orientation (Angstroms)
    I     Atom           X                Y                Z
 ----------------------------------------------------------------
    1      C      -1.7052060273     1.2627771029     0.1663010286
    2      C      -0.7506141354     0.0000000000    -0.2910259076
    3      Se      0.4429242950     0.0000000000    -0.1666632105
    4      H       0.7214061047     0.0000000000     1.3269989792
    5      C      -1.7052060241    -1.2627770959     0.1663010289
    6      H      -1.2693269881     2.1831382728    -0.2363496244
    7      H      -2.7471365690     1.1696061464    -0.1518625004
    8      H      -1.6669526976     1.3117346517     1.2607022959
    9      H      -1.0582716877     0.0000000000    -1.3503922790
   10      H      -2.7471365558    -1.1696061480    -0.1518624948
   11      H      -1.2693270050    -2.1831383036    -0.2363496126
   12      H      -1.6669527096    -1.3117346640     1.2607022968
 ----------------------------------------------------------------

    9   -2519.7388400858      9.20e-07  Convergence criterion met
 Total energy in the final basis set =    -2519.7388400858

                    Orbital Energies (a.u.)
 --------------------------------------------------------------

 Alpha MOs
 -- Occupied --
******* -58.093 -52.149 -52.146 -52.146 -10.235 -10.183 -10.183
 -7.850  -5.805  -5.787  -5.778  -2.152  -2.134  -2.125  -2.112
 -2.112  -0.939  -0.714  -0.689  -0.591  -0.479  -0.463  -0.438
 -0.404  -0.391  -0.377  -0.360  -0.269  -0.183

 Beta MOs
 -- Occupied --
******* -58.093 -52.149 -52.146 -52.146 -10.235 -10.183 -10.183
 -7.850  -5.805  -5.787  -5.778  -2.152  -2.134  -2.125  -2.112
 -2.112  -0.939  -0.714  -0.689  -0.591  -0.479  -0.463  -0.438
 -0.404  -0.391  -0.377  -0.360  -0.269  -0.183

          Ground-State Mulliken Net Atomic Charges

     Atom                 Charge (a.u.)    Spin (a.u.)
  --------------------------------------------------------
      1 C                    -0.348968       0.000000
      2 C                    -0.211349       0.000000
      3 Se                    0.104901      -0.000000
      4 H                    -0.007944      -0.000000
      5 C                    -0.348968      -0.000000
      6 H                     0.110642       0.000000
      7 H                     0.099542      -0.000000
      8 H                     0.110814       0.000000
      9 H                     0.170331       0.000000
     10 H                     0.099542       0.000000
     11 H                     0.110642      -0.000000
     12 H                     0.110814       0.000000
  --------------------------------------------------------
  Sum of atomic charges =    -0.000000

                    Cartesian Multipole Moments
 -----------------------------------------------------------------
    Charge (ESU x 10^10)
                 0.0000
    Dipole Moment (Debye)
         X      -1.9187      Y      -0.0000      Z      -0.2543
       Tot       1.9355
    Quadrupole Moments (Debye-Ang)
        XX     -39.6622     XY       0.0000     YY     -40.5622
        XZ       1.7634     YZ      -0.0000     ZZ     -36.7781

 Final energy is   -2519.73884008580
 **  OPTIMIZATION CONVERGED  **
 Total job time:  105.06s(wall), 1223.38s(cpu)
        *  Thank you very much for using Q-Chem.  Have a nice day.  *
