 Q-Chem 5.1, Q-Chem, Inc., Pleasanton, CA (2018)
 Q-Chem 5.1.1 for Intel X86 EM64T Linux

User input:
--------------------------------------------------------------

$comment
potential surface scanner
$end

$rem
JOBTYPE  PES_SCAN
UNRESTRICTED TRUE
SYM_IGNORE  TRUE
GEOM_OPT_MAX_CYCLES 400
SCF_MAX_CYCLES 400
METHOD   B3LYP
BASIS   6-31G**
PDB_PRINT 2
SCF_CONVERGENCE 6
THRESH 14
SCF_PRINT 1
$end
$molecule
0 3
C -1.876244 1.301693 0.161835
C -1.211456 -0.000000 -0.138239
Se 1.487471 0.000000 -0.214342
H 0.950296 0.000000 1.152011
C -1.876244 -1.301693 0.161835
H -1.172066 2.138121 0.101495
H -2.701037 1.523267 -0.538169
H -2.318846 1.293491 1.166011
H -0.511709 -0.000000 -0.985271
H -2.701038 -1.523267 -0.538169
H -1.172066 -2.138121 0.101495
H -2.318846 -1.293491 1.166011
$end
$scan
stre 2 3 2.600000 2.601000 0.100000
$end
--------------------------------------------------------------

   10   -2520.3310092824      4.30e-07  Convergence criterion met
 Total energy in the final basis set =    -2520.3310092824
   10   -2520.3241713627      4.45e-07  Convergence criterion met
 Total energy in the final basis set =    -2520.3241713627
   10   -2520.3242014590      4.48e-07  Convergence criterion met
 Total energy in the final basis set =    -2520.3242014590
   10   -2520.3242310992      4.51e-07  Convergence criterion met
 Total energy in the final basis set =    -2520.3242310992
   10   -2520.3242469644      4.53e-07  Convergence criterion met
 Total energy in the final basis set =    -2520.3242469644
   10   -2520.3242504461      4.53e-07  Convergence criterion met
 Total energy in the final basis set =    -2520.3242504461
   10   -2520.3242519458      4.53e-07  Convergence criterion met
 Total energy in the final basis set =    -2520.3242519458

             Standard Nuclear Orientation (Angstroms)
    I     Atom           X                Y                Z
 ----------------------------------------------------------------
    1      C      -1.8564692659     1.2994455927     0.1578764951
    2      C      -1.1925682674    -0.0000001377    -0.1551538006
    3      Se      1.4073161206    -0.0000001032    -0.1796841412
    4      H       0.8710963250     0.0000007065     1.1867993729
    5      C      -1.8564695518    -1.2994457089     0.1578764180
    6      H      -1.1585595526     2.1392704159     0.0754251916
    7      H      -2.7020027726     1.5138999437    -0.5192735038
    8      H      -2.2712914484     1.2915933064     1.1738496825
    9      H      -0.5309816492    -0.0000001311    -1.0312138202
   10      H      -2.7020032560    -1.5138997292    -0.5192734380
   11      H      -1.1585601124    -2.1392707193     0.0754248683
   12      H      -2.2712915694    -1.2915934358     1.1738496755
 ----------------------------------------------------------------

   10   -2520.3242524269      4.53e-07  Convergence criterion met
 Total energy in the final basis set =    -2520.3242524269

                    Orbital Energies (a.u.)
 --------------------------------------------------------------

 Alpha MOs
 -- Occupied --
******* -58.092 -52.151 -52.149 -52.145 -10.204 -10.188 -10.188
 -7.826  -5.773  -5.768  -5.757  -2.107  -2.106  -2.097  -2.093
 -2.091  -0.800  -0.700  -0.699  -0.587  -0.468  -0.440  -0.419
 -0.395  -0.387  -0.365  -0.363  -0.263  -0.239  -0.179

 Beta MOs
 -- Occupied --
******* -58.091 -52.148 -52.147 -52.145 -10.189 -10.188 -10.188
 -7.823  -5.767  -5.765  -5.755  -2.102  -2.101  -2.092  -2.091
 -2.089  -0.778  -0.697  -0.668  -0.559  -0.457  -0.421  -0.413
 -0.388  -0.375  -0.358  -0.350  -0.227

          Ground-State Mulliken Net Atomic Charges

     Atom                 Charge (a.u.)    Spin (a.u.)
  --------------------------------------------------------
      1 C                    -0.333927      -0.067994
      2 C                    -0.117042       1.036741
      3 Se                   -0.134985       0.940367
      4 H                     0.072729      -0.015741
      5 C                    -0.333927      -0.067994
      6 H                     0.127857       0.012875
      7 H                     0.117581       0.063251
      8 H                     0.115105       0.019593
      9 H                     0.126067      -0.016817
     10 H                     0.117581       0.063251
     11 H                     0.127857       0.012874
     12 H                     0.115105       0.019593
  --------------------------------------------------------
  Sum of atomic charges =     0.000000

                    Cartesian Multipole Moments
 -----------------------------------------------------------------
    Charge (ESU x 10^10)
                 0.0000
    Dipole Moment (Debye)
         X      -1.9431      Y       0.0000      Z       0.4580
       Tot       1.9963
    Quadrupole Moments (Debye-Ang)
        XX     -39.7763     XY      -0.0000     YY     -41.1386
        XZ       0.5567     YZ       0.0000     ZZ     -37.7049

 Final energy is   -2520.32425242688
 **  OPTIMIZATION CONVERGED  **
 Total job time:  31.90s(wall), 370.32s(cpu)
        *  Thank you very much for using Q-Chem.  Have a nice day.  *
