 Q-Chem 5.1, Q-Chem, Inc., Pleasanton, CA (2018)
 Q-Chem 5.1.1 for Intel X86 EM64T Linux

User input:
--------------------------------------------------------------

$comment
potential surface scanner
$end

$rem
JOBTYPE  PES_SCAN
UNRESTRICTED TRUE
SYM_IGNORE  TRUE
GEOM_OPT_MAX_CYCLES 400
SCF_MAX_CYCLES 400
METHOD   B3LYP
BASIS   6-31G**
PDB_PRINT 2
SCF_CONVERGENCE 6
THRESH 14
SCF_PRINT 1
$end
$molecule
0 3
C -1.998292 1.300585 0.135577
C -1.365903 0.000000 -0.231924
Se 2.228615 0.000000 -0.033323
H 1.408554 0.000000 1.199525
C -1.998292 -1.300585 0.135577
H -1.310723 2.142156 0.004805
H -2.889886 1.518314 -0.479583
H -2.343191 1.298847 1.178138
H -0.608869 0.000000 -1.015650
H -2.889886 -1.518314 -0.479583
H -1.310723 -2.142156 0.004805
H -2.343191 -1.298847 1.178138
$end
$scan
stre 2 3 3.500000 3.501000 0.100000
$end
--------------------------------------------------------------

   10   -2520.3489659309      4.20e-07  Convergence criterion met
 Total energy in the final basis set =    -2520.3489659309
   10   -2520.3475047425      4.22e-07  Convergence criterion met
 Total energy in the final basis set =    -2520.3475047425
   10   -2520.3483228728      4.18e-07  Convergence criterion met
 Total energy in the final basis set =    -2520.3483228728
   10   -2520.3485539431      4.18e-07  Convergence criterion met
 Total energy in the final basis set =    -2520.3485539431
   10   -2520.3485593596      4.18e-07  Convergence criterion met
 Total energy in the final basis set =    -2520.3485593596
   10   -2520.3485640888      4.18e-07  Convergence criterion met
 Total energy in the final basis set =    -2520.3485640888
   10   -2520.3485709821      4.17e-07  Convergence criterion met
 Total energy in the final basis set =    -2520.3485709821
   10   -2520.3485749726      4.17e-07  Convergence criterion met
   10   -2520.3486035132      4.16e-07  Convergence criterion met
 Total energy in the final basis set =    -2520.3486035132
   10   -2520.3486105692      4.15e-07  Convergence criterion met
 Total energy in the final basis set =    -2520.3486105692
   10   -2520.3486225355      4.15e-07  Convergence criterion met
 Total energy in the final basis set =    -2520.3486225355
   10   -2520.3486389640      4.13e-07  Convergence criterion met
 Total energy in the final basis set =    -2520.3486389640
   10   -2520.3486499362      4.13e-07  Convergence criterion met
 Total energy in the final basis set =    -2520.3486499362
   10   -2520.3486542989      4.12e-07  Convergence criterion met
 Total energy in the final basis set =    -2520.3486542989

             Standard Nuclear Orientation (Angstroms)
    I     Atom           X                Y                Z
 ----------------------------------------------------------------
    1      C      -1.9970643995     1.3017876255     0.1580617273
    2      C      -1.3284409216     0.0000000000    -0.1324025045
    3      Se      2.1710333616     0.0000000000    -0.1930634437
    4      H       1.3659074121     0.0000000000     1.0493372316
    5      C      -1.9970643995    -1.3017876255     0.1580617273
    6      H      -1.2950878123     2.1407357371     0.1150567892
    7      H      -2.8036970173     1.5243334117    -0.5632297649
    8      H      -2.4673327659     1.2985561980     1.1500435176
    9      H      -0.5039228622     0.0000000000    -0.8472338216
   10      H      -2.8036970173    -1.5243334116    -0.5632297650
   11      H      -1.2950878123    -2.1407357371     0.1150567892
   12      H      -2.4673327659    -1.2985561980     1.1500435176
 ----------------------------------------------------------------

   10   -2520.3486551373      4.12e-07  Convergence criterion met
 Total energy in the final basis set =    -2520.3486551373

                    Orbital Energies (a.u.)
 --------------------------------------------------------------

 Alpha MOs
 -- Occupied --
******* -58.111 -52.170 -52.168 -52.164 -10.195 -10.182 -10.182
 -7.845  -5.793  -5.786  -5.775  -2.126  -2.125  -2.115  -2.111
 -2.109  -0.784  -0.706  -0.693  -0.574  -0.455  -0.431  -0.410
 -0.388  -0.387  -0.357  -0.354  -0.289  -0.251  -0.187

 Beta MOs
 -- Occupied --
******* -58.110 -52.167 -52.166 -52.164 -10.183 -10.183 -10.181
 -7.841  -5.785  -5.784  -5.773  -2.120  -2.119  -2.110  -2.110
 -2.107  -0.766  -0.690  -0.671  -0.552  -0.448  -0.413  -0.404
 -0.381  -0.377  -0.353  -0.346  -0.238

          Ground-State Mulliken Net Atomic Charges

     Atom                 Charge (a.u.)    Spin (a.u.)
  --------------------------------------------------------
      1 C                    -0.336734      -0.076277
      2 C                    -0.081145       1.024664
      3 Se                   -0.098767       1.012872
      4 H                     0.081562      -0.026955
      5 C                    -0.336734      -0.076277
      6 H                     0.117120       0.009088
      7 H                     0.113700       0.064658
      8 H                     0.109862       0.020219
      9 H                     0.090455      -0.045956
     10 H                     0.113700       0.064658
     11 H                     0.117120       0.009088
     12 H                     0.109862       0.020219
  --------------------------------------------------------
  Sum of atomic charges =     0.000000

                    Cartesian Multipole Moments
 -----------------------------------------------------------------
    Charge (ESU x 10^10)
                -0.0000
    Dipole Moment (Debye)
         X      -1.0226      Y      -0.0000      Z       0.5175
       Tot       1.1461
    Quadrupole Moments (Debye-Ang)
        XX     -39.4652     XY       0.0000     YY     -41.4602
        XZ       0.7650     YZ      -0.0000     ZZ     -38.3066

 Final energy is   -2520.34865513729
 **  OPTIMIZATION CONVERGED  **
 Total job time:  78.63s(wall), 910.60s(cpu)
        *  Thank you very much for using Q-Chem.  Have a nice day.  *
