 Q-Chem 5.1, Q-Chem, Inc., Pleasanton, CA (2018)
 Q-Chem 5.1.1 for Intel X86 EM64T Linux

User input:
--------------------------------------------------------------

$comment
potential surface scanner
$end

$rem
JOBTYPE  PES_SCAN
UNRESTRICTED TRUE
SYM_IGNORE  TRUE
GEOM_OPT_MAX_CYCLES 400
SCF_MAX_CYCLES 400
METHOD   B3LYP
BASIS   6-31G**
PDB_PRINT 2
SCF_CONVERGENCE 6
THRESH 14
SCF_PRINT 1
$end
$molecule
0 1
C -1.805660 1.290355 0.140586
C -1.313952 0.000000 -0.432919
Se 1.341732 0.000000 0.054257
H 1.067075 0.000000 1.507739
C -1.805660 -1.290355 0.140586
H -1.270406 2.148865 -0.266689
H -2.872874 1.400815 -0.117556
H -1.733935 1.308696 1.231271
H -1.150908 0.000000 -1.507802
H -2.872874 -1.400815 -0.117556
H -1.270406 -2.148865 -0.266689
H -1.733935 -1.308696 1.231271
$end
$scan
stre 2 3 2.800000 2.801000 0.100000
$end
--------------------------------------------------------------

   10   -2520.4033037124      8.06e-07  Convergence criterion met
 Total energy in the final basis set =    -2520.4033037124
   10   -2520.3961547311      7.66e-07  Convergence criterion met
 Total energy in the final basis set =    -2520.3961547311
   10   -2520.3961370183      7.68e-07  Convergence criterion met
 Total energy in the final basis set =    -2520.3961370183
   10   -2520.3962693729      7.82e-07  Convergence criterion met
 Total energy in the final basis set =    -2520.3962693729
   10   -2520.3962817345      7.85e-07  Convergence criterion met
 Total energy in the final basis set =    -2520.3962817345
   10   -2520.3962881642      7.86e-07  Convergence criterion met
 Total energy in the final basis set =    -2520.3962881642

             Standard Nuclear Orientation (Angstroms)
    I     Atom           X                Y                Z
 ----------------------------------------------------------------
    1      C      -1.8196782347     1.2919196137     0.1385735894
    2      C      -1.3462529092     0.0000000000    -0.4381772985
    3      Se      1.4082900082     0.0000000000     0.0643075321
    4      H       1.1294039593     0.0000000000     1.5172912545
    5      C      -1.8196782347    -1.2919196137     0.1385735894
    6      H      -1.2729902902     2.1445030198    -0.2656402151
    7      H      -2.8853425272     1.4175124702    -0.1221935002
    8      H      -1.7522556079     1.3052465722     1.2295040451
    9      H      -1.1527107382     0.0000000000    -1.5074103264
   10      H      -2.8853425273    -1.4175124702    -0.1221935002
   11      H      -1.2729902902    -2.1445030197    -0.2656402151
   12      H      -1.7522556078    -1.3052465722     1.2295040450
 ----------------------------------------------------------------

   10   -2520.3962891584      7.85e-07  Convergence criterion met
 Total energy in the final basis set =    -2520.3962891584

                    Orbital Energies (a.u.)
 --------------------------------------------------------------

 Alpha MOs
 -- Occupied --
******* -58.060 -52.117 -52.117 -52.114 -10.267 -10.206 -10.206
 -7.792  -5.736  -5.734  -5.724  -2.070  -2.070  -2.062  -2.060
 -2.058  -0.815  -0.718  -0.645  -0.594  -0.481  -0.452  -0.435
 -0.411  -0.382  -0.377  -0.343  -0.235  -0.204

 Beta MOs
 -- Occupied --
******* -58.060 -52.117 -52.117 -52.114 -10.267 -10.206 -10.206
 -7.792  -5.736  -5.734  -5.724  -2.070  -2.070  -2.062  -2.060
 -2.058  -0.815  -0.718  -0.645  -0.594  -0.481  -0.452  -0.435
 -0.411  -0.382  -0.377  -0.343  -0.235  -0.204

          Ground-State Mulliken Net Atomic Charges

     Atom                 Charge (a.u.)    Spin (a.u.)
  --------------------------------------------------------
      1 C                    -0.327752       0.000000
      2 C                    -0.025757       0.000000
      3 Se                   -0.328454       0.000000
      4 H                     0.044541      -0.000000
      5 C                    -0.327752      -0.000000
      6 H                     0.152487       0.000000
      7 H                     0.122501       0.000000
      8 H                     0.133665       0.000000
      9 H                     0.147868      -0.000000
     10 H                     0.122501       0.000000
     11 H                     0.152487      -0.000000
     12 H                     0.133665       0.000000
  --------------------------------------------------------
  Sum of atomic charges =     0.000000

                    Cartesian Multipole Moments
 -----------------------------------------------------------------
    Charge (ESU x 10^10)
                 0.0000
    Dipole Moment (Debye)
         X      -4.2887      Y      -0.0000      Z       0.0679
       Tot       4.2893
    Quadrupole Moments (Debye-Ang)
        XX     -38.6250     XY       0.0000     YY     -40.1524
        XZ       0.9647     YZ      -0.0000     ZZ     -36.7229

 Final energy is   -2520.39628915843
 **  OPTIMIZATION CONVERGED  **
 Total job time:  28.04s(wall), 325.61s(cpu)
        *  Thank you very much for using Q-Chem.  Have a nice day.  *
