 Q-Chem 5.1, Q-Chem, Inc., Pleasanton, CA (2018)
 Q-Chem 5.1.1 for Intel X86 EM64T Linux

User input:
--------------------------------------------------------------

$comment
potential surface scanner
$end

$rem
JOBTYPE  PES_SCAN
UNRESTRICTED TRUE
SYM_IGNORE  TRUE
GEOM_OPT_MAX_CYCLES 400
SCF_MAX_CYCLES 400
METHOD   B3LYP
BASIS   6-31G**
PDB_PRINT 2
SCF_CONVERGENCE 6
THRESH 14
SCF_PRINT 1
$end
$molecule
0 1
C -1.730200 1.249200 0.145700
C -1.070500 -0.000000 -0.441800
Se 0.838900 0.000000 0.000600
H 0.783300 0.000000 1.559600
C -1.730200 -1.249200 0.145700
H -1.260200 2.139200 -0.272800
H -2.792000 1.249200 -0.100300
H -1.608100 1.249200 1.228900
H -1.192500 -0.000000 -1.524900
H -2.792000 -1.249200 -0.100300
H -1.260200 -2.139200 -0.272800
H -1.608100 -1.249200 1.228900
$end
$scan
stre 2 3 1.300000 1.301000 0.100000
$end
--------------------------------------------------------------

    9   -2520.4375567929      9.33e-07  Convergence criterion met
 Total energy in the final basis set =    -2520.4375567929
    9   -2520.4301686091      6.81e-07  Convergence criterion met
 Total energy in the final basis set =    -2520.4301686091
    9   -2520.3985670908      5.97e-07  Convergence criterion met
 Total energy in the final basis set =    -2520.3985670908
    9   -2520.3312487391      6.06e-07  Convergence criterion met
 Total energy in the final basis set =    -2520.3312487391
    9   -2520.2186337986      6.53e-07  Convergence criterion met
 Total energy in the final basis set =    -2520.2186337986
    9   -2520.0362982657      7.23e-07  Convergence criterion met
 Total energy in the final basis set =    -2520.0362982657
    9   -2520.0150549649      7.30e-07  Convergence criterion met
 Total energy in the final basis set =    -2520.0150549649
    9   -2520.0122468405      7.32e-07  Convergence criterion met
    9   -2520.0130914692      7.61e-07  Convergence criterion met
 Total energy in the final basis set =    -2520.0130914692
    9   -2520.0130945572      7.62e-07  Convergence criterion met
 Total energy in the final basis set =    -2520.0130945572
    9   -2520.0130981573      7.62e-07  Convergence criterion met
 Total energy in the final basis set =    -2520.0130981573
    9   -2520.0131009045      7.62e-07  Convergence criterion met
 Total energy in the final basis set =    -2520.0131009045
    9   -2520.0131025049      7.61e-07  Convergence criterion met
 Total energy in the final basis set =    -2520.0131025049
    9   -2520.0131036133      7.60e-07  Convergence criterion met
 Total energy in the final basis set =    -2520.0131036133

             Standard Nuclear Orientation (Angstroms)
    I     Atom           X                Y                Z
 ----------------------------------------------------------------
    1      C      -1.7008748846     1.2559859719     0.1650014017
    2      C      -0.8029073451     0.0000000000    -0.2977972057
    3      Se      0.4890488140     0.0000000000    -0.1534041956
    4      H       0.6936749889     0.0000000000     1.3393250812
    5      C      -1.7008748846    -1.2559859715     0.1650014017
    6      H      -1.2711247287     2.1757584993    -0.2442464275
    7      H      -2.7483958675     1.1726859296    -0.1382656959
    8      H      -1.6547001112     1.3165470951     1.2588230359
    9      H      -1.0514252762     0.0000000000    -1.3742483096
   10      H      -2.7483958638    -1.1726859292    -0.1382656950
   11      H      -1.2711247295    -2.1757584996    -0.2442464270
   12      H      -1.6547001116    -1.3165470955     1.2588230358
 ----------------------------------------------------------------

    9   -2520.0131045239      7.60e-07  Convergence criterion met
 Total energy in the final basis set =    -2520.0131045239

                    Orbital Energies (a.u.)
 --------------------------------------------------------------

 Alpha MOs
 -- Occupied --
******* -58.084 -52.141 -52.138 -52.137 -10.217 -10.184 -10.184
 -7.833  -5.783  -5.773  -5.764  -2.126  -2.115  -2.107  -2.099
 -2.099  -0.922  -0.716  -0.690  -0.583  -0.478  -0.451  -0.442
 -0.402  -0.392  -0.372  -0.357  -0.280  -0.192

 Beta MOs
 -- Occupied --
******* -58.084 -52.141 -52.138 -52.137 -10.217 -10.184 -10.184
 -7.833  -5.783  -5.773  -5.764  -2.126  -2.115  -2.107  -2.099
 -2.099  -0.922  -0.716  -0.690  -0.583  -0.478  -0.451  -0.442
 -0.402  -0.392  -0.372  -0.357  -0.280  -0.192

          Ground-State Mulliken Net Atomic Charges

     Atom                 Charge (a.u.)    Spin (a.u.)
  --------------------------------------------------------
      1 C                    -0.334044      -0.000000
      2 C                    -0.129796      -0.000000
      3 Se                   -0.007441       0.000000
      4 H                     0.003215      -0.000000
      5 C                    -0.334044      -0.000000
      6 H                     0.113999       0.000000
      7 H                     0.099630       0.000000
      8 H                     0.109382      -0.000000
      9 H                     0.156087      -0.000000
     10 H                     0.099630      -0.000000
     11 H                     0.113999       0.000000
     12 H                     0.109382      -0.000000
  --------------------------------------------------------
  Sum of atomic charges =    -0.000000

                    Cartesian Multipole Moments
 -----------------------------------------------------------------
    Charge (ESU x 10^10)
                 0.0000
    Dipole Moment (Debye)
         X      -1.8963      Y      -0.0000      Z      -0.0940
       Tot       1.8986
    Quadrupole Moments (Debye-Ang)
        XX     -39.4230     XY       0.0000     YY     -40.6251
        XZ       1.6572     YZ      -0.0000     ZZ     -36.8683

 Final energy is   -2520.01310452385
 **  OPTIMIZATION CONVERGED  **
 Total job time:  94.05s(wall), 1080.54s(cpu)
        *  Thank you very much for using Q-Chem.  Have a nice day.  *
