 Q-Chem 5.1, Q-Chem, Inc., Pleasanton, CA (2018)
 Q-Chem 5.1.1 for Intel X86 EM64T Linux

User input:
--------------------------------------------------------------

$comment
potential surface scanner
$end

$rem
JOBTYPE  PES_SCAN
UNRESTRICTED TRUE
SYM_IGNORE  TRUE
GEOM_OPT_MAX_CYCLES 400
SCF_MAX_CYCLES 400
METHOD   B3LYP
BASIS   6-31G**
PDB_PRINT 2
SCF_CONVERGENCE 6
THRESH 14
SCF_PRINT 1
$end
$molecule
0 3
C -1.920604 1.303360 0.163053
C -1.254025 0.000000 -0.123768
Se 1.744042 0.000000 -0.231445
H 1.060359 0.000000 1.075564
C -1.920604 -1.303360 0.163053
H -1.216696 2.140160 0.111162
H -2.733893 1.522790 -0.551100
H -2.380125 1.301371 1.159979
H -0.469525 0.000000 -0.890037
H -2.733893 -1.522790 -0.551100
H -1.216696 -2.140160 0.111162
H -2.380125 -1.301371 1.159979
$end
$scan
stre 2 3 2.900000 2.901000 0.100000
$end
--------------------------------------------------------------

   10   -2520.3425850428      3.99e-07  Convergence criterion met
 Total energy in the final basis set =    -2520.3425850428
   10   -2520.3391323669      3.99e-07  Convergence criterion met
 Total energy in the final basis set =    -2520.3391323669
   10   -2520.3396613104      3.99e-07  Convergence criterion met
 Total energy in the final basis set =    -2520.3396613104
   10   -2520.3397776562      4.01e-07  Convergence criterion met
 Total energy in the final basis set =    -2520.3397776562
   10   -2520.3397829524      4.01e-07  Convergence criterion met
 Total energy in the final basis set =    -2520.3397829524
   10   -2520.3397903579      4.02e-07  Convergence criterion met
 Total energy in the final basis set =    -2520.3397903579
   10   -2520.3398052595      4.02e-07  Convergence criterion met
 Total energy in the final basis set =    -2520.3398052595
   10   -2520.3397736297      4.07e-07  Convergence criterion met
   10   -2520.3399064840      4.03e-07  Convergence criterion met
 Total energy in the final basis set =    -2520.3399064840
   10   -2520.3399140572      4.02e-07  Convergence criterion met
 Total energy in the final basis set =    -2520.3399140572
   10   -2520.3399206204      4.01e-07  Convergence criterion met
 Total energy in the final basis set =    -2520.3399206204
   10   -2520.3399298126      4.01e-07  Convergence criterion met
 Total energy in the final basis set =    -2520.3399298126
   10   -2520.3399314046      4.01e-07  Convergence criterion met
 Total energy in the final basis set =    -2520.3399314046
   10   -2520.3399327383      4.02e-07  Convergence criterion met
 Total energy in the final basis set =    -2520.3399327383

             Standard Nuclear Orientation (Angstroms)
    I     Atom           X                Y                Z
 ----------------------------------------------------------------
    1      C      -1.9220167389     1.3034342202     0.1633030959
    2      C      -1.2453161355    -0.0000000045    -0.0974884405
    3      Se      1.6489828555    -0.0000000067    -0.2792440481
    4      H       1.1561432077     0.0000000382     1.1050824132
    5      C      -1.9220167501    -1.3034342208     0.1633030887
    6      H      -1.2193288575     2.1416780156     0.1214368951
    7      H      -2.7192679292     1.5138563803    -0.5711815545
    8      H      -2.4040974381     1.3064441039     1.1495235699
    9      H      -0.4521729516    -0.0000000160    -0.8580119028
   10      H      -2.7192679396    -1.5138563808    -0.5711815619
   11      H      -1.2193288732    -2.1416780200     0.1214368858
   12      H      -2.4040974498    -1.3064441125     1.1495235593
 ----------------------------------------------------------------

   10   -2520.3399330969      4.01e-07  Convergence criterion met
 Total energy in the final basis set =    -2520.3399330969

                    Orbital Energies (a.u.)
 --------------------------------------------------------------

 Alpha MOs
 -- Occupied --
******* -58.099 -52.158 -52.156 -52.152 -10.203 -10.186 -10.186
 -7.833  -5.780  -5.775  -5.763  -2.114  -2.112  -2.103  -2.099
 -2.098  -0.793  -0.701  -0.698  -0.583  -0.463  -0.437  -0.416
 -0.392  -0.385  -0.366  -0.362  -0.264  -0.244  -0.192

 Beta MOs
 -- Occupied --
******* -58.098 -52.155 -52.154 -52.152 -10.187 -10.187 -10.187
 -7.830  -5.773  -5.772  -5.762  -2.108  -2.107  -2.098  -2.098
 -2.096  -0.773  -0.695  -0.669  -0.556  -0.453  -0.418  -0.409
 -0.386  -0.374  -0.358  -0.352  -0.231

          Ground-State Mulliken Net Atomic Charges

     Atom                 Charge (a.u.)    Spin (a.u.)
  --------------------------------------------------------
      1 C                    -0.337502      -0.071766
      2 C                    -0.090596       1.065047
      3 Se                   -0.127765       0.947194
      4 H                     0.077309      -0.023872
      5 C                    -0.337502      -0.071766
      6 H                     0.124892       0.010851
      7 H                     0.116355       0.064329
      8 H                     0.114256       0.022114
      9 H                     0.105053      -0.039424
     10 H                     0.116355       0.064329
     11 H                     0.124892       0.010851
     12 H                     0.114256       0.022114
  --------------------------------------------------------
  Sum of atomic charges =    -0.000000

                    Cartesian Multipole Moments
 -----------------------------------------------------------------
    Charge (ESU x 10^10)
                -0.0000
    Dipole Moment (Debye)
         X      -1.5597      Y       0.0000      Z       0.5717
       Tot       1.6612
    Quadrupole Moments (Debye-Ang)
        XX     -39.3098     XY       0.0000     YY     -41.1855
        XZ       0.7935     YZ       0.0000     ZZ     -38.1269

 Final energy is   -2520.33993309687
 **  OPTIMIZATION CONVERGED  **
 Total job time:  68.92s(wall), 804.14s(cpu)
        *  Thank you very much for using Q-Chem.  Have a nice day.  *
