 Q-Chem 5.1, Q-Chem, Inc., Pleasanton, CA (2018)
 Q-Chem 5.1.1 for Intel X86 EM64T Linux

User input:
--------------------------------------------------------------

$comment
potential surface scanner
$end

$rem
JOBTYPE  PES_SCAN
UNRESTRICTED TRUE
SYM_IGNORE  TRUE
GEOM_OPT_MAX_CYCLES 400
SCF_MAX_CYCLES 400
METHOD   B3LYP
BASIS   6-31G**
PDB_PRINT 2
SCF_CONVERGENCE 6
THRESH 14
SCF_PRINT 1
$end
$molecule
0 3
C -1.834112 1.292602 0.134492
C -1.371877 0.000000 -0.442964
Se 1.479613 0.000000 0.085246
H 1.187219 0.000000 1.535539
C -1.834112 -1.292602 0.134492
H -1.276561 2.141148 -0.263420
H -2.896787 1.429731 -0.134709
H -1.776420 1.301213 1.226080
H -1.148995 0.000000 -1.506208
H -2.896787 -1.429731 -0.134709
H -1.276561 -2.141148 -0.263420
H -1.776420 -1.301213 1.226080
$end
$scan
stre 2 3 5.700000 5.701000 0.100000
$end
--------------------------------------------------------------

   10   -2520.3360705069      5.43e-07  Convergence criterion met
 Total energy in the final basis set =    -2520.3360705069
   10   -2520.3402084993      4.92e-07  Convergence criterion met
 Total energy in the final basis set =    -2520.3402084993
   10   -2520.3427954345      4.71e-07  Convergence criterion met
 Total energy in the final basis set =    -2520.3427954345
   10   -2520.3445744752      4.59e-07  Convergence criterion met
 Total energy in the final basis set =    -2520.3445744752
   10   -2520.3458317183      4.51e-07  Convergence criterion met
 Total energy in the final basis set =    -2520.3458317183
   10   -2520.3467441187      4.48e-07  Convergence criterion met
 Total energy in the final basis set =    -2520.3467441187
   10   -2520.3474262211      4.47e-07  Convergence criterion met
 Total energy in the final basis set =    -2520.3474262211
   10   -2520.3478773849      4.49e-07  Convergence criterion met
   10   -2520.3485099324      4.82e-07  Convergence criterion met
 Total energy in the final basis set =    -2520.3485099324
   10   -2520.3485200187      4.81e-07  Convergence criterion met
 Total energy in the final basis set =    -2520.3485200187
   10   -2520.3452204045      5.51e-07  Convergence criterion met
 Total energy in the final basis set =    -2520.3452204045
   10   -2520.3484959465      4.90e-07  Convergence criterion met
 Total energy in the final basis set =    -2520.3484959465
   10   -2520.3485201848      4.81e-07  Convergence criterion met
 Total energy in the final basis set =    -2520.3485201848
   10   -2520.3485226409      4.80e-07  Convergence criterion met
 Total energy in the final basis set =    -2520.3485226409

             Standard Nuclear Orientation (Angstroms)
    I     Atom           X                Y                Z
 ----------------------------------------------------------------
    1      C      -2.4434702896     1.2979085610     0.0706438076
    2      C      -1.7455961090     0.0000000000    -0.1630255838
    3      Se      3.9526055107     0.0000000054    -0.0198506821
    4      H       3.9024695507     0.0000000058     1.4599802081
    5      C      -2.4434702943    -1.2979085671     0.0706438076
    6      H      -1.7736914364     2.1540152458    -0.0532040736
    7      H      -3.2905714632     1.4441205569    -0.6221400963
    8      H      -2.8739876943     1.3510245986     1.0821056751
    9      H      -0.7678371615     0.0000000000    -0.6354155644
   10      H      -3.2905714699    -1.4441205501    -0.6221400981
   11      H      -1.7736914461    -2.1540152546    -0.0532040762
   12      H      -2.8739876971    -1.3510246001     1.0821056760
 ----------------------------------------------------------------

   10   -2520.3485231519      4.80e-07  Convergence criterion met
 Total energy in the final basis set =    -2520.3485231519

                    Orbital Energies (a.u.)
 --------------------------------------------------------------

 Alpha MOs
 -- Occupied --
******* -58.119 -52.178 -52.175 -52.172 -10.182 -10.174 -10.174
 -7.852  -5.801  -5.794  -5.782  -2.133  -2.132  -2.123  -2.118
 -2.116  -0.774  -0.712  -0.684  -0.564  -0.444  -0.423  -0.402
 -0.395  -0.379  -0.348  -0.342  -0.300  -0.257  -0.175

 Beta MOs
 -- Occupied --
******* -58.117 -52.174 -52.174 -52.171 -10.175 -10.175 -10.169
 -7.849  -5.793  -5.792  -5.780  -2.128  -2.127  -2.117  -2.117
 -2.114  -0.756  -0.682  -0.677  -0.543  -0.440  -0.405  -0.397
 -0.385  -0.372  -0.345  -0.336  -0.244

          Ground-State Mulliken Net Atomic Charges

     Atom                 Charge (a.u.)    Spin (a.u.)
  --------------------------------------------------------
      1 C                    -0.333418      -0.081680
      2 C                    -0.077058       1.021498
      3 Se                   -0.075194       1.027557
      4 H                     0.075419      -0.027500
      5 C                    -0.333418      -0.081680
      6 H                     0.108075       0.002973
      7 H                     0.108088       0.056593
      8 H                     0.107263       0.035588
      9 H                     0.096814      -0.048502
     10 H                     0.108088       0.056593
     11 H                     0.108075       0.002973
     12 H                     0.107263       0.035588
  --------------------------------------------------------
  Sum of atomic charges =     0.000000

                    Cartesian Multipole Moments
 -----------------------------------------------------------------
    Charge (ESU x 10^10)
                 0.0000
    Dipole Moment (Debye)
         X      -0.0977      Y       0.0000      Z       0.6739
       Tot       0.6810
    Quadrupole Moments (Debye-Ang)
        XX     -41.6714     XY      -0.0000     YY     -38.3293
        XZ       2.5039     YZ       0.0000     ZZ     -38.0216

 Final energy is   -2520.34852315193
 **  OPTIMIZATION CONVERGED  **
 Total job time:  113.22s(wall), 1199.75s(cpu)
        *  Thank you very much for using Q-Chem.  Have a nice day.  *
