 Q-Chem 5.1, Q-Chem, Inc., Pleasanton, CA (2018)
 Q-Chem 5.1.1 for Intel X86 EM64T Linux

User input:
--------------------------------------------------------------

$comment
potential surface scanner
$end

$rem
JOBTYPE  PES_SCAN
UNRESTRICTED TRUE
SYM_IGNORE  TRUE
GEOM_OPT_MAX_CYCLES 400
SCF_MAX_CYCLES 400
METHOD   B3LYP
BASIS   6-31G**
PDB_PRINT 2
SCF_CONVERGENCE 6
THRESH 14
SCF_PRINT 1
$end
$molecule
0 1
C -1.730200 1.249200 0.145700
C -1.070500 -0.000000 -0.441800
Se 0.838900 0.000000 0.000600
H 0.783300 0.000000 1.559600
C -1.730200 -1.249200 0.145700
H -1.260200 2.139200 -0.272800
H -2.792000 1.249200 -0.100300
H -1.608100 1.249200 1.228900
H -1.192500 -0.000000 -1.524900
H -2.792000 -1.249200 -0.100300
H -1.260200 -2.139200 -0.272800
H -1.608100 -1.249200 1.228900
$end
$scan
stre 2 3 1.400000 1.401000 0.100000
$end
--------------------------------------------------------------

    9   -2520.4375567929      9.33e-07  Convergence criterion met
 Total energy in the final basis set =    -2520.4375567929
    9   -2520.4301686091      6.81e-07  Convergence criterion met
 Total energy in the final basis set =    -2520.4301686091
    9   -2520.3985670908      5.97e-07  Convergence criterion met
 Total energy in the final basis set =    -2520.3985670908
    9   -2520.3312487391      6.06e-07  Convergence criterion met
 Total energy in the final basis set =    -2520.3312487391
    9   -2520.2259354248      6.52e-07  Convergence criterion met
 Total energy in the final basis set =    -2520.2259354248
    9   -2520.1903013178      6.72e-07  Convergence criterion met
 Total energy in the final basis set =    -2520.1903013178
    9   -2520.1886294575      6.79e-07  Convergence criterion met
 Total energy in the final basis set =    -2520.1886294575
    9   -2520.1888912077      6.88e-07  Convergence criterion met
    9   -2520.1889178527      6.88e-07  Convergence criterion met
 Total energy in the final basis set =    -2520.1889178527
    9   -2520.1889190295      6.87e-07  Convergence criterion met
 Total energy in the final basis set =    -2520.1889190295
    9   -2520.1889208000      6.87e-07  Convergence criterion met
 Total energy in the final basis set =    -2520.1889208000
    9   -2520.1889220637      6.87e-07  Convergence criterion met
 Total energy in the final basis set =    -2520.1889220637
    9   -2520.1889241313      6.87e-07  Convergence criterion met
 Total energy in the final basis set =    -2520.1889241313
    9   -2520.1889256493      6.87e-07  Convergence criterion met
 Total energy in the final basis set =    -2520.1889256493

             Standard Nuclear Orientation (Angstroms)
    I     Atom           X                Y                Z
 ----------------------------------------------------------------
    1      C      -1.7012688848     1.2541868116     0.1639144628
    2      C      -0.8485344678     0.0000000000    -0.3056798971
    3      Se      0.5416880296     0.0000000000    -0.1405090502
    4      H       0.6901161356     0.0000000000     1.3500469765
    5      C      -1.7012688856    -1.2541868109     0.1639144620
    6      H      -1.2709609209     2.1720627144    -0.2477573479
    7      H      -2.7523478378     1.1828051216    -0.1313886657
    8      H      -1.6517948194     1.3204618479     1.2573574537
    9      H      -1.0523247742     0.0000000000    -1.3916098369
   10      H      -2.7523478392    -1.1828051216    -0.1313886640
   11      H      -1.2709609192    -2.1720627138    -0.2477573459
   12      H      -1.6517948164    -1.3204618483     1.2573574527
 ----------------------------------------------------------------

    9   -2520.1889263719      6.87e-07  Convergence criterion met
 Total energy in the final basis set =    -2520.1889263719

                    Orbital Energies (a.u.)
 --------------------------------------------------------------

 Alpha MOs
 -- Occupied --
******* -58.081 -52.138 -52.135 -52.135 -10.210 -10.184 -10.184
 -7.824  -5.772  -5.765  -5.756  -2.111  -2.105  -2.097  -2.092
 -2.091  -0.900  -0.715  -0.690  -0.578  -0.475  -0.444  -0.440
 -0.399  -0.391  -0.365  -0.354  -0.290  -0.199

 Beta MOs
 -- Occupied --
******* -58.081 -52.138 -52.135 -52.135 -10.210 -10.184 -10.184
 -7.824  -5.772  -5.765  -5.756  -2.111  -2.105  -2.097  -2.092
 -2.091  -0.900  -0.715  -0.690  -0.578  -0.475  -0.444  -0.440
 -0.399  -0.391  -0.365  -0.354  -0.290  -0.199

          Ground-State Mulliken Net Atomic Charges

     Atom                 Charge (a.u.)    Spin (a.u.)
  --------------------------------------------------------
      1 C                    -0.323346       0.000000
      2 C                    -0.091103       0.000000
      3 Se                   -0.068671      -0.000000
      4 H                     0.014050       0.000000
      5 C                    -0.323346      -0.000000
      6 H                     0.116006       0.000000
      7 H                     0.099690       0.000000
      8 H                     0.107993      -0.000000
      9 H                     0.145037      -0.000000
     10 H                     0.099690      -0.000000
     11 H                     0.116006       0.000000
     12 H                     0.107993       0.000000
  --------------------------------------------------------
  Sum of atomic charges =    -0.000000

                    Cartesian Multipole Moments
 -----------------------------------------------------------------
    Charge (ESU x 10^10)
                 0.0000
    Dipole Moment (Debye)
         X      -1.8089      Y       0.0000      Z       0.0394
       Tot       1.8093
    Quadrupole Moments (Debye-Ang)
        XX     -39.2957     XY      -0.0000     YY     -40.7221
        XZ       1.5783     YZ      -0.0000     ZZ     -36.9541

 Final energy is   -2520.18892637188
 **  OPTIMIZATION CONVERGED  **
 Total job time:  70.38s(wall), 764.01s(cpu)
        *  Thank you very much for using Q-Chem.  Have a nice day.  *
