 Q-Chem 5.1, Q-Chem, Inc., Pleasanton, CA (2018)
 Q-Chem 5.1.1 for Intel X86 EM64T Linux

User input:
--------------------------------------------------------------

$comment
potential surface scanner
$end

$rem
JOBTYPE  PES_SCAN
UNRESTRICTED TRUE
SYM_IGNORE  TRUE
GEOM_OPT_MAX_CYCLES 400
SCF_MAX_CYCLES 400
METHOD   B3LYP
BASIS   6-31G**
PDB_PRINT 2
SCF_CONVERGENCE 6
THRESH 14
SCF_PRINT 1
$end
$molecule
0 3
C -1.932191 1.302871 0.158055
C -1.271410 0.000000 -0.144210
Se 1.828202 0.000000 -0.193276
H 1.097252 0.000000 1.090314
C -1.932191 -1.302871 0.158055
H -1.230588 2.140517 0.091343
H -2.760930 1.522458 -0.538283
H -2.370994 1.301169 1.164384
H -0.486424 0.000000 -0.907322
H -2.760930 -1.522458 -0.538283
H -1.230588 -2.140517 0.091343
H -2.370994 -1.301169 1.164384
$end
$scan
stre 2 3 3.000000 3.001000 0.100000
$end
--------------------------------------------------------------

   10   -2520.3446907878      4.00e-07  Convergence criterion met
 Total energy in the final basis set =    -2520.3446907878
   10   -2520.3419226588      3.98e-07  Convergence criterion met
 Total energy in the final basis set =    -2520.3419226588
   10   -2520.3424372440      3.98e-07  Convergence criterion met
 Total energy in the final basis set =    -2520.3424372440
   10   -2520.3425506078      3.99e-07  Convergence criterion met
 Total energy in the final basis set =    -2520.3425506078
   10   -2520.3425563851      4.00e-07  Convergence criterion met
 Total energy in the final basis set =    -2520.3425563851
   10   -2520.3425633443      4.00e-07  Convergence criterion met
 Total energy in the final basis set =    -2520.3425633443
   10   -2520.3425694894      4.00e-07  Convergence criterion met
 Total energy in the final basis set =    -2520.3425694894
   10   -2520.3425737089      4.00e-07  Convergence criterion met
 Total energy in the final basis set =    -2520.3425737089
   10   -2520.3425758935      4.00e-07  Convergence criterion met
 Total energy in the final basis set =    -2520.3425758935
   10   -2520.3425779092      3.99e-07  Convergence criterion met
 Total energy in the final basis set =    -2520.3425779092
   10   -2520.3425807060      3.99e-07  Convergence criterion met
 Total energy in the final basis set =    -2520.3425807060
   10   -2520.3425831347      3.99e-07  Convergence criterion met
 Total energy in the final basis set =    -2520.3425831347
   10   -2520.3425844255      3.99e-07  Convergence criterion met
 Total energy in the final basis set =    -2520.3425844255

             Standard Nuclear Orientation (Angstroms)
    I     Atom           X                Y                Z
 ----------------------------------------------------------------
    1      C      -1.9206041035     1.3033597513     0.1630526643
    2      C      -1.2540251947     0.0000000000    -0.1237679177
    3      Se      1.7440420923     0.0000000000    -0.2314445630
    4      H       1.0603590413     0.0000000000     1.0755637780
    5      C      -1.9206041034    -1.3033597549     0.1630526668
    6      H      -1.2166964007     2.1401600391     0.1111620766
    7      H      -2.7338925078     1.5227897209    -0.5510995341
    8      H      -2.3801253402     1.3013707558     1.1599794262
    9      H      -0.4695252356     0.0000000000    -0.8900365729
   10      H      -2.7338925073    -1.5227897239    -0.5510995327
   11      H      -1.2166964004    -2.1401600423     0.1111620799
   12      H      -2.3801253400    -1.3013707566     1.1599794286
 ----------------------------------------------------------------

   10   -2520.3425850495      3.99e-07  Convergence criterion met
 Total energy in the final basis set =    -2520.3425850495

                    Orbital Energies (a.u.)
 --------------------------------------------------------------

 Alpha MOs
 -- Occupied --
******* -58.102 -52.161 -52.159 -52.156 -10.201 -10.185 -10.185
 -7.836  -5.784  -5.778  -5.766  -2.117  -2.116  -2.106  -2.103
 -2.101  -0.791  -0.701  -0.697  -0.581  -0.461  -0.436  -0.415
 -0.391  -0.384  -0.364  -0.361  -0.272  -0.246  -0.191

 Beta MOs
 -- Occupied --
******* -58.101 -52.158 -52.157 -52.155 -10.186 -10.186 -10.186
 -7.833  -5.776  -5.775  -5.765  -2.111  -2.111  -2.102  -2.101
 -2.099  -0.771  -0.694  -0.669  -0.555  -0.452  -0.417  -0.408
 -0.385  -0.372  -0.357  -0.351  -0.233

          Ground-State Mulliken Net Atomic Charges

     Atom                 Charge (a.u.)    Spin (a.u.)
  --------------------------------------------------------
      1 C                    -0.336702      -0.073084
      2 C                    -0.092608       1.047400
      3 Se                   -0.118777       0.974326
      4 H                     0.079975      -0.026631
      5 C                    -0.336702      -0.073084
      6 H                     0.123121       0.010705
      7 H                     0.115825       0.064445
      8 H                     0.112824       0.020933
      9 H                     0.101274      -0.041091
     10 H                     0.115825       0.064445
     11 H                     0.123121       0.010705
     12 H                     0.112824       0.020933
  --------------------------------------------------------
  Sum of atomic charges =     0.000000

                    Cartesian Multipole Moments
 -----------------------------------------------------------------
    Charge (ESU x 10^10)
                 0.0000
    Dipole Moment (Debye)
         X      -1.4375      Y       0.0000      Z       0.5352
       Tot       1.5339
    Quadrupole Moments (Debye-Ang)
        XX     -39.4032     XY      -0.0000     YY     -41.2604
        XZ       0.6276     YZ       0.0000     ZZ     -38.1830

 Final energy is   -2520.34258504947
 **  OPTIMIZATION CONVERGED  **
 Total job time:  85.89s(wall), 681.40s(cpu)
        *  Thank you very much for using Q-Chem.  Have a nice day.  *
