 Q-Chem 5.1, Q-Chem, Inc., Pleasanton, CA (2018)
 Q-Chem 5.1.1 for Intel X86 EM64T Linux

User input:
--------------------------------------------------------------

$comment
potential surface scanner
$end

$rem
JOBTYPE  PES_SCAN
UNRESTRICTED TRUE
SYM_IGNORE  TRUE
GEOM_OPT_MAX_CYCLES 400
SCF_MAX_CYCLES 400
METHOD   B3LYP
BASIS   6-31G**
PDB_PRINT 2
SCF_CONVERGENCE 6
THRESH 14
SCF_PRINT 1
$end
$molecule
0 1
C -1.730200 1.249200 0.145700
C -1.070500 -0.000000 -0.441800
Se 0.838900 0.000000 0.000600
H 0.783300 0.000000 1.559600
C -1.730200 -1.249200 0.145700
H -1.260200 2.139200 -0.272800
H -2.792000 1.249200 -0.100300
H -1.608100 1.249200 1.228900
H -1.192500 -0.000000 -1.524900
H -2.792000 -1.249200 -0.100300
H -1.260200 -2.139200 -0.272800
H -1.608100 -1.249200 1.228900
$end
$scan
stre 2 3 1.100000 1.101000 0.100000
$end
--------------------------------------------------------------

    9   -2520.4375567929      9.33e-07  Convergence criterion met
 Total energy in the final basis set =    -2520.4375567929
    9   -2520.4301686091      6.81e-07  Convergence criterion met
 Total energy in the final basis set =    -2520.4301686091
    9   -2520.3985670908      5.97e-07  Convergence criterion met
 Total energy in the final basis set =    -2520.3985670908
    9   -2520.3312487391      6.06e-07  Convergence criterion met
 Total energy in the final basis set =    -2520.3312487391
    9   -2520.2186337193      6.53e-07  Convergence criterion met
 Total energy in the final basis set =    -2520.2186337193
    9   -2520.0336386724      7.24e-07  Convergence criterion met
 Total energy in the final basis set =    -2520.0336386724
   10   -2519.7755548429      2.92e-07  Convergence criterion met
 Total energy in the final basis set =    -2519.7755548429
   10   -2519.5437839256      4.17e-07  Convergence criterion met
   10   -2519.3145332531      4.00e-07  Convergence criterion met
 Total energy in the final basis set =    -2519.3145332531
   10   -2519.3145442018      4.03e-07  Convergence criterion met
 Total energy in the final basis set =    -2519.3145442018
   10   -2519.3145499863      4.03e-07  Convergence criterion met
 Total energy in the final basis set =    -2519.3145499863
   10   -2519.3145531730      4.00e-07  Convergence criterion met
 Total energy in the final basis set =    -2519.3145531730
   10   -2519.3145552780      3.97e-07  Convergence criterion met
 Total energy in the final basis set =    -2519.3145552780
   10   -2519.3145563114      3.95e-07  Convergence criterion met
 Total energy in the final basis set =    -2519.3145563114

             Standard Nuclear Orientation (Angstroms)
    I     Atom           X                Y                Z
 ----------------------------------------------------------------
    1      C      -1.7152809497     1.2824784515     0.1665611351
    2      C      -0.6854295643     0.0000000000    -0.2881684518
    3      Se      0.4088829786     0.0000000000    -0.1764493702
    4      H       0.7661838478     0.0000000000     1.3167240834
    5      C      -1.7152809513    -1.2824784514     0.1665611342
    6      H      -1.2693227396     2.2016369830    -0.2293036882
    7      H      -2.7504036232     1.1793033108    -0.1684794475
    8      H      -1.6827946357     1.3125429807     1.2610836814
    9      H      -1.0758333649     0.0000000000    -1.3153296200
   10      H      -2.7504036185    -1.1793033102    -0.1684794472
   11      H      -1.2693227410    -2.2016369843    -0.2293036896
   12      H      -1.6827946381    -1.3125429809     1.2610836803
 ----------------------------------------------------------------

   10   -2519.3145566422      3.94e-07  Convergence criterion met
 Total energy in the final basis set =    -2519.3145566422

                    Orbital Energies (a.u.)
 --------------------------------------------------------------

 Alpha MOs
 -- Occupied --
******* -58.114 -52.168 -52.166 -52.165 -10.275 -10.181 -10.181
 -7.882  -5.846  -5.813  -5.805  -2.198  -2.168  -2.161  -2.137
 -2.137  -0.944  -0.708  -0.685  -0.602  -0.479  -0.478  -0.431
 -0.404  -0.390  -0.380  -0.364  -0.255  -0.175

 Beta MOs
 -- Occupied --
******* -58.114 -52.168 -52.166 -52.165 -10.275 -10.181 -10.181
 -7.882  -5.846  -5.813  -5.805  -2.198  -2.168  -2.161  -2.137
 -2.137  -0.944  -0.708  -0.685  -0.602  -0.479  -0.478  -0.431
 -0.404  -0.390  -0.380  -0.364  -0.255  -0.175

          Ground-State Mulliken Net Atomic Charges

     Atom                 Charge (a.u.)    Spin (a.u.)
  --------------------------------------------------------
      1 C                    -0.371277      -0.000000
      2 C                    -0.336568       0.000000
      3 Se                    0.278228      -0.000000
      4 H                    -0.019724       0.000000
      5 C                    -0.371277       0.000000
      6 H                     0.105467      -0.000000
      7 H                     0.099250       0.000000
      8 H                     0.111934      -0.000000
      9 H                     0.187317       0.000000
     10 H                     0.099250       0.000000
     11 H                     0.105467       0.000000
     12 H                     0.111934      -0.000000
  --------------------------------------------------------
  Sum of atomic charges =    -0.000000

                    Cartesian Multipole Moments
 -----------------------------------------------------------------
    Charge (ESU x 10^10)
                -0.0000
    Dipole Moment (Debye)
         X      -1.7995      Y       0.0000      Z      -0.4588
       Tot       1.8571
    Quadrupole Moments (Debye-Ang)
        XX     -40.1386     XY       0.0000     YY     -40.5302
        XZ       1.8715     YZ       0.0000     ZZ     -36.6959

 Final energy is   -2519.31455664221
 **  OPTIMIZATION CONVERGED  **
 Total job time:  128.26s(wall), 1435.05s(cpu)
        *  Thank you very much for using Q-Chem.  Have a nice day.  *
