 Q-Chem 5.1, Q-Chem, Inc., Pleasanton, CA (2018)
 Q-Chem 5.1.1 for Intel X86 EM64T Linux

User input:
--------------------------------------------------------------

$comment
potential surface scanner
$end

$rem
JOBTYPE  PES_SCAN
UNRESTRICTED TRUE
SYM_IGNORE  TRUE
GEOM_OPT_MAX_CYCLES 400
SCF_MAX_CYCLES 400
METHOD   B3LYP
BASIS   6-31G**
PDB_PRINT 2
SCF_CONVERGENCE 6
THRESH 14
SCF_PRINT 1
$end
$molecule
0 1
C -1.730200 1.249200 0.145700
C -1.070500 -0.000000 -0.441800
Se 0.838900 0.000000 0.000600
H 0.783300 0.000000 1.559600
C -1.730200 -1.249200 0.145700
H -1.260200 2.139200 -0.272800
H -2.792000 1.249200 -0.100300
H -1.608100 1.249200 1.228900
H -1.192500 -0.000000 -1.524900
H -2.792000 -1.249200 -0.100300
H -1.260200 -2.139200 -0.272800
H -1.608100 -1.249200 1.228900
$end
$scan
stre 2 3 1.500000 1.501000 0.100000
$end
--------------------------------------------------------------

    9   -2520.4375567929      9.33e-07  Convergence criterion met
 Total energy in the final basis set =    -2520.4375567929
    9   -2520.4301686091      6.81e-07  Convergence criterion met
 Total energy in the final basis set =    -2520.4301686091
    9   -2520.3985670908      5.97e-07  Convergence criterion met
 Total energy in the final basis set =    -2520.3985670908
    9   -2520.3312487391      6.06e-07  Convergence criterion met
 Total energy in the final basis set =    -2520.3312487391
    9   -2520.2997557315      6.23e-07  Convergence criterion met
 Total energy in the final basis set =    -2520.2997557315
    9   -2520.2993467172      6.30e-07  Convergence criterion met
 Total energy in the final basis set =    -2520.2993467172
    9   -2520.2997159095      6.40e-07  Convergence criterion met
 Total energy in the final basis set =    -2520.2997159095
    9   -2520.2997527810      6.40e-07  Convergence criterion met
 Total energy in the final basis set =    -2520.2997527810
    9   -2520.2997706359      6.39e-07  Convergence criterion met
 Total energy in the final basis set =    -2520.2997706359
    9   -2520.2997722529      6.38e-07  Convergence criterion met
 Total energy in the final basis set =    -2520.2997722529
    9   -2520.2997732836      6.37e-07  Convergence criterion met
 Total energy in the final basis set =    -2520.2997732836

             Standard Nuclear Orientation (Angstroms)
    I     Atom           X                Y                Z
 ----------------------------------------------------------------
    1      C      -1.7038815167     1.2563416843     0.1617118493
    2      C      -0.8905305993     0.0000000000    -0.3141590463
    3      Se      0.5972295033     0.0000000000    -0.1229264791
    4      H       0.6944896412     0.0000000000     1.3648084390
    5      C      -1.7038815160    -1.2563416839     0.1617118500
    6      H      -1.2727225662     2.1708115032    -0.2556685048
    7      H      -2.7588615991     1.1953986123    -0.1231603834
    8      H      -1.6484545380     1.3293889347     1.2545747581
    9      H      -1.0551481086     0.0000000000    -1.4061383553
   10      H      -2.7588615985    -1.1953986125    -0.1231603825
   11      H      -1.2727225651    -2.1708115027    -0.2556685038
   12      H      -1.6484545370    -1.3293889337     1.2545747588
 ----------------------------------------------------------------

    9   -2520.2997738070      6.37e-07  Convergence criterion met
 Total energy in the final basis set =    -2520.2997738070

                    Orbital Energies (a.u.)
 --------------------------------------------------------------

 Alpha MOs
 -- Occupied --
******* -58.080 -52.138 -52.136 -52.134 -10.209 -10.184 -10.184
 -7.820  -5.767  -5.761  -5.753  -2.104  -2.100  -2.093  -2.088
 -2.087  -0.877  -0.711  -0.690  -0.575  -0.472  -0.445  -0.432
 -0.395  -0.391  -0.357  -0.352  -0.299  -0.206

 Beta MOs
 -- Occupied --
******* -58.080 -52.138 -52.136 -52.134 -10.209 -10.184 -10.184
 -7.820  -5.767  -5.761  -5.753  -2.104  -2.100  -2.093  -2.088
 -2.087  -0.877  -0.711  -0.690  -0.575  -0.472  -0.445  -0.432
 -0.395  -0.391  -0.357  -0.352  -0.299  -0.206

          Ground-State Mulliken Net Atomic Charges

     Atom                 Charge (a.u.)    Spin (a.u.)
  --------------------------------------------------------
      1 C                    -0.315413       0.000000
      2 C                    -0.084237       0.000000
      3 Se                   -0.093307      -0.000000
      4 H                     0.023965       0.000000
      5 C                    -0.315413      -0.000000
      6 H                     0.117365      -0.000000
      7 H                     0.099765      -0.000000
      8 H                     0.106765       0.000000
      9 H                     0.136616      -0.000000
     10 H                     0.099765       0.000000
     11 H                     0.117365       0.000000
     12 H                     0.106765      -0.000000
  --------------------------------------------------------
  Sum of atomic charges =     0.000000

                    Cartesian Multipole Moments
 -----------------------------------------------------------------
    Charge (ESU x 10^10)
                 0.0000
    Dipole Moment (Debye)
         X      -1.7045      Y      -0.0000      Z       0.1432
       Tot       1.7105
    Quadrupole Moments (Debye-Ang)
        XX     -39.2390     XY      -0.0000     YY     -40.8162
        XZ       1.5038     YZ      -0.0000     ZZ     -37.0151

 Final energy is   -2520.29977380695
 **  OPTIMIZATION CONVERGED  **
 Total job time:  48.68s(wall), 562.70s(cpu)
        *  Thank you very much for using Q-Chem.  Have a nice day.  *
