 Q-Chem 5.1, Q-Chem, Inc., Pleasanton, CA (2018)
 Q-Chem 5.1.1 for Intel X86 EM64T Linux

User input:
--------------------------------------------------------------

$comment
potential surface scanner
$end

$rem
JOBTYPE  PES_SCAN
UNRESTRICTED TRUE
SYM_IGNORE  TRUE
GEOM_OPT_MAX_CYCLES 400
SCF_MAX_CYCLES 400
METHOD   B3LYP
BASIS   6-31G**
PDB_PRINT 2
SCF_CONVERGENCE 6
THRESH 14
SCF_PRINT 1
$end
$molecule
0 1
C -1.730200 1.249200 0.145700
C -1.070500 -0.000000 -0.441800
Se 0.838900 0.000000 0.000600
H 0.783300 0.000000 1.559600
C -1.730200 -1.249200 0.145700
H -1.260200 2.139200 -0.272800
H -2.792000 1.249200 -0.100300
H -1.608100 1.249200 1.228900
H -1.192500 -0.000000 -1.524900
H -2.792000 -1.249200 -0.100300
H -1.260200 -2.139200 -0.272800
H -1.608100 -1.249200 1.228900
$end
$scan
stre 2 3 1.800000 1.801000 0.100000
$end
--------------------------------------------------------------

    9   -2520.4375567929      9.33e-07  Convergence criterion met
 Total energy in the final basis set =    -2520.4375567929
    9   -2520.4301686091      6.81e-07  Convergence criterion met
 Total energy in the final basis set =    -2520.4301686091
    9   -2520.4300466322      6.31e-07  Convergence criterion met
 Total energy in the final basis set =    -2520.4300466322
    9   -2520.4309745576      6.13e-07  Convergence criterion met
 Total energy in the final basis set =    -2520.4309745576
    9   -2520.4311197656      6.14e-07  Convergence criterion met
 Total energy in the final basis set =    -2520.4311197656
    9   -2520.4312305537      6.21e-07  Convergence criterion met
 Total energy in the final basis set =    -2520.4312305537
    9   -2520.4312360814      6.23e-07  Convergence criterion met
 Total energy in the final basis set =    -2520.4312360814

             Standard Nuclear Orientation (Angstroms)
    I     Atom           X                Y                Z
 ----------------------------------------------------------------
    1      C      -1.7177896711     1.2658626543     0.1568176324
    2      C      -1.0026951311     0.0000000000    -0.3527713609
    3      Se      0.7758185631     0.0000000000    -0.0754820651
    4      H       0.7279053072     0.0000000000     1.4034235226
    5      C      -1.7177896711    -1.2658626543     0.1568176324
    6      H      -1.2651767566     2.1717015216    -0.2546719338
    7      H      -2.7791769338     1.2508830150    -0.1165058888
    8      H      -1.6557447139     1.3278651140     1.2495461752
    9      H      -1.0870525882     0.0000000000    -1.4490420665
   10      H      -2.7791769338    -1.2508830150    -0.1165058888
   11      H      -1.2651767566    -2.1717015216    -0.2546719338
   12      H      -1.6557447139    -1.3278651140     1.2495461752
 ----------------------------------------------------------------

    9   -2520.4312380283      6.24e-07  Convergence criterion met
 Total energy in the final basis set =    -2520.4312380283

                    Orbital Energies (a.u.)
 --------------------------------------------------------------

 Alpha MOs
 -- Occupied --
******* -58.083 -52.141 -52.139 -52.137 -10.218 -10.183 -10.183
 -7.818  -5.764  -5.759  -5.750  -2.098  -2.097  -2.089  -2.085
 -2.084  -0.822  -0.696  -0.690  -0.574  -0.463  -0.442  -0.417
 -0.390  -0.383  -0.350  -0.341  -0.311  -0.219

 Beta MOs
 -- Occupied --
******* -58.083 -52.141 -52.139 -52.137 -10.218 -10.183 -10.183
 -7.818  -5.764  -5.759  -5.750  -2.098  -2.097  -2.089  -2.085
 -2.084  -0.822  -0.696  -0.690  -0.574  -0.463  -0.442  -0.417
 -0.390  -0.383  -0.350  -0.341  -0.311  -0.219

          Ground-State Mulliken Net Atomic Charges

     Atom                 Charge (a.u.)    Spin (a.u.)
  --------------------------------------------------------
      1 C                    -0.302860       0.000000
      2 C                    -0.130873       0.000000
      3 Se                   -0.087762      -0.000000
      4 H                     0.043606       0.000000
      5 C                    -0.302860      -0.000000
      6 H                     0.120707       0.000000
      7 H                     0.101320      -0.000000
      8 H                     0.105827      -0.000000
      9 H                     0.125041      -0.000000
     10 H                     0.101320       0.000000
     11 H                     0.120707       0.000000
     12 H                     0.105827       0.000000
  --------------------------------------------------------
  Sum of atomic charges =    -0.000000

                    Cartesian Multipole Moments
 -----------------------------------------------------------------
    Charge (ESU x 10^10)
                -0.0000
    Dipole Moment (Debye)
         X      -1.5624      Y       0.0000      Z       0.3022
       Tot       1.5913
    Quadrupole Moments (Debye-Ang)
        XX     -39.1430     XY      -0.0000     YY     -41.0265
        XZ       1.3294     YZ      -0.0000     ZZ     -37.0660

 Final energy is   -2520.43123802835
 **  OPTIMIZATION CONVERGED  **
 Total job time:  32.01s(wall), 370.45s(cpu)
        *  Thank you very much for using Q-Chem.  Have a nice day.  *
