 Q-Chem 5.1, Q-Chem, Inc., Pleasanton, CA (2018)
 Q-Chem 5.1.1 for Intel X86 EM64T Linux

User input:
--------------------------------------------------------------

$comment
potential surface scanner
$end

$rem
JOBTYPE  PES_SCAN
UNRESTRICTED TRUE
SYM_IGNORE  TRUE
GEOM_OPT_MAX_CYCLES 400
SCF_MAX_CYCLES 400
METHOD   B3LYP
BASIS   6-31G**
PDB_PRINT 2
SCF_CONVERGENCE 6
THRESH 14
SCF_PRINT 1
$end
$molecule
0 3
C -2.016007 1.300383 0.133242
C -1.381964 0.000000 -0.231977
Se 2.312366 0.000000 -0.027205
H 1.492499 0.000000 1.206297
C -2.016007 -1.300383 0.133242
H -1.328756 2.142497 0.004475
H -2.905867 1.517368 -0.484675
H -2.364126 1.298805 1.174765
H -0.615176 0.000000 -1.006229
H -2.905867 -1.517368 -0.484675
H -1.328756 -2.142497 0.004475
H -2.364126 -1.298805 1.174765
$end
$scan
stre 2 3 3.600000 3.601000 0.100000
$end
--------------------------------------------------------------

   10   -2520.3492132103      4.24e-07  Convergence criterion met
 Total energy in the final basis set =    -2520.3492132103
   10   -2520.3478643496      4.30e-07  Convergence criterion met
 Total energy in the final basis set =    -2520.3478643496
   10   -2520.3487014629      4.23e-07  Convergence criterion met
 Total energy in the final basis set =    -2520.3487014629
   10   -2520.3489432653      4.21e-07  Convergence criterion met
 Total energy in the final basis set =    -2520.3489432653
   10   -2520.3489490145      4.21e-07  Convergence criterion met
 Total energy in the final basis set =    -2520.3489490145
   10   -2520.3489538210      4.21e-07  Convergence criterion met
 Total energy in the final basis set =    -2520.3489538210
   10   -2520.3489604033      4.20e-07  Convergence criterion met
 Total energy in the final basis set =    -2520.3489604033
   10   -2520.3489638320      4.20e-07  Convergence criterion met
 Total energy in the final basis set =    -2520.3489638320
   10   -2520.3489652259      4.20e-07  Convergence criterion met
 Total energy in the final basis set =    -2520.3489652259

             Standard Nuclear Orientation (Angstroms)
    I     Atom           X                Y                Z
 ----------------------------------------------------------------
    1      C      -1.9982923497     1.3005849213     0.1355772362
    2      C      -1.3659025318     0.0000000000    -0.2319242053
    3      Se      2.2286151571     0.0000000000    -0.0333226105
    4      H       1.4085540711     0.0000000000     1.1995251253
    5      C      -1.9982923497    -1.3005849213     0.1355772362
    6      H      -1.3107231983     2.1421556724     0.0048048089
    7      H      -2.8898860741     1.5183137794    -0.4795834909
    8      H      -2.3431905384     1.2988467348     1.1781375351
    9      H      -0.6088693753     0.0000000000    -1.0156504881
   10      H      -2.8898860741    -1.5183137794    -0.4795834909
   11      H      -1.3107231983    -2.1421556724     0.0048048089
   12      H      -2.3431905384    -1.2988467348     1.1781375351
 ----------------------------------------------------------------

   10   -2520.3489659297      4.20e-07  Convergence criterion met
 Total energy in the final basis set =    -2520.3489659297

                    Orbital Energies (a.u.)
 --------------------------------------------------------------

 Alpha MOs
 -- Occupied --
******* -58.112 -52.171 -52.169 -52.165 -10.193 -10.181 -10.181
 -7.846  -5.794  -5.787  -5.776  -2.127  -2.126  -2.116  -2.112
 -2.110  -0.782  -0.706  -0.691  -0.573  -0.453  -0.429  -0.409
 -0.389  -0.386  -0.355  -0.351  -0.292  -0.252  -0.185

 Beta MOs
 -- Occupied --
******* -58.111 -52.168 -52.167 -52.165 -10.181 -10.181 -10.179
 -7.842  -5.786  -5.785  -5.774  -2.121  -2.120  -2.111  -2.111
 -2.108  -0.764  -0.689  -0.671  -0.551  -0.447  -0.412  -0.403
 -0.380  -0.378  -0.351  -0.344  -0.239

          Ground-State Mulliken Net Atomic Charges

     Atom                 Charge (a.u.)    Spin (a.u.)
  --------------------------------------------------------
      1 C                    -0.336644      -0.077535
      2 C                    -0.081808       1.017473
      3 Se                   -0.092913       1.023278
      4 H                     0.079693      -0.027761
      5 C                    -0.336644      -0.077535
      6 H                     0.116045       0.008183
      7 H                     0.112774       0.064398
      8 H                     0.108570       0.021434
      9 H                     0.093538      -0.045949
     10 H                     0.112774       0.064398
     11 H                     0.116045       0.008183
     12 H                     0.108570       0.021434
  --------------------------------------------------------
  Sum of atomic charges =     0.000000

                    Cartesian Multipole Moments
 -----------------------------------------------------------------
    Charge (ESU x 10^10)
                -0.0000
    Dipole Moment (Debye)
         X      -0.9258      Y      -0.0000      Z       0.5116
       Tot       1.0577
    Quadrupole Moments (Debye-Ang)
        XX     -39.6528     XY       0.0000     YY     -41.5244
        XZ       0.6447     YZ       0.0000     ZZ     -37.9806

 Final energy is   -2520.34896592974
 **  OPTIMIZATION CONVERGED  **
 Total job time:  37.93s(wall), 435.76s(cpu)
        *  Thank you very much for using Q-Chem.  Have a nice day.  *
