 Q-Chem 5.1, Q-Chem, Inc., Pleasanton, CA (2018)
 Q-Chem 5.1.1 for Intel X86 EM64T Linux

User input:
--------------------------------------------------------------

$comment
potential surface scanner
$end

$rem
JOBTYPE  PES_SCAN
UNRESTRICTED TRUE
SYM_IGNORE  TRUE
GEOM_OPT_MAX_CYCLES 400
SCF_MAX_CYCLES 400
METHOD   B3LYP
BASIS   6-31G**
PDB_PRINT 2
SCF_CONVERGENCE 6
THRESH 14
SCF_PRINT 1
$end
$molecule
0 3
C -1.922017 1.303434 0.163303
C -1.245316 0.000000 -0.097488
Se 1.648983 -0.000000 -0.279244
H 1.156143 0.000000 1.105082
C -1.922017 -1.303434 0.163303
H -1.219329 2.141678 0.121437
H -2.719268 1.513856 -0.571182
H -2.404097 1.306444 1.149524
H -0.452173 -0.000000 -0.858012
H -2.719268 -1.513856 -0.571182
H -1.219329 -2.141678 0.121437
H -2.404097 -1.306444 1.149524
$end
$scan
stre 2 3 2.800000 2.801000 0.100000
$end
--------------------------------------------------------------

   10   -2520.3399330981      4.01e-07  Convergence criterion met
 Total energy in the final basis set =    -2520.3399330981
   10   -2520.3358715473      4.09e-07  Convergence criterion met
 Total energy in the final basis set =    -2520.3358715473
   10   -2520.3360654185      4.10e-07  Convergence criterion met
 Total energy in the final basis set =    -2520.3360654185
   10   -2520.3361015409      4.11e-07  Convergence criterion met
 Total energy in the final basis set =    -2520.3361015409
   10   -2520.3361102198      4.11e-07  Convergence criterion met
 Total energy in the final basis set =    -2520.3361102198
   10   -2520.3361168286      4.12e-07  Convergence criterion met
 Total energy in the final basis set =    -2520.3361168286
   10   -2520.3361187535      4.12e-07  Convergence criterion met
 Total energy in the final basis set =    -2520.3361187535
   10   -2520.3361203891      4.12e-07  Convergence criterion met
 Total energy in the final basis set =    -2520.3361203891

             Standard Nuclear Orientation (Angstroms)
    I     Atom           X                Y                Z
 ----------------------------------------------------------------
    1      C      -1.9000066915     1.3020713872     0.1608500944
    2      C      -1.2255162069     0.0000000000    -0.1142661573
    3      Se      1.5716189560     0.0000000000    -0.2409018925
    4      H       1.0536977345    -0.0000000057     1.1331207237
    5      C      -1.9000066890    -1.3020713865     0.1608500959
    6      H      -1.2013484628     2.1423634676     0.0967636145
    7      H      -2.7186493898     1.5071513298    -0.5512566840
    8      H      -2.3539875514     1.3058577885     1.1602290019
    9      H      -0.4736013054     0.0000000000    -0.9146227355
   10      H      -2.7186493864    -1.5071513312    -0.5512566816
   11      H      -1.2013484586    -2.1423634656     0.0967636169
   12      H      -2.3539875487    -1.3058577875     1.1602290035
 ----------------------------------------------------------------

   10   -2520.3361212423      4.12e-07  Convergence criterion met
 Total energy in the final basis set =    -2520.3361212423

                    Orbital Energies (a.u.)
 --------------------------------------------------------------

 Alpha MOs
 -- Occupied --
******* -58.097 -52.156 -52.153 -52.150 -10.204 -10.187 -10.187
 -7.831  -5.778  -5.773  -5.761  -2.111  -2.110  -2.101  -2.097
 -2.096  -0.795  -0.700  -0.698  -0.584  -0.465  -0.438  -0.417
 -0.393  -0.385  -0.366  -0.363  -0.262  -0.242  -0.190

 Beta MOs
 -- Occupied --
******* -58.095 -52.152 -52.151 -52.149 -10.188 -10.187 -10.187
 -7.827  -5.771  -5.769  -5.760  -2.106  -2.105  -2.096  -2.096
 -2.093  -0.774  -0.695  -0.669  -0.557  -0.454  -0.419  -0.410
 -0.386  -0.374  -0.358  -0.352  -0.230

          Ground-State Mulliken Net Atomic Charges

     Atom                 Charge (a.u.)    Spin (a.u.)
  --------------------------------------------------------
      1 C                    -0.336739      -0.070590
      2 C                    -0.098888       1.058869
      3 Se                   -0.130473       0.944426
      4 H                     0.076309      -0.022600
      5 C                    -0.336739      -0.070590
      6 H                     0.125840       0.011077
      7 H                     0.116562       0.064070
      8 H                     0.114714       0.021677
      9 H                     0.112298      -0.033164
     10 H                     0.116562       0.064070
     11 H                     0.125840       0.011077
     12 H                     0.114714       0.021677
  --------------------------------------------------------
  Sum of atomic charges =    -0.000000

                    Cartesian Multipole Moments
 -----------------------------------------------------------------
    Charge (ESU x 10^10)
                -0.0000
    Dipole Moment (Debye)
         X      -1.6827      Y      -0.0000      Z       0.5359
       Tot       1.7659
    Quadrupole Moments (Debye-Ang)
        XX     -39.4713     XY       0.0000     YY     -41.1714
        XZ       0.7066     YZ      -0.0000     ZZ     -37.9848

 Final energy is   -2520.33612124226
 **  OPTIMIZATION CONVERGED  **
 Total job time:  34.57s(wall), 404.94s(cpu)
        *  Thank you very much for using Q-Chem.  Have a nice day.  *
