 Q-Chem 5.1, Q-Chem, Inc., Pleasanton, CA (2018)
 Q-Chem 5.1.1 for Intel X86 EM64T Linux

User input:
--------------------------------------------------------------

$comment
potential surface scanner
$end

$rem
JOBTYPE  PES_SCAN
UNRESTRICTED TRUE
SYM_IGNORE  TRUE
GEOM_OPT_MAX_CYCLES 400
SCF_MAX_CYCLES 400
METHOD   B3LYP
BASIS   6-31G**
PDB_PRINT 2
SCF_CONVERGENCE 6
THRESH 14
SCF_PRINT 1
$end
$molecule
0 3
C -2.412085 1.299459 0.094940
C -1.706182 0.000000 -0.103215
Se 3.793801 0.000000 -0.116773
H 3.748191 0.000000 1.363095
C -2.412085 -1.299459 0.094940
H -1.716011 2.143710 0.125125
H -3.134151 1.509468 -0.714580
H -2.993768 1.305641 1.027132
H -0.745578 0.000000 -0.611844
H -3.134151 -1.509468 -0.714580
H -1.716011 -2.143710 0.125125
H -2.993768 -1.305641 1.027132
$end
$scan
stre 2 3 5.400000 5.401000 0.100000
$end
--------------------------------------------------------------

   10   -2520.3486343006      4.77e-07  Convergence criterion met
 Total energy in the final basis set =    -2520.3486343006
   10   -2520.3473973010      5.06e-07  Convergence criterion met
 Total energy in the final basis set =    -2520.3473973010
   10   -2520.3483696978      5.19e-07  Convergence criterion met
 Total energy in the final basis set =    -2520.3483696978
   10   -2520.3486328631      4.84e-07  Convergence criterion met
 Total energy in the final basis set =    -2520.3486328631
   10   -2520.3486369071      4.78e-07  Convergence criterion met
 Total energy in the final basis set =    -2520.3486369071

             Standard Nuclear Orientation (Angstroms)
    I     Atom           X                Y                Z
 ----------------------------------------------------------------
    1      C      -2.3933573598     1.2993258885     0.0953700341
    2      C      -1.6929923793     0.0000000000    -0.1223362566
    3      Se      3.7069691406     0.0000000000    -0.1019501276
    4      H       3.6664875589     0.0000000000     1.3780924226
    5      C      -2.3933573598    -1.2993258885     0.0953700341
    6      H      -1.6972062166     2.1439956404     0.1036696879
    7      H      -3.1395900101     1.5079052088    -0.6923379360
    8      H      -2.9468863309     1.3062156459     1.0445491189
    9      H      -0.7481824853     0.0000000000    -0.6598108482
   10      H      -3.1395900101    -1.5079052088    -0.6923379360
   11      H      -1.6972062166    -2.1439956404     0.1036696879
   12      H      -2.9468863309    -1.3062156459     1.0445491189
 ----------------------------------------------------------------

   10   -2520.3486372728      4.78e-07  Convergence criterion met
 Total energy in the final basis set =    -2520.3486372728

                    Orbital Energies (a.u.)
 --------------------------------------------------------------

 Alpha MOs
 -- Occupied --
******* -58.118 -52.178 -52.175 -52.172 -10.182 -10.174 -10.174
 -7.852  -5.800  -5.794  -5.782  -2.133  -2.132  -2.123  -2.118
 -2.116  -0.774  -0.712  -0.684  -0.564  -0.444  -0.422  -0.402
 -0.395  -0.379  -0.348  -0.341  -0.300  -0.257  -0.175

 Beta MOs
 -- Occupied --
******* -58.117 -52.174 -52.173 -52.171 -10.175 -10.175 -10.168
 -7.849  -5.792  -5.792  -5.780  -2.128  -2.127  -2.117  -2.117
 -2.114  -0.756  -0.682  -0.677  -0.542  -0.440  -0.405  -0.396
 -0.384  -0.373  -0.344  -0.336  -0.244

          Ground-State Mulliken Net Atomic Charges

     Atom                 Charge (a.u.)    Spin (a.u.)
  --------------------------------------------------------
      1 C                    -0.333687      -0.080296
      2 C                    -0.074704       1.019380
      3 Se                   -0.075311       1.027632
      4 H                     0.075626      -0.027500
      5 C                    -0.333687      -0.080296
      6 H                     0.108754       0.006700
      7 H                     0.108289       0.062723
      8 H                     0.106129       0.024464
      9 H                     0.095418      -0.046694
     10 H                     0.108289       0.062723
     11 H                     0.108754       0.006700
     12 H                     0.106129       0.024464
  --------------------------------------------------------
  Sum of atomic charges =    -0.000000

                    Cartesian Multipole Moments
 -----------------------------------------------------------------
    Charge (ESU x 10^10)
                -0.0000
    Dipole Moment (Debye)
         X      -0.1218      Y      -0.0000      Z       0.6148
       Tot       0.6267
    Quadrupole Moments (Debye-Ang)
        XX     -41.5796     XY       0.0000     YY     -38.3285
        XZ       2.4396     YZ       0.0000     ZZ     -38.0837

 Final energy is   -2520.34863727281
 **  OPTIMIZATION CONVERGED  **
 Total job time:  20.43s(wall), 233.57s(cpu)
        *  Thank you very much for using Q-Chem.  Have a nice day.  *
