 Q-Chem 5.1, Q-Chem, Inc., Pleasanton, CA (2018)
 Q-Chem 5.1.1 for Intel X86 EM64T Linux

User input:
--------------------------------------------------------------

$comment
potential surface scanner
$end

$rem
JOBTYPE  PES_SCAN
UNRESTRICTED TRUE
SYM_IGNORE  TRUE
GEOM_OPT_MAX_CYCLES 400
SCF_MAX_CYCLES 400
METHOD   B3LYP
BASIS   6-31G**
PDB_PRINT 2
SCF_CONVERGENCE 6
THRESH 14
SCF_PRINT 1
$end
$molecule
0 3
C -2.068679 1.298628 0.128107
C -1.423173 0.000000 -0.223989
Se 2.571294 0.000000 -0.013662
H 1.720915 0.000000 1.199788
C -2.068679 -1.298628 0.128107
H -1.383120 2.143537 0.006590
H -2.949838 1.511115 -0.504091
H -2.434044 1.302145 1.164196
H -0.619461 0.000000 -0.955242
H -2.949838 -1.511115 -0.504091
H -1.383120 -2.143537 0.006590
H -2.434044 -1.302145 1.164196
$end
$scan
stre 2 3 3.900000 3.901000 0.100000
$end
--------------------------------------------------------------

   10   -2520.3488782556      4.62e-07  Convergence criterion met
 Total energy in the final basis set =    -2520.3488782556
   10   -2520.3474408984      4.93e-07  Convergence criterion met
 Total energy in the final basis set =    -2520.3474408984
   10   -2520.3483808047      4.73e-07  Convergence criterion met
 Total energy in the final basis set =    -2520.3483808047
   10   -2520.3494180254      4.38e-07  Convergence criterion met
 Total energy in the final basis set =    -2520.3494180254
   10   -2520.3494363688      4.30e-07  Convergence criterion met
 Total energy in the final basis set =    -2520.3494363688
   10   -2520.3494376776      4.31e-07  Convergence criterion met
 Total energy in the final basis set =    -2520.3494376776

             Standard Nuclear Orientation (Angstroms)
    I     Atom           X                Y                Z
 ----------------------------------------------------------------
    1      C      -2.0528249091     1.3003438806     0.1288696736
    2      C      -1.4131598563     0.0000000000    -0.2263478961
    3      Se      2.4815195735     0.0000000000    -0.0227002268
    4      H       1.6641165291     0.0000000000     1.2129105070
    5      C      -2.0528249091    -1.3003438806     0.1288696736
    6      H      -1.3651885161     2.1429769280     0.0060405113
    7      H      -2.9362904364     1.5149135341    -0.4989689756
    8      H      -2.4127039767     1.3014475917     1.1666192532
    9      H      -0.6202475697     0.0000000000    -0.9724843091
   10      H      -2.9362904364    -1.5149135341    -0.4989689756
   11      H      -1.3651885161    -2.1429769280     0.0060405113
   12      H      -2.4127039767    -1.3014475917     1.1666192532
 ----------------------------------------------------------------

   10   -2520.3494382601      4.30e-07  Convergence criterion met
 Total energy in the final basis set =    -2520.3494382601

                    Orbital Energies (a.u.)
 --------------------------------------------------------------

 Alpha MOs
 -- Occupied --
******* -58.114 -52.174 -52.171 -52.168 -10.191 -10.180 -10.180
 -7.848  -5.796  -5.790  -5.778  -2.129  -2.128  -2.118  -2.114
 -2.112  -0.781  -0.708  -0.690  -0.571  -0.451  -0.428  -0.408
 -0.391  -0.385  -0.354  -0.349  -0.295  -0.253  -0.184

 Beta MOs
 -- Occupied --
******* -58.113 -52.170 -52.169 -52.167 -10.181 -10.181 -10.177
 -7.845  -5.788  -5.787  -5.776  -2.123  -2.123  -2.113  -2.113
 -2.110  -0.763  -0.688  -0.673  -0.550  -0.446  -0.410  -0.402
 -0.380  -0.379  -0.351  -0.343  -0.240

          Ground-State Mulliken Net Atomic Charges

     Atom                 Charge (a.u.)    Spin (a.u.)
  --------------------------------------------------------
      1 C                    -0.335745      -0.078570
      2 C                    -0.080691       1.018242
      3 Se                   -0.088004       1.026296
      4 H                     0.079360      -0.027812
      5 C                    -0.335745      -0.078570
      6 H                     0.113932       0.007412
      7 H                     0.112197       0.063768
      8 H                     0.108179       0.022707
      9 H                     0.092209      -0.047362
     10 H                     0.112197       0.063768
     11 H                     0.113932       0.007412
     12 H                     0.108179       0.022707
  --------------------------------------------------------
  Sum of atomic charges =    -0.000000

                    Cartesian Multipole Moments
 -----------------------------------------------------------------
    Charge (ESU x 10^10)
                -0.0000
    Dipole Moment (Debye)
         X      -0.8132      Y       0.0000      Z       0.5232
       Tot       0.9670
    Quadrupole Moments (Debye-Ang)
        XX     -39.7513     XY       0.0000     YY     -41.5768
        XZ       0.7875     YZ       0.0000     ZZ     -38.0156

 Final energy is   -2520.34943826013
 **  OPTIMIZATION CONVERGED  **
 Total job time:  26.22s(wall), 294.90s(cpu)
        *  Thank you very much for using Q-Chem.  Have a nice day.  *
