 Q-Chem 5.1, Q-Chem, Inc., Pleasanton, CA (2018)
 Q-Chem 5.1.1 for Intel X86 EM64T Linux

User input:
--------------------------------------------------------------

$comment
potential surface scanner
$end

$rem
JOBTYPE  PES_SCAN
UNRESTRICTED TRUE
SYM_IGNORE  TRUE
GEOM_OPT_MAX_CYCLES 400
SCF_MAX_CYCLES 400
METHOD   B3LYP
BASIS   6-31G**
PDB_PRINT 2
SCF_CONVERGENCE 6
THRESH 14
SCF_PRINT 1
$end
$molecule
0 3
C -2.289413 1.299499 0.112174
C -1.592973 0.000000 -0.117398
Se 3.306851 0.000000 -0.158960
H 3.040432 0.000000 1.297819
C -2.289413 -1.299499 0.112174
H -1.590412 2.141911 0.127832
H -3.034118 1.518494 -0.674269
H -2.843099 1.299612 1.061053
H -0.662019 0.000000 -0.678544
H -3.034118 -1.518494 -0.674269
H -1.590412 -2.141911 0.127832
H -2.843099 -1.299612 1.061053
$end
$scan
stre 2 3 4.800000 4.801000 0.100000
$end
--------------------------------------------------------------

   10   -2520.3487138026      4.80e-07  Convergence criterion met
 Total energy in the final basis set =    -2520.3487138026
   10   -2520.3475894333      5.25e-07  Convergence criterion met
 Total energy in the final basis set =    -2520.3475894333
   10   -2520.3484729008      5.17e-07  Convergence criterion met
 Total energy in the final basis set =    -2520.3484729008
   10   -2520.3487155320      4.84e-07  Convergence criterion met
 Total energy in the final basis set =    -2520.3487155320
   10   -2520.3487189699      4.79e-07  Convergence criterion met
 Total energy in the final basis set =    -2520.3487189699

             Standard Nuclear Orientation (Angstroms)
    I     Atom           X                Y                Z
 ----------------------------------------------------------------
    1      C      -2.2700669786     1.2993717257     0.1117247969
    2      C      -1.5802665781     0.0000000000    -0.1376361004
    3      Se      3.2197323801     0.0000000000    -0.1407996690
    4      H       2.9542188515     0.0000000000     1.3160860616
    5      C      -2.2700669786    -1.2993717257     0.1117247969
    6      H      -1.5715381683     2.1422558074     0.1040663361
    7      H      -3.0395229368     1.5166009719    -0.6510531662
    8      H      -2.7936587271     1.3005695277     1.0775762564
    9      H      -0.6659040321     0.0000000000    -0.7257817386
   10      H      -3.0395229368    -1.5166009719    -0.6510531662
   11      H      -1.5715381683    -2.1422558074     0.1040663361
   12      H      -2.7936587271    -1.3005695277     1.0775762564
 ----------------------------------------------------------------

   10   -2520.3487192851      4.79e-07  Convergence criterion met
 Total energy in the final basis set =    -2520.3487192851

                    Orbital Energies (a.u.)
 --------------------------------------------------------------

 Alpha MOs
 -- Occupied --
******* -58.118 -52.178 -52.175 -52.172 -10.182 -10.174 -10.174
 -7.852  -5.800  -5.794  -5.782  -2.133  -2.132  -2.122  -2.118
 -2.116  -0.773  -0.712  -0.684  -0.563  -0.444  -0.422  -0.402
 -0.395  -0.379  -0.348  -0.341  -0.300  -0.257  -0.175

 Beta MOs
 -- Occupied --
******* -58.117 -52.174 -52.173 -52.171 -10.175 -10.175 -10.168
 -7.849  -5.792  -5.791  -5.780  -2.127  -2.127  -2.117  -2.117
 -2.114  -0.756  -0.682  -0.677  -0.542  -0.439  -0.405  -0.396
 -0.384  -0.373  -0.344  -0.336  -0.244

          Ground-State Mulliken Net Atomic Charges

     Atom                 Charge (a.u.)    Spin (a.u.)
  --------------------------------------------------------
      1 C                    -0.333858      -0.080040
      2 C                    -0.078002       1.018385
      3 Se                   -0.076098       1.028356
      4 H                     0.076486      -0.027555
      5 C                    -0.333858      -0.080040
      6 H                     0.108480       0.007286
      7 H                     0.108381       0.063238
      8 H                     0.105443       0.023170
      9 H                     0.100720      -0.046494
     10 H                     0.108381       0.063238
     11 H                     0.108480       0.007286
     12 H                     0.105443       0.023170
  --------------------------------------------------------
  Sum of atomic charges =     0.000000

                    Cartesian Multipole Moments
 -----------------------------------------------------------------
    Charge (ESU x 10^10)
                -0.0000
    Dipole Moment (Debye)
         X      -0.2282      Y       0.0000      Z       0.5924
       Tot       0.6348
    Quadrupole Moments (Debye-Ang)
        XX     -42.2089     XY       0.0000     YY     -38.3488
        XZ       1.3759     YZ       0.0000     ZZ     -38.2257

 Final energy is   -2520.34871928514
 **  OPTIMIZATION CONVERGED  **
 Total job time:  20.82s(wall), 238.13s(cpu)
        *  Thank you very much for using Q-Chem.  Have a nice day.  *
