 Q-Chem 5.1, Q-Chem, Inc., Pleasanton, CA (2018)
 Q-Chem 5.1.1 for Intel X86 EM64T Linux

User input:
--------------------------------------------------------------

$comment
potential surface scanner
$end

$rem
JOBTYPE  PES_SCAN
UNRESTRICTED TRUE
SYM_IGNORE  TRUE
GEOM_OPT_MAX_CYCLES 400
SCF_MAX_CYCLES 400
METHOD   B3LYP
BASIS   6-31G**
PDB_PRINT 2
SCF_CONVERGENCE 6
THRESH 14
SCF_PRINT 1
$end
$molecule
0 3
C -2.052825 1.300344 0.128870
C -1.413160 0.000000 -0.226348
Se 2.481520 0.000000 -0.022700
H 1.664117 0.000000 1.212911
C -2.052825 -1.300344 0.128870
H -1.365189 2.142977 0.006041
H -2.936290 1.514914 -0.498969
H -2.412704 1.301448 1.166619
H -0.620248 0.000000 -0.972484
H -2.936290 -1.514914 -0.498969
H -1.365189 -2.142977 0.006041
H -2.412704 -1.301448 1.166619
$end
$scan
stre 2 3 3.800000 3.801000 0.100000
$end
--------------------------------------------------------------

   10   -2520.3494382603      4.30e-07  Convergence criterion met
 Total energy in the final basis set =    -2520.3494382603
   10   -2520.3472160946      4.78e-07  Convergence criterion met
 Total energy in the final basis set =    -2520.3472160946
   10   -2520.3490870266      4.36e-07  Convergence criterion met
 Total energy in the final basis set =    -2520.3490870266
   10   -2520.3493368059      4.25e-07  Convergence criterion met
 Total energy in the final basis set =    -2520.3493368059
   10   -2520.3493443782      4.27e-07  Convergence criterion met
 Total energy in the final basis set =    -2520.3493443782
   10   -2520.3493504532      4.29e-07  Convergence criterion met
 Total energy in the final basis set =    -2520.3493504532
   10   -2520.3493574389      4.29e-07  Convergence criterion met
 Total energy in the final basis set =    -2520.3493574389
   10   -2520.3493609832      4.29e-07  Convergence criterion met
 Total energy in the final basis set =    -2520.3493609832
   10   -2520.3493621039      4.27e-07  Convergence criterion met
 Total energy in the final basis set =    -2520.3493621039

             Standard Nuclear Orientation (Angstroms)
    I     Atom           X                Y                Z
 ----------------------------------------------------------------
    1      C      -2.0340657450     1.3003169822     0.1310955475
    2      C      -1.3975349168     0.0000000000    -0.2298371882
    3      Se      2.3968590747     0.0000000000    -0.0235019822
    4      H       1.5766234375     0.0000000000     1.2100253219
    5      C      -2.0340657450    -1.3003169822     0.1310955475
    6      H      -1.3468134326     2.1428116016     0.0049378707
    7      H      -2.9211436041     1.5161413114    -0.4912057434
    8      H      -2.3872850853     1.2998061231     1.1709721818
    9      H      -0.6191188615     0.0000000000    -0.9917848647
   10      H      -2.9211436041    -1.5161413114    -0.4912057434
   11      H      -1.3468134326    -2.1428116016     0.0049378707
   12      H      -2.3872850853    -1.2998061231     1.1709721818
 ----------------------------------------------------------------

   10   -2520.3493624141      4.27e-07  Convergence criterion met
 Total energy in the final basis set =    -2520.3493624141

                    Orbital Energies (a.u.)
 --------------------------------------------------------------

 Alpha MOs
 -- Occupied --
******* -58.114 -52.173 -52.170 -52.167 -10.192 -10.180 -10.180
 -7.847  -5.796  -5.789  -5.777  -2.128  -2.127  -2.118  -2.114
 -2.111  -0.781  -0.707  -0.691  -0.572  -0.452  -0.428  -0.408
 -0.390  -0.385  -0.355  -0.350  -0.294  -0.253  -0.184

 Beta MOs
 -- Occupied --
******* -58.112 -52.169 -52.169 -52.166 -10.181 -10.181 -10.178
 -7.844  -5.788  -5.787  -5.776  -2.123  -2.122  -2.113  -2.112
 -2.109  -0.764  -0.688  -0.673  -0.550  -0.446  -0.411  -0.403
 -0.379  -0.379  -0.351  -0.343  -0.240

          Ground-State Mulliken Net Atomic Charges

     Atom                 Charge (a.u.)    Spin (a.u.)
  --------------------------------------------------------
      1 C                    -0.336076      -0.078196
      2 C                    -0.080854       1.017628
      3 Se                   -0.089522       1.025733
      4 H                     0.079491      -0.027808
      5 C                    -0.336076      -0.078196
      6 H                     0.114598       0.007688
      7 H                     0.112371       0.064045
      8 H                     0.108277       0.022129
      9 H                     0.092546      -0.046885
     10 H                     0.112371       0.064045
     11 H                     0.114598       0.007688
     12 H                     0.108277       0.022129
  --------------------------------------------------------
  Sum of atomic charges =    -0.000000

                    Cartesian Multipole Moments
 -----------------------------------------------------------------
    Charge (ESU x 10^10)
                -0.0000
    Dipole Moment (Debye)
         X      -0.8490      Y      -0.0000      Z       0.5184
       Tot       0.9948
    Quadrupole Moments (Debye-Ang)
        XX     -39.7176     XY      -0.0000     YY     -41.5605
        XZ       0.7374     YZ      -0.0000     ZZ     -37.9975

 Final energy is   -2520.34936241411
 **  OPTIMIZATION CONVERGED  **
 Total job time:  37.02s(wall), 429.49s(cpu)
        *  Thank you very much for using Q-Chem.  Have a nice day.  *
