 Q-Chem 5.1, Q-Chem, Inc., Pleasanton, CA (2018)
 Q-Chem 5.1.1 for Intel X86 EM64T Linux

User input:
--------------------------------------------------------------

$comment
potential surface scanner
$end

$rem
JOBTYPE  PES_SCAN
UNRESTRICTED TRUE
SYM_IGNORE  TRUE
GEOM_OPT_MAX_CYCLES 400
SCF_MAX_CYCLES 400
METHOD   B3LYP
BASIS   6-31G**
PDB_PRINT 2
SCF_CONVERGENCE 6
THRESH 14
SCF_PRINT 1
$end
$molecule
0 3
C -2.111421 1.298906 0.129670
C -1.446540 0.000000 -0.182532
Se 2.751607 0.000000 -0.057766
H 1.915733 0.000000 1.166292
C -2.111421 -1.298906 0.129670
H -1.420402 2.143848 0.045459
H -2.955323 1.509509 -0.551978
H -2.534762 1.304499 1.143457
H -0.598773 0.000000 -0.862715
H -2.955323 -1.509509 -0.551978
H -1.420402 -2.143848 0.045459
H -2.534762 -1.304499 1.143457
$end
$scan
stre 2 3 4.100000 4.101000 0.100000
$end
--------------------------------------------------------------

   10   -2520.3491051821      4.70e-07  Convergence criterion met
 Total energy in the final basis set =    -2520.3491051821
   10   -2520.3482375418      5.16e-07  Convergence criterion met
 Total energy in the final basis set =    -2520.3482375418
   10   -2520.3488469668      4.89e-07  Convergence criterion met
 Total energy in the final basis set =    -2520.3488469668
   10   -2520.3490157793      4.69e-07  Convergence criterion met
 Total energy in the final basis set =    -2520.3490157793
   10   -2520.3490176123      4.66e-07  Convergence criterion met
 Total energy in the final basis set =    -2520.3490176123

             Standard Nuclear Orientation (Angstroms)
    I     Atom           X                Y                Z
 ----------------------------------------------------------------
    1      C      -2.0901793288     1.2987039867     0.1287971650
    2      C      -1.4347449363     0.0000000000    -0.2039071948
    3      Se      2.6617951575     0.0000000000    -0.0355051103
    4      H       1.8181778762     0.0000000000     1.1829057027
    5      C      -2.0901793288    -1.2987039867     0.1287971650
    6      H      -1.4016413558     2.1436768970     0.0262100834
    7      H      -2.9532178125     1.5104955078    -0.5280700402
    8      H      -2.4844318343     1.3028497421     1.1542626693
    9      H      -0.6080764346     0.0000000000    -0.9093981526
   10      H      -2.9532178125    -1.5104955078    -0.5280700402
   11      H      -1.4016413558    -2.1436768970     0.0262100834
   12      H      -2.4844318343    -1.3028497421     1.1542626693
 ----------------------------------------------------------------

   10   -2520.3490178769      4.66e-07  Convergence criterion met
 Total energy in the final basis set =    -2520.3490178769

                    Orbital Energies (a.u.)
 --------------------------------------------------------------

 Alpha MOs
 -- Occupied --
******* -58.117 -52.176 -52.173 -52.170 -10.184 -10.176 -10.176
 -7.850  -5.799  -5.792  -5.780  -2.131  -2.131  -2.121  -2.116
 -2.114  -0.775  -0.710  -0.686  -0.565  -0.446  -0.424  -0.404
 -0.393  -0.381  -0.350  -0.343  -0.299  -0.255  -0.177

 Beta MOs
 -- Occupied --
******* -58.115 -52.172 -52.172 -52.169 -10.177 -10.177 -10.170
 -7.847  -5.791  -5.790  -5.779  -2.126  -2.125  -2.115  -2.115
 -2.112  -0.758  -0.684  -0.675  -0.544  -0.442  -0.407  -0.398
 -0.382  -0.375  -0.346  -0.338  -0.242

          Ground-State Mulliken Net Atomic Charges

     Atom                 Charge (a.u.)    Spin (a.u.)
  --------------------------------------------------------
      1 C                    -0.334862      -0.079281
      2 C                    -0.083609       1.013214
      3 Se                   -0.080205       1.032511
      4 H                     0.079873      -0.028182
      5 C                    -0.334862      -0.079281
      6 H                     0.108319       0.007021
      7 H                     0.109865       0.063559
      8 H                     0.105211       0.022965
      9 H                     0.106876      -0.046072
     10 H                     0.109865       0.063559
     11 H                     0.108319       0.007021
     12 H                     0.105211       0.022965
  --------------------------------------------------------
  Sum of atomic charges =    -0.000000

                    Cartesian Multipole Moments
 -----------------------------------------------------------------
    Charge (ESU x 10^10)
                -0.0000
    Dipole Moment (Debye)
         X      -0.5945      Y       0.0000      Z       0.4545
       Tot       0.7483
    Quadrupole Moments (Debye-Ang)
        XX     -42.4305     XY       0.0000     YY     -38.3471
        XZ      -0.6890     YZ       0.0000     ZZ     -39.2202

 Final energy is   -2520.34901787691
 **  OPTIMIZATION CONVERGED  **
 Total job time:  22.22s(wall), 253.93s(cpu)
        *  Thank you very much for using Q-Chem.  Have a nice day.  *
