 Q-Chem 5.1, Q-Chem, Inc., Pleasanton, CA (2018)
 Q-Chem 5.1.1 for Intel X86 EM64T Linux

User input:
--------------------------------------------------------------

$comment
potential surface scanner
$end

$rem
JOBTYPE  PES_SCAN
UNRESTRICTED TRUE
SYM_IGNORE  TRUE
GEOM_OPT_MAX_CYCLES 400
SCF_MAX_CYCLES 400
METHOD   B3LYP
BASIS   6-31G**
PDB_PRINT 2
SCF_CONVERGENCE 6
THRESH 14
SCF_PRINT 1
$end
$molecule
0 3
C -2.034066 1.300317 0.131096
C -1.397535 0.000000 -0.229837
Se 2.396859 0.000000 -0.023502
H 1.576623 0.000000 1.210025
C -2.034066 -1.300317 0.131096
H -1.346813 2.142812 0.004938
H -2.921144 1.516141 -0.491206
H -2.387285 1.299806 1.170972
H -0.619119 0.000000 -0.991785
H -2.921144 -1.516141 -0.491206
H -1.346813 -2.142812 0.004938
H -2.387285 -1.299806 1.170972
$end
$scan
stre 2 3 3.700000 3.701000 0.100000
$end
--------------------------------------------------------------

   10   -2520.3493624141      4.27e-07  Convergence criterion met
 Total energy in the final basis set =    -2520.3493624141
   10   -2520.3468386758      4.70e-07  Convergence criterion met
 Total energy in the final basis set =    -2520.3468386758
   10   -2520.3489531030      4.31e-07  Convergence criterion met
 Total energy in the final basis set =    -2520.3489531030
   10   -2520.3491885416      4.21e-07  Convergence criterion met
 Total energy in the final basis set =    -2520.3491885416
   10   -2520.3491974875      4.24e-07  Convergence criterion met
 Total energy in the final basis set =    -2520.3491974875
   10   -2520.3492016603      4.25e-07  Convergence criterion met
 Total energy in the final basis set =    -2520.3492016603
   10   -2520.3492081666      4.26e-07  Convergence criterion met
 Total energy in the final basis set =    -2520.3492081666
   10   -2520.3492114682      4.25e-07  Convergence criterion met
 Total energy in the final basis set =    -2520.3492114682
   10   -2520.3492127558      4.24e-07  Convergence criterion met
 Total energy in the final basis set =    -2520.3492127558

             Standard Nuclear Orientation (Angstroms)
    I     Atom           X                Y                Z
 ----------------------------------------------------------------
    1      C      -2.0160071090     1.3003832666     0.1332422716
    2      C      -1.3819637002     0.0000000000    -0.2319765465
    3      Se      2.3123655272     0.0000000000    -0.0272046664
    4      H       1.4924987374     0.0000000000     1.2062965001
    5      C      -2.0160071090    -1.3003832666     0.1332422716
    6      H      -1.3287561484     2.1424971921     0.0044747073
    7      H      -2.9058672097     1.5173681575    -0.4846751965
    8      H      -2.3641256178     1.2988046317     1.1747654624
    9      H      -0.6151763948     0.0000000000    -1.0062287768
   10      H      -2.9058672097    -1.5173681575    -0.4846751965
   11      H      -1.3287561484    -2.1424971921     0.0044747073
   12      H      -2.3641256178    -1.2988046317     1.1747654624
 ----------------------------------------------------------------

   10   -2520.3492132089      4.24e-07  Convergence criterion met
 Total energy in the final basis set =    -2520.3492132089

                    Orbital Energies (a.u.)
 --------------------------------------------------------------

 Alpha MOs
 -- Occupied --
******* -58.113 -52.172 -52.169 -52.166 -10.192 -10.180 -10.180
 -7.847  -5.795  -5.788  -5.776  -2.127  -2.127  -2.117  -2.113
 -2.111  -0.782  -0.707  -0.691  -0.572  -0.452  -0.429  -0.409
 -0.389  -0.386  -0.355  -0.350  -0.293  -0.252  -0.185

 Beta MOs
 -- Occupied --
******* -58.112 -52.169 -52.168 -52.165 -10.181 -10.181 -10.178
 -7.843  -5.787  -5.786  -5.775  -2.122  -2.121  -2.112  -2.112
 -2.109  -0.764  -0.688  -0.672  -0.550  -0.447  -0.411  -0.403
 -0.379  -0.379  -0.351  -0.344  -0.239

          Ground-State Mulliken Net Atomic Charges

     Atom                 Charge (a.u.)    Spin (a.u.)
  --------------------------------------------------------
      1 C                    -0.336379      -0.077860
      2 C                    -0.081169       1.017379
      3 Se                   -0.091130       1.024757
      4 H                     0.079580      -0.027797
      5 C                    -0.336379      -0.077860
      6 H                     0.115299       0.007940
      7 H                     0.112563       0.064247
      8 H                     0.108397       0.021723
      9 H                     0.092959      -0.046440
     10 H                     0.112563       0.064247
     11 H                     0.115299       0.007940
     12 H                     0.108397       0.021723
  --------------------------------------------------------
  Sum of atomic charges =    -0.000000

                    Cartesian Multipole Moments
 -----------------------------------------------------------------
    Charge (ESU x 10^10)
                -0.0000
    Dipole Moment (Debye)
         X      -0.8851      Y      -0.0000      Z       0.5153
       Tot       1.0242
    Quadrupole Moments (Debye-Ang)
        XX     -39.6822     XY      -0.0000     YY     -41.5435
        XZ       0.6905     YZ      -0.0000     ZZ     -37.9857

 Final energy is   -2520.34921320893
 **  OPTIMIZATION CONVERGED  **
 Total job time:  37.02s(wall), 430.71s(cpu)
        *  Thank you very much for using Q-Chem.  Have a nice day.  *
