 Q-Chem 5.1, Q-Chem, Inc., Pleasanton, CA (2018)
 Q-Chem 5.1.1 for Intel X86 EM64T Linux

User input:
--------------------------------------------------------------

$comment
potential surface scanner
$end

$rem
JOBTYPE  PES_SCAN
UNRESTRICTED TRUE
SYM_IGNORE  TRUE
GEOM_OPT_MAX_CYCLES 400
SCF_MAX_CYCLES 400
METHOD   B3LYP
BASIS   6-31G**
PDB_PRINT 2
SCF_CONVERGENCE 6
THRESH 14
SCF_PRINT 1
$end
$molecule
0 3
C -1.979079 1.302014 0.156606
C -1.314715 0.000000 -0.142569
Se 2.085094 0.000000 -0.178619
H 1.289904 0.000000 1.069435
C -1.979079 -1.302014 0.156606
H -1.278441 2.141106 0.098503
H -2.799568 1.521851 -0.549655
H -2.430479 1.300511 1.157360
H -0.506937 0.000000 -0.877371
H -2.799568 -1.521851 -0.549655
H -1.278441 -2.141106 0.098503
H -2.430479 -1.300511 1.157360
$end
$scan
stre 2 3 3.300000 3.301000 0.100000
$end
--------------------------------------------------------------

   10   -2520.3481167241      4.09e-07  Convergence criterion met
 Total energy in the final basis set =    -2520.3481167241
   10   -2520.3460103116      4.00e-07  Convergence criterion met
 Total energy in the final basis set =    -2520.3460103116
   10   -2520.3470270717      4.00e-07  Convergence criterion met
 Total energy in the final basis set =    -2520.3470270717
   10   -2520.3473247365      4.05e-07  Convergence criterion met
 Total energy in the final basis set =    -2520.3473247365
   10   -2520.3473307616      4.06e-07  Convergence criterion met
 Total energy in the final basis set =    -2520.3473307616
   10   -2520.3473333951      4.06e-07  Convergence criterion met
 Total energy in the final basis set =    -2520.3473333951
   10   -2520.3473391078      4.06e-07  Convergence criterion met
 Total energy in the final basis set =    -2520.3473391078
   10   -2520.3473418371      4.06e-07  Convergence criterion met
 Total energy in the final basis set =    -2520.3473418371
   10   -2520.3473429760      4.06e-07  Convergence criterion met
 Total energy in the final basis set =    -2520.3473429760

             Standard Nuclear Orientation (Angstroms)
    I     Atom           X                Y                Z
 ----------------------------------------------------------------
    1      C      -1.9623199532     1.3023867964     0.1570928155
    2      C      -1.3001349949     0.0000000000    -0.1448268629
    3      Se      1.9996680257     0.0000000000    -0.1808828961
    4      H       1.2127416375     0.0000000000     1.0715610042
    5      C      -1.9623199532    -1.3023867964     0.1570928155
    6      H      -1.2613172802     2.1408795694     0.0949803504
    7      H      -2.7868459709     1.5225436991    -0.5442634293
    8      H      -2.4077485362     1.3007749490     1.1605220660
    9      H      -0.4975991873     0.0000000000    -0.8860108504
   10      H      -2.7868459709    -1.5225436991    -0.5442634293
   11      H      -1.2613172802    -2.1408795694     0.0949803504
   12      H      -2.4077485362    -1.3007749490     1.1605220660
 ----------------------------------------------------------------

   10   -2520.3473432544      4.06e-07  Convergence criterion met
 Total energy in the final basis set =    -2520.3473432544

                    Orbital Energies (a.u.)
 --------------------------------------------------------------

 Alpha MOs
 -- Occupied --
******* -58.108 -52.168 -52.165 -52.162 -10.197 -10.183 -10.183
 -7.842  -5.790  -5.784  -5.772  -2.123  -2.122  -2.112  -2.109
 -2.106  -0.786  -0.704  -0.694  -0.576  -0.456  -0.432  -0.412
 -0.389  -0.386  -0.358  -0.357  -0.284  -0.249  -0.188

 Beta MOs
 -- Occupied --
******* -58.107 -52.164 -52.163 -52.161 -10.184 -10.184 -10.182
 -7.839  -5.782  -5.781  -5.771  -2.117  -2.117  -2.108  -2.107
 -2.104  -0.767  -0.691  -0.670  -0.553  -0.449  -0.414  -0.406
 -0.382  -0.375  -0.354  -0.347  -0.237

          Ground-State Mulliken Net Atomic Charges

     Atom                 Charge (a.u.)    Spin (a.u.)
  --------------------------------------------------------
      1 C                    -0.337026      -0.075517
      2 C                    -0.084340       1.028938
      3 Se                   -0.104945       1.004583
      4 H                     0.081520      -0.027138
      5 C                    -0.337026      -0.075517
      6 H                     0.119170       0.009415
      7 H                     0.114329       0.064638
      8 H                     0.110647       0.020644
      9 H                     0.093527      -0.044744
     10 H                     0.114329       0.064638
     11 H                     0.119170       0.009415
     12 H                     0.110647       0.020644
  --------------------------------------------------------
  Sum of atomic charges =    -0.000000

                    Cartesian Multipole Moments
 -----------------------------------------------------------------
    Charge (ESU x 10^10)
                -0.0000
    Dipole Moment (Debye)
         X      -1.1487      Y      -0.0000      Z       0.5208
       Tot       1.2612
    Quadrupole Moments (Debye-Ang)
        XX     -39.4459     XY      -0.0000     YY     -41.4012
        XZ       0.6609     YZ      -0.0000     ZZ     -38.2389

 Final energy is   -2520.34734325441
 **  OPTIMIZATION CONVERGED  **
 Total job time:  37.44s(wall), 436.38s(cpu)
        *  Thank you very much for using Q-Chem.  Have a nice day.  *
