 Q-Chem 5.1, Q-Chem, Inc., Pleasanton, CA (2018)
 Q-Chem 5.1.1 for Intel X86 EM64T Linux

User input:
--------------------------------------------------------------

$comment
potential surface scanner
$end

$rem
JOBTYPE  PES_SCAN
UNRESTRICTED TRUE
SYM_IGNORE  TRUE
GEOM_OPT_MAX_CYCLES 400
SCF_MAX_CYCLES 400
METHOD   B3LYP
BASIS   6-31G**
PDB_PRINT 2
SCF_CONVERGENCE 6
THRESH 14
SCF_PRINT 1
$end
$molecule
0 3
C -1.900007 1.302071 0.160850
C -1.225516 0.000000 -0.114266
Se 1.571619 0.000000 -0.240902
H 1.053698 -0.000000 1.133121
C -1.900007 -1.302071 0.160850
H -1.201348 2.142363 0.096764
H -2.718649 1.507151 -0.551257
H -2.353988 1.305858 1.160229
H -0.473601 0.000000 -0.914623
H -2.718649 -1.507151 -0.551257
H -1.201348 -2.142363 0.096764
H -2.353988 -1.305858 1.160229
$end
$scan
stre 2 3 2.700000 2.701000 0.100000
$end
--------------------------------------------------------------

   10   -2520.3361212358      4.12e-07  Convergence criterion met
 Total energy in the final basis set =    -2520.3361212358
   10   -2520.3308332395      4.24e-07  Convergence criterion met
 Total energy in the final basis set =    -2520.3308332395
   10   -2520.3309463748      4.26e-07  Convergence criterion met
 Total energy in the final basis set =    -2520.3309463748
   10   -2520.3309721073      4.27e-07  Convergence criterion met
 Total energy in the final basis set =    -2520.3309721073
   10   -2520.3309844583      4.28e-07  Convergence criterion met
 Total energy in the final basis set =    -2520.3309844583
   10   -2520.3309945645      4.30e-07  Convergence criterion met
 Total energy in the final basis set =    -2520.3309945645
   10   -2520.3309978007      4.30e-07  Convergence criterion met
 Total energy in the final basis set =    -2520.3309978007
   10   -2520.3310003838      4.30e-07  Convergence criterion met
 Total energy in the final basis set =    -2520.3310003838
   10   -2520.3310020129      4.30e-07  Convergence criterion met
 Total energy in the final basis set =    -2520.3310020129
   10   -2520.3310045372      4.29e-07  Convergence criterion met
 Total energy in the final basis set =    -2520.3310045372
   10   -2520.3310061718      4.29e-07  Convergence criterion met
 Total energy in the final basis set =    -2520.3310061718
   10   -2520.3310076346      4.29e-07  Convergence criterion met
 Total energy in the final basis set =    -2520.3310076346
   10   -2520.3310087286      4.30e-07  Convergence criterion met
 Total energy in the final basis set =    -2520.3310087286

             Standard Nuclear Orientation (Angstroms)
    I     Atom           X                Y                Z
 ----------------------------------------------------------------
    1      C      -1.8762436126     1.3016929984     0.1618354126
    2      C      -1.2114564648    -0.0000000131    -0.1382392778
    3      Se      1.4874709911     0.0000000115    -0.2143423209
    4      H       0.9502961097     0.0000000598     1.1520105535
    5      C      -1.8762436366    -1.3016930126     0.1618354072
    6      H      -1.1720656260     2.1381206012     0.1014952421
    7      H      -2.7010374928     1.5232669931    -0.5381693392
    8      H      -2.3188460146     1.2934912885     1.1660109219
    9      H      -0.5117090357    -0.0000000174    -0.9852714018
   10      H      -2.7010375190    -1.5232669926    -0.5381693462
   11      H      -1.1720656627    -2.1381206262     0.1014952313
   12      H      -2.3188460361    -1.2934913066     1.1660109174
 ----------------------------------------------------------------

   10   -2520.3310093092      4.30e-07  Convergence criterion met
 Total energy in the final basis set =    -2520.3310093092

                    Orbital Energies (a.u.)
 --------------------------------------------------------------

 Alpha MOs
 -- Occupied --
******* -58.094 -52.153 -52.151 -52.148 -10.204 -10.187 -10.187
 -7.828  -5.776  -5.770  -5.759  -2.109  -2.108  -2.099  -2.095
 -2.094  -0.797  -0.699  -0.699  -0.585  -0.466  -0.439  -0.418
 -0.394  -0.385  -0.366  -0.363  -0.262  -0.241  -0.185

 Beta MOs
 -- Occupied --
******* -58.093 -52.150 -52.149 -52.147 -10.188 -10.188 -10.188
 -7.825  -5.769  -5.767  -5.757  -2.104  -2.103  -2.094  -2.094
 -2.091  -0.776  -0.696  -0.668  -0.558  -0.455  -0.420  -0.411
 -0.387  -0.374  -0.358  -0.351  -0.228

          Ground-State Mulliken Net Atomic Charges

     Atom                 Charge (a.u.)    Spin (a.u.)
  --------------------------------------------------------
      1 C                    -0.335475      -0.069522
      2 C                    -0.108342       1.048455
      3 Se                   -0.131716       0.944007
      4 H                     0.074768      -0.020327
      5 C                    -0.335475      -0.069522
      6 H                     0.126898       0.012779
      7 H                     0.117175       0.063863
      8 H                     0.114585       0.019622
      9 H                     0.118924      -0.025620
     10 H                     0.117175       0.063863
     11 H                     0.126898       0.012779
     12 H                     0.114585       0.019622
  --------------------------------------------------------
  Sum of atomic charges =     0.000000

                    Cartesian Multipole Moments
 -----------------------------------------------------------------
    Charge (ESU x 10^10)
                 0.0000
    Dipole Moment (Debye)
         X      -1.7993      Y       0.0000      Z       0.4996
       Tot       1.8674
    Quadrupole Moments (Debye-Ang)
        XX     -39.6267     XY       0.0000     YY     -41.1594
        XZ       0.6330     YZ       0.0000     ZZ     -37.8464

 Final energy is   -2520.33100930921
 **  OPTIMIZATION CONVERGED  **
 Total job time:  54.31s(wall), 637.54s(cpu)
        *  Thank you very much for using Q-Chem.  Have a nice day.  *
