 Q-Chem 5.1, Q-Chem, Inc., Pleasanton, CA (2018)
 Q-Chem 5.1.1 for Intel X86 EM64T Linux

User input:
--------------------------------------------------------------

$comment
potential surface scanner
$end

$rem
JOBTYPE  PES_SCAN
UNRESTRICTED TRUE
SYM_IGNORE  TRUE
GEOM_OPT_MAX_CYCLES 400
SCF_MAX_CYCLES 400
METHOD   B3LYP
BASIS   6-31G**
PDB_PRINT 2
SCF_CONVERGENCE 6
THRESH 14
SCF_PRINT 1
$end
$molecule
0 3
C -1.678798 1.261529 0.090383
C -1.043548 -0.012915 -0.410444
Se 0.997376 -0.167830 0.396173
H 0.162968 0.279319 1.671714
C -1.724864 -1.284910 0.058803
H -1.241486 2.152475 -0.373199
H -2.761561 1.282972 -0.095518
H -1.545971 1.349454 1.182362
H -0.844885 -0.012260 -1.484156
H -2.774937 -1.317978 -0.266317
H -1.233790 -2.184490 -0.330057
H -1.732289 -1.345364 1.156761
$end
$scan
stre 2 3 2.100000 2.101000 0.100000
$end
--------------------------------------------------------------

   12   -2520.3049800378      6.17e-07  Convergence criterion met
 Total energy in the final basis set =    -2520.3049800378
   11   -2520.3007441807      7.82e-07  Convergence criterion met
 Total energy in the final basis set =    -2520.3007441807
   11   -2520.3010201830      8.95e-07  Convergence criterion met
 Total energy in the final basis set =    -2520.3010201830
   12   -2520.3049636655      4.09e-07  Convergence criterion met
 Total energy in the final basis set =    -2520.3049636655
   11   -2520.3090927724      7.61e-07  Convergence criterion met
 Total energy in the final basis set =    -2520.3090927724
   11   -2520.3122786855      4.80e-07  Convergence criterion met
 Total energy in the final basis set =    -2520.3122786855
   11   -2520.3146518316      3.55e-07  Convergence criterion met
 Total energy in the final basis set =    -2520.3146518316
   10   -2520.3155784402      9.02e-07  Convergence criterion met
   10   -2520.3166899544      7.05e-07  Convergence criterion met
 Total energy in the final basis set =    -2520.3166899544
   10   -2520.3167219386      7.09e-07  Convergence criterion met
 Total energy in the final basis set =    -2520.3167219386
   10   -2520.3167340671      7.12e-07  Convergence criterion met
 Total energy in the final basis set =    -2520.3167340671
   10   -2520.3167402059      7.15e-07  Convergence criterion met
 Total energy in the final basis set =    -2520.3167402059
   10   -2520.3167425100      7.17e-07  Convergence criterion met
 Total energy in the final basis set =    -2520.3167425100
   10   -2520.3167437634      7.19e-07  Convergence criterion met
 Total energy in the final basis set =    -2520.3167437634

             Standard Nuclear Orientation (Angstroms)
    I     Atom           X                Y                Z
 ----------------------------------------------------------------
    1      C      -1.6656049869     1.2790624505     0.0307982946
    2      C      -1.0455230017    -0.0159465856    -0.4773482535
    3      Se      0.9888835579    -0.0282083010     0.0432671245
    4      H       0.1609420108     0.0351264641     2.3727031456
    5      C      -1.6963873145    -1.2745325234     0.0807520168
    6      H      -1.1703844515     2.1632361511    -0.3809664541
    7      H      -2.7190985665     1.3148950579    -0.2773768831
    8      H      -1.6249451048     1.3324184237     1.1221407236
    9      H      -1.0194047063    -0.0373408167    -1.5682287770
   10      H      -2.7487447847    -1.3000401090    -0.2322149093
   11      H      -1.2189150217    -2.1858963038    -0.2905983482
   12      H      -1.6626026301    -1.2827719080     1.1735773201
 ----------------------------------------------------------------

   10   -2520.3167444776      7.20e-07  Convergence criterion met
 Total energy in the final basis set =    -2520.3167444776

                    Orbital Energies (a.u.)
 --------------------------------------------------------------

 Alpha MOs
 -- Occupied --
******* -58.107 -52.166 -52.164 -52.161 -10.241 -10.194 -10.194
 -7.841  -5.788  -5.781  -5.772  -2.120  -2.119  -2.112  -2.107
 -2.106  -0.811  -0.703  -0.684  -0.579  -0.469  -0.445  -0.423
 -0.400  -0.366  -0.362  -0.311  -0.295  -0.281  -0.196

 Beta MOs
 -- Occupied --
******* -58.106 -52.162 -52.162 -52.159 -10.241 -10.194 -10.193
 -7.836  -5.779  -5.779  -5.769  -2.114  -2.113  -2.106  -2.105
 -2.103  -0.808  -0.701  -0.651  -0.572  -0.468  -0.442  -0.420
 -0.399  -0.365  -0.361  -0.301  -0.238

          Ground-State Mulliken Net Atomic Charges

     Atom                 Charge (a.u.)    Spin (a.u.)
  --------------------------------------------------------
      1 C                    -0.319040       0.018218
      2 C                    -0.144738      -0.050139
      3 Se                    0.021150       1.162398
      4 H                    -0.116111       0.845862
      5 C                    -0.319024       0.018083
      6 H                     0.118291      -0.000541
      7 H                     0.114151       0.004757
      8 H                     0.137619      -0.002043
      9 H                     0.137511       0.001289
     10 H                     0.114270       0.004721
     11 H                     0.118398      -0.000557
     12 H                     0.137523      -0.002047
  --------------------------------------------------------
  Sum of atomic charges =     0.000000

                    Cartesian Multipole Moments
 -----------------------------------------------------------------
    Charge (ESU x 10^10)
                 0.0000
    Dipole Moment (Debye)
         X      -1.8318      Y      -0.0135      Z      -1.4859
       Tot       2.3587
    Quadrupole Moments (Debye-Ang)
        XX     -38.1497     XY       0.0550     YY     -37.9085
        XZ       0.7741     YZ      -0.1178     ZZ     -43.9855

 Final energy is   -2520.31674447762
 **  OPTIMIZATION CONVERGED  **
 Total job time:  80.05s(wall), 938.51s(cpu)
        *  Thank you very much for using Q-Chem.  Have a nice day.  *
