 Q-Chem 5.1, Q-Chem, Inc., Pleasanton, CA (2018)
 Q-Chem 5.1.1 for Intel X86 EM64T Linux

User input:
--------------------------------------------------------------

$comment
potential surface scanner
$end

$rem
JOBTYPE  PES_SCAN
UNRESTRICTED TRUE
SYM_IGNORE  TRUE
GEOM_OPT_MAX_CYCLES 400
SCF_MAX_CYCLES 400
METHOD   B3LYP
BASIS   6-31G**
PDB_PRINT 2
SCF_CONVERGENCE 6
THRESH 14
SCF_PRINT 1
$end
$molecule
0 3
C -1.818118 1.292818 0.153194
C -1.147900 -0.000003 -0.178617
Se 1.251594 -0.000004 -0.129334
H 0.723114 0.000026 1.243104
C -1.818123 -1.292822 0.153191
H -1.136758 2.142342 0.037432
H -2.694314 1.489497 -0.489535
H -2.191531 1.282913 1.185013
H -0.567127 -0.000003 -1.110843
H -2.694321 -1.489496 -0.489538
H -1.136767 -2.142348 0.037427
H -2.191536 -1.282918 1.185010
$end
$scan
stre 2 3 2.300000 2.301000 0.100000
$end
--------------------------------------------------------------

   10   -2520.3042215206      5.24e-07  Convergence criterion met
 Total energy in the final basis set =    -2520.3042215206
   10   -2520.2902521254      5.57e-07  Convergence criterion met
 Total energy in the final basis set =    -2520.2902521254
   10   -2520.2899499174      5.68e-07  Convergence criterion met
 Total energy in the final basis set =    -2520.2899499174
   10   -2520.2900513306      5.88e-07  Convergence criterion met
 Total energy in the final basis set =    -2520.2900513306
   10   -2520.2900564199      5.87e-07  Convergence criterion met
 Total energy in the final basis set =    -2520.2900564199
   10   -2520.2900611902      5.98e-07  Convergence criterion met
 Total energy in the final basis set =    -2520.2900611902
   10   -2520.2900639384      7.06e-07  Convergence criterion met
 Total energy in the final basis set =    -2520.2900639384
   13   -2520.2900756829      8.04e-07  Convergence criterion met
   12   -2520.3101620433      9.11e-07  Convergence criterion met
 Total energy in the final basis set =    -2520.3101620433
   12   -2520.3102646695      9.20e-07  Convergence criterion met
 Total energy in the final basis set =    -2520.3102646695
   12   -2520.3103708336      8.80e-07  Convergence criterion met
 Total energy in the final basis set =    -2520.3103708336
   12   -2520.3104305277      7.90e-07  Convergence criterion met
 Total energy in the final basis set =    -2520.3104305277
   12   -2520.3104496553      7.24e-07  Convergence criterion met
 Total energy in the final basis set =    -2520.3104496553
   12   -2520.3104520436      7.01e-07  Convergence criterion met
 Total energy in the final basis set =    -2520.3104520436

             Standard Nuclear Orientation (Angstroms)
    I     Atom           X                Y                Z
 ----------------------------------------------------------------
    1      C      -1.6973289270     1.2652292592     0.0844069437
    2      C      -1.0753374461    -0.0120080886    -0.4190939186
    3      Se      1.0514177534    -0.1721309562     0.4418790828
    4      H       0.2553172051     0.2760509197     1.6537396224
    5      C      -1.7340844672    -1.2874139640     0.0577546572
    6      H      -1.2230923874     2.1544455315    -0.3463811283
    7      H      -2.7738333321     1.3264470991    -0.1386870480
    8      H      -1.6090006602     1.3413142916     1.1815655745
    9      H      -0.8571660689    -0.0098719181    -1.4888816453
   10      H      -2.7893081788    -1.3456609054    -0.2538222771
   11      H      -1.2349432411    -2.1825334849    -0.3323952913
   12      H      -1.7344272497    -1.3538657840     1.1564194279
 ----------------------------------------------------------------

   12   -2520.3104525620      7.00e-07  Convergence criterion met
 Total energy in the final basis set =    -2520.3104525620

                    Orbital Energies (a.u.)
 --------------------------------------------------------------

 Alpha MOs
 -- Occupied --
******* -58.123 -52.182 -52.179 -52.178 -10.177 -10.175 -10.175
 -7.857  -5.805  -5.797  -5.790  -2.136  -2.136  -2.129  -2.124
 -2.124  -0.785  -0.711  -0.683  -0.564  -0.450  -0.428  -0.404
 -0.390  -0.377  -0.343  -0.338  -0.297  -0.294  -0.112

 Beta MOs
 -- Occupied --
******* -58.122 -52.178 -52.178 -52.175 -10.177 -10.175 -10.164
 -7.853  -5.796  -5.795  -5.786  -2.130  -2.130  -2.123  -2.122
 -2.120  -0.769  -0.681  -0.673  -0.549  -0.444  -0.416  -0.397
 -0.381  -0.364  -0.338  -0.333  -0.261

          Ground-State Mulliken Net Atomic Charges

     Atom                 Charge (a.u.)    Spin (a.u.)
  --------------------------------------------------------
      1 C                    -0.316070      -0.027531
      2 C                    -0.155448       0.605703
      3 Se                    0.070544       1.319416
      4 H                     0.036938       0.045894
      5 C                    -0.319375      -0.023807
      6 H                     0.101942       0.003875
      7 H                     0.105744       0.026850
      8 H                     0.083959       0.018446
      9 H                     0.089433      -0.020414
     10 H                     0.108358       0.033964
     11 H                     0.103472       0.005330
     12 H                     0.090504       0.012273
  --------------------------------------------------------
  Sum of atomic charges =     0.000000

                    Cartesian Multipole Moments
 -----------------------------------------------------------------
    Charge (ESU x 10^10)
                 0.0000
    Dipole Moment (Debye)
         X      -0.5310      Y       0.1141      Z       0.0522
       Tot       0.5456
    Quadrupole Moments (Debye-Ang)
        XX     -41.8849     XY       0.5036     YY     -38.9760
        XZ      -1.3791     YZ       0.1523     ZZ     -39.5513

 Final energy is   -2520.31045256196
 **  OPTIMIZATION CONVERGED  **
 Total job time:  119.68s(wall), 1348.50s(cpu)
        *  Thank you very much for using Q-Chem.  Have a nice day.  *
