 Q-Chem 5.1, Q-Chem, Inc., Pleasanton, CA (2018)
 Q-Chem 5.1.1 for Intel X86 EM64T Linux

User input:
--------------------------------------------------------------

$comment
potential surface scanner
$end

$rem
JOBTYPE  PES_SCAN
UNRESTRICTED TRUE
SYM_IGNORE  TRUE
GEOM_OPT_MAX_CYCLES 400
SCF_MAX_CYCLES 400
METHOD   B3LYP
BASIS   6-31G**
PDB_PRINT 2
SCF_CONVERGENCE 6
THRESH 14
SCF_PRINT 1
$end
$molecule
0 3
C -2.270067 1.299372 0.111725
C -1.580267 0.000000 -0.137636
Se 3.219732 0.000000 -0.140800
H 2.954219 0.000000 1.316086
C -2.270067 -1.299372 0.111725
H -1.571538 2.142256 0.104066
H -3.039523 1.516601 -0.651053
H -2.793659 1.300570 1.077576
H -0.665904 0.000000 -0.725782
H -3.039523 -1.516601 -0.651053
H -1.571538 -2.142256 0.104066
H -2.793659 -1.300570 1.077576
$end
$scan
stre 2 3 4.700000 4.701000 0.100000
$end
--------------------------------------------------------------

   10   -2520.3487192850      4.79e-07  Convergence criterion met
 Total energy in the final basis set =    -2520.3487192850
   10   -2520.3476728868      5.30e-07  Convergence criterion met
 Total energy in the final basis set =    -2520.3476728868
   10   -2520.3484868917      5.14e-07  Convergence criterion met
 Total energy in the final basis set =    -2520.3484868917
   10   -2520.3487113176      4.82e-07  Convergence criterion met
 Total energy in the final basis set =    -2520.3487113176
   10   -2520.3487147067      4.78e-07  Convergence criterion met
 Total energy in the final basis set =    -2520.3487147067

             Standard Nuclear Orientation (Angstroms)
    I     Atom           X                Y                Z
 ----------------------------------------------------------------
    1      C      -2.2500758402     1.2992673828     0.1114148724
    2      C      -1.5676471038     0.0000000000    -0.1578581229
    3      Se      3.1322265075     0.0000000000    -0.1233901124
    4      H       2.8624411810     0.0000000000     1.3327003880
    5      C      -2.2500758402    -1.2992673828     0.1114148724
    6      H      -1.5524799799     2.1424184441     0.0815890469
    7      H      -3.0428675564     1.5155853990    -0.6273784434
    8      H      -2.7437875034     1.3010620287     1.0929079705
    9      H      -0.6703928250     0.0000000000    -0.7720230455
   10      H      -3.0428675564    -1.5155853990    -0.6273784434
   11      H      -1.5524799799    -2.1424184441     0.0815890469
   12      H      -2.7437875034    -1.3010620287     1.0929079705
 ----------------------------------------------------------------

   10   -2520.3487154572      4.77e-07  Convergence criterion met
 Total energy in the final basis set =    -2520.3487154572

                    Orbital Energies (a.u.)
 --------------------------------------------------------------

 Alpha MOs
 -- Occupied --
******* -58.118 -52.178 -52.175 -52.171 -10.182 -10.174 -10.174
 -7.852  -5.800  -5.794  -5.781  -2.133  -2.132  -2.122  -2.118
 -2.116  -0.773  -0.712  -0.684  -0.563  -0.444  -0.422  -0.402
 -0.395  -0.379  -0.348  -0.341  -0.300  -0.256  -0.175

 Beta MOs
 -- Occupied --
******* -58.117 -52.174 -52.173 -52.171 -10.175 -10.175 -10.168
 -7.849  -5.792  -5.791  -5.780  -2.127  -2.127  -2.117  -2.117
 -2.114  -0.756  -0.682  -0.677  -0.542  -0.439  -0.404  -0.396
 -0.384  -0.373  -0.344  -0.336  -0.243

          Ground-State Mulliken Net Atomic Charges

     Atom                 Charge (a.u.)    Spin (a.u.)
  --------------------------------------------------------
      1 C                    -0.333989      -0.080010
      2 C                    -0.077819       1.017991
      3 Se                   -0.076320       1.028668
      4 H                     0.076548      -0.027565
      5 C                    -0.333989      -0.080010
      6 H                     0.108486       0.007205
      7 H                     0.108292       0.063227
      8 H                     0.105321       0.023294
      9 H                     0.101371      -0.046525
     10 H                     0.108292       0.063227
     11 H                     0.108486       0.007205
     12 H                     0.105321       0.023294
  --------------------------------------------------------
  Sum of atomic charges =     0.000000

                    Cartesian Multipole Moments
 -----------------------------------------------------------------
    Charge (ESU x 10^10)
                 0.0000
    Dipole Moment (Debye)
         X      -0.2349      Y      -0.0000      Z       0.5946
       Tot       0.6393
    Quadrupole Moments (Debye-Ang)
        XX     -42.2418     XY       0.0000     YY     -38.3539
        XZ       1.2798     YZ       0.0000     ZZ     -38.1735

 Final energy is   -2520.34871545715
 **  OPTIMIZATION CONVERGED  **
 Total job time:  20.53s(wall), 238.57s(cpu)
        *  Thank you very much for using Q-Chem.  Have a nice day.  *
