 Q-Chem 5.1, Q-Chem, Inc., Pleasanton, CA (2018)
 Q-Chem 5.1.1 for Intel X86 EM64T Linux

User input:
--------------------------------------------------------------

$comment
potential surface scanner
$end

$rem
JOBTYPE  PES_SCAN
UNRESTRICTED TRUE
SYM_IGNORE  TRUE
GEOM_OPT_MAX_CYCLES 400
SCF_MAX_CYCLES 400
METHOD   B3LYP
BASIS   6-31G**
PDB_PRINT 2
SCF_CONVERGENCE 6
THRESH 14
SCF_PRINT 1
$end
$molecule
0 3
C -2.250076 1.299267 0.111415
C -1.567647 0.000000 -0.157858
Se 3.132227 0.000000 -0.123390
H 2.862441 0.000000 1.332700
C -2.250076 -1.299267 0.111415
H -1.552480 2.142418 0.081589
H -3.042868 1.515585 -0.627378
H -2.743788 1.301062 1.092908
H -0.670393 0.000000 -0.772023
H -3.042868 -1.515585 -0.627378
H -1.552480 -2.142418 0.081589
H -2.743788 -1.301062 1.092908
$end
$scan
stre 2 3 4.600000 4.601000 0.100000
$end
--------------------------------------------------------------

   10   -2520.3487154574      4.77e-07  Convergence criterion met
 Total energy in the final basis set =    -2520.3487154574
   10   -2520.3477410800      5.32e-07  Convergence criterion met
 Total energy in the final basis set =    -2520.3477410800
   10   -2520.3484888073      5.10e-07  Convergence criterion met
 Total energy in the final basis set =    -2520.3484888073
   10   -2520.3486965598      4.79e-07  Convergence criterion met
 Total energy in the final basis set =    -2520.3486965598
   10   -2520.3487003249      4.75e-07  Convergence criterion met
 Total energy in the final basis set =    -2520.3487003249
   10   -2520.3487021903      4.73e-07  Convergence criterion met
 Total energy in the final basis set =    -2520.3487021903
   10   -2520.3487103162      4.70e-07  Convergence criterion met
 Total energy in the final basis set =    -2520.3487103162
   10   -2520.3487243914      4.67e-07  Convergence criterion met
 Total energy in the final basis set =    -2520.3487243914
   10   -2520.3487485714      4.65e-07  Convergence criterion met
 Total energy in the final basis set =    -2520.3487485714
   10   -2520.3487867443      4.64e-07  Convergence criterion met
 Total energy in the final basis set =    -2520.3487867443
   10   -2520.3488066189      4.67e-07  Convergence criterion met
 Total energy in the final basis set =    -2520.3488066189
   10   -2520.3488216300      4.79e-07  Convergence criterion met
 Total energy in the final basis set =    -2520.3488216300

             Standard Nuclear Orientation (Angstroms)
    I     Atom           X                Y                Z
 ----------------------------------------------------------------
    1      C      -2.2151748048     1.2988059009     0.1232166448
    2      C      -1.5168503362     0.0000000000    -0.1050696185
    3      Se      3.0826953504     0.0000000000    -0.1697185493
    4      H       2.5245841048     0.0000000000     1.1966778769
    5      C      -2.2151748109    -1.2988059005     0.1232166444
    6      H      -1.5205970801     2.1448386789     0.1167653912
    7      H      -2.9754990795     1.5043736463    -0.6517043629
    8      H      -2.7520764478     1.3071132016     1.0818947780
    9      H      -0.5855302684     0.0000000000    -0.6657376095
   10      H      -2.9754990861    -1.5043736437    -0.6517043637
   11      H      -1.5205970892    -2.1448386807     0.1167653900
   12      H      -2.7520764521    -1.3071132007     1.0818947786
 ----------------------------------------------------------------

   10   -2520.3488218124      4.79e-07  Convergence criterion met
 Total energy in the final basis set =    -2520.3488218124

                    Orbital Energies (a.u.)
 --------------------------------------------------------------

 Alpha MOs
 -- Occupied --
******* -58.118 -52.178 -52.175 -52.172 -10.183 -10.175 -10.175
 -7.852  -5.800  -5.794  -5.782  -2.133  -2.132  -2.122  -2.118
 -2.116  -0.774  -0.712  -0.685  -0.564  -0.445  -0.423  -0.403
 -0.395  -0.380  -0.349  -0.342  -0.300  -0.257  -0.176

 Beta MOs
 -- Occupied --
******* -58.117 -52.174 -52.173 -52.171 -10.176 -10.176 -10.169
 -7.849  -5.792  -5.791  -5.780  -2.128  -2.127  -2.117  -2.117
 -2.114  -0.757  -0.683  -0.678  -0.543  -0.440  -0.405  -0.397
 -0.384  -0.374  -0.345  -0.336  -0.244

          Ground-State Mulliken Net Atomic Charges

     Atom                 Charge (a.u.)    Spin (a.u.)
  --------------------------------------------------------
      1 C                    -0.333658      -0.079939
      2 C                    -0.083001       1.018018
      3 Se                   -0.076963       1.028601
      4 H                     0.077893      -0.027533
      5 C                    -0.333658      -0.079939
      6 H                     0.107903       0.006591
      7 H                     0.108994       0.062875
      8 H                     0.105685       0.024227
      9 H                     0.104221      -0.046595
     10 H                     0.108994       0.062875
     11 H                     0.107903       0.006591
     12 H                     0.105685       0.024227
  --------------------------------------------------------
  Sum of atomic charges =     0.000000

                    Cartesian Multipole Moments
 -----------------------------------------------------------------
    Charge (ESU x 10^10)
                 0.0000
    Dipole Moment (Debye)
         X      -0.3723      Y       0.0000      Z       0.5404
       Tot       0.6563
    Quadrupole Moments (Debye-Ang)
        XX     -42.5098     XY       0.0000     YY     -38.3453
        XZ       0.4356     YZ      -0.0000     ZZ     -38.7864

 Final energy is   -2520.34882181243
 **  OPTIMIZATION CONVERGED  **
 Total job time:  44.44s(wall), 520.01s(cpu)
        *  Thank you very much for using Q-Chem.  Have a nice day.  *
