 Q-Chem 5.1, Q-Chem, Inc., Pleasanton, CA (2018)
 Q-Chem 5.1.1 for Intel X86 EM64T Linux

User input:
--------------------------------------------------------------

$comment
potential surface scanner
$end

$rem
JOBTYPE  PES_SCAN
UNRESTRICTED TRUE
SYM_IGNORE  TRUE
GEOM_OPT_MAX_CYCLES 400
SCF_MAX_CYCLES 400
METHOD   B3LYP
BASIS   6-31G**
PDB_PRINT 2
SCF_CONVERGENCE 6
THRESH 14
SCF_PRINT 1
$end
$molecule
0 1
C -1.730200 1.249200 0.145700
C -1.070500 -0.000000 -0.441800
Se 0.838900 0.000000 0.000600
H 0.783300 0.000000 1.559600
C -1.730200 -1.249200 0.145700
H -1.260200 2.139200 -0.272800
H -2.792000 1.249200 -0.100300
H -1.608100 1.249200 1.228900
H -1.192500 -0.000000 -1.524900
H -2.792000 -1.249200 -0.100300
H -1.260200 -2.139200 -0.272800
H -1.608100 -1.249200 1.228900
$end
$scan
stre 2 3 2.900000 2.901000 0.100000
$end
--------------------------------------------------------------

    9   -2520.4375567929      9.33e-07  Convergence criterion met
 Total energy in the final basis set =    -2520.4375567929
    9   -2520.4399501100      7.59e-07  Convergence criterion met
 Total energy in the final basis set =    -2520.4399501100
    9   -2520.4342524656      7.20e-07  Convergence criterion met
 Total energy in the final basis set =    -2520.4342524656
    9   -2520.4246384084      6.84e-07  Convergence criterion met
 Total energy in the final basis set =    -2520.4246384084
   10   -2520.4142355437      2.83e-07  Convergence criterion met
 Total energy in the final basis set =    -2520.4142355437
   10   -2520.4041489087      6.53e-07  Convergence criterion met
 Total energy in the final basis set =    -2520.4041489087
   10   -2520.3945935373      7.56e-07  Convergence criterion met
 Total energy in the final basis set =    -2520.3945935373
   11   -2520.3885640912      2.33e-07  Convergence criterion met
   11   -2520.3894113421      2.54e-07  Convergence criterion met
 Total energy in the final basis set =    -2520.3894113421
   11   -2520.3895172139      2.58e-07  Convergence criterion met
 Total energy in the final basis set =    -2520.3895172139
   11   -2520.3895619994      2.57e-07  Convergence criterion met
 Total energy in the final basis set =    -2520.3895619994
   11   -2520.3895792938      2.55e-07  Convergence criterion met
 Total energy in the final basis set =    -2520.3895792938
   11   -2520.3895855909      2.53e-07  Convergence criterion met
 Total energy in the final basis set =    -2520.3895855909
   11   -2520.3895882601      2.52e-07  Convergence criterion met
 Total energy in the final basis set =    -2520.3895882601

             Standard Nuclear Orientation (Angstroms)
    I     Atom           X                Y                Z
 ----------------------------------------------------------------
    1      C      -1.8341115151     1.2926017890     0.1344924173
    2      C      -1.3718766812     0.0000000000    -0.4429636206
    3      Se      1.4796130694     0.0000000000     0.0852455176
    4      H       1.1872194894     0.0000000000     1.5355392923
    5      C      -1.8341115149    -1.2926017889     0.1344924174
    6      H      -1.2765614203     2.1411482165    -0.2634195411
    7      H      -2.8967873533     1.4297308307    -0.1347093505
    8      H      -1.7764201412     1.3012127582     1.2260798821
    9      H      -1.1489950187     0.0000000000    -1.5062080059
   10      H      -2.8967873531    -1.4297308307    -0.1347093503
   11      H      -1.2765614200    -2.1411482164    -0.2634195408
   12      H      -1.7764201410    -1.3012127579     1.2260798823
 ----------------------------------------------------------------

   11   -2520.3895891173      2.52e-07  Convergence criterion met
 Total energy in the final basis set =    -2520.3895891173

                    Orbital Energies (a.u.)
 --------------------------------------------------------------

 Alpha MOs
 -- Occupied --
******* -58.057 -52.114 -52.114 -52.111 -10.270 -10.208 -10.208
 -7.789  -5.733  -5.731  -5.721  -2.067  -2.067  -2.059  -2.057
 -2.055  -0.818  -0.721  -0.641  -0.597  -0.484  -0.454  -0.439
 -0.413  -0.385  -0.380  -0.341  -0.229  -0.201

 Beta MOs
 -- Occupied --
******* -58.057 -52.114 -52.114 -52.111 -10.270 -10.208 -10.208
 -7.789  -5.733  -5.731  -5.721  -2.067  -2.067  -2.059  -2.057
 -2.055  -0.818  -0.721  -0.641  -0.597  -0.484  -0.454  -0.439
 -0.413  -0.385  -0.380  -0.341  -0.229  -0.201

          Ground-State Mulliken Net Atomic Charges

     Atom                 Charge (a.u.)    Spin (a.u.)
  --------------------------------------------------------
      1 C                    -0.332031      -0.000000
      2 C                    -0.012111       0.000000
      3 Se                   -0.352514       0.000000
      4 H                     0.043768      -0.000000
      5 C                    -0.332031       0.000000
      6 H                     0.155640       0.000000
      7 H                     0.125139       0.000000
      8 H                     0.136402       0.000000
      9 H                     0.150558       0.000000
     10 H                     0.125139      -0.000000
     11 H                     0.155640       0.000000
     12 H                     0.136402      -0.000000
  --------------------------------------------------------
  Sum of atomic charges =    -0.000000

                    Cartesian Multipole Moments
 -----------------------------------------------------------------
    Charge (ESU x 10^10)
                 0.0000
    Dipole Moment (Debye)
         X      -4.6554      Y      -0.0000      Z       0.0173
       Tot       4.6554
    Quadrupole Moments (Debye-Ang)
        XX     -38.7103     XY      -0.0000     YY     -40.0374
        XZ       0.9135     YZ      -0.0000     ZZ     -36.6941

 Final energy is   -2520.38958911728
 **  OPTIMIZATION CONVERGED  **
 Total job time:  82.72s(wall), 812.24s(cpu)
        *  Thank you very much for using Q-Chem.  Have a nice day.  *
