 Q-Chem 5.1, Q-Chem, Inc., Pleasanton, CA (2018)
 Q-Chem 5.1.1 for Intel X86 EM64T Linux

User input:
--------------------------------------------------------------

$comment
potential surface scanner
$end

$rem
JOBTYPE  PES_SCAN
UNRESTRICTED TRUE
SYM_IGNORE  TRUE
GEOM_OPT_MAX_CYCLES 400
SCF_MAX_CYCLES 400
METHOD   B3LYP
BASIS   6-31G**
PDB_PRINT 2
SCF_CONVERGENCE 6
THRESH 14
SCF_PRINT 1
$end
$molecule
0 3
C -2.156341 1.298640 0.121292
C -1.479959 0.000000 -0.166251
Se 2.819727 0.000000 -0.114357
H 2.258061 0.000000 1.250562
C -2.156341 -1.298640 0.121292
H -1.464222 2.144375 0.057491
H -2.979240 1.506126 -0.586376
H -2.610932 1.305947 1.121676
H -0.598148 0.000000 -0.801624
H -2.979240 -1.506126 -0.586376
H -1.464222 -2.144375 0.057491
H -2.610932 -1.305947 1.121676
$end
$scan
stre 2 3 4.200000 4.201000 0.100000
$end
--------------------------------------------------------------

   10   -2520.3487674127      4.72e-07  Convergence criterion met
 Total energy in the final basis set =    -2520.3487674127
   10   -2520.3477801563      5.28e-07  Convergence criterion met
 Total energy in the final basis set =    -2520.3477801563
   10   -2520.3484910066      4.99e-07  Convergence criterion met
 Total energy in the final basis set =    -2520.3484910066
   10   -2520.3486879218      4.73e-07  Convergence criterion met
 Total energy in the final basis set =    -2520.3486879218
   10   -2520.3486910135      4.70e-07  Convergence criterion met
 Total energy in the final basis set =    -2520.3486910135
   10   -2520.3486924858      4.69e-07  Convergence criterion met
 Total energy in the final basis set =    -2520.3486924858
   10   -2520.3487137029      4.62e-07  Convergence criterion met
 Total energy in the final basis set =    -2520.3487137029
   10   -2520.3485409508      5.35e-07  Convergence criterion met
   10   -2520.3489750423      4.83e-07  Convergence criterion met
 Total energy in the final basis set =    -2520.3489750423
   10   -2520.3490491144      4.69e-07  Convergence criterion met
 Total energy in the final basis set =    -2520.3490491144
   10   -2520.3490936020      4.68e-07  Convergence criterion met
 Total energy in the final basis set =    -2520.3490936020
   10   -2520.3490956892      4.68e-07  Convergence criterion met
 Total energy in the final basis set =    -2520.3490956892
   10   -2520.3491018270      4.69e-07  Convergence criterion met
 Total energy in the final basis set =    -2520.3491018270
   10   -2520.3491043230      4.69e-07  Convergence criterion met
 Total energy in the final basis set =    -2520.3491043230

             Standard Nuclear Orientation (Angstroms)
    I     Atom           X                Y                Z
 ----------------------------------------------------------------
    1      C      -2.1114210949     1.2989063200     0.1296702443
    2      C      -1.4465397583     0.0000000000    -0.1825318595
    3      Se      2.7516066725     0.0000000000    -0.0577658778
    4      H       1.9157328489     0.0000000000     1.1662916863
    5      C      -2.1114211001    -1.2989063120     0.1296702463
    6      H      -1.4204015535     2.1438481364     0.0454589924
    7      H      -2.9553234625     1.5095085820    -0.5519777657
    8      H      -2.5347618830     1.3044989909     1.1434572097
    9      H      -0.5987727933     0.0000000000    -0.8627153111
   10      H      -2.9553234551    -1.5095085896    -0.5519777747
   11      H      -1.4204015498    -2.1438481228     0.0454589910
   12      H      -2.5347618710    -1.3044989953     1.1434572187
 ----------------------------------------------------------------

   10   -2520.3491051818      4.70e-07  Convergence criterion met
 Total energy in the final basis set =    -2520.3491051818

                    Orbital Energies (a.u.)
 --------------------------------------------------------------

 Alpha MOs
 -- Occupied --
******* -58.117 -52.176 -52.174 -52.170 -10.184 -10.176 -10.176
 -7.851  -5.799  -5.792  -5.780  -2.132  -2.131  -2.121  -2.117
 -2.115  -0.775  -0.710  -0.686  -0.565  -0.446  -0.424  -0.404
 -0.393  -0.381  -0.350  -0.343  -0.299  -0.255  -0.178

 Beta MOs
 -- Occupied --
******* -58.116 -52.173 -52.172 -52.169 -10.177 -10.177 -10.170
 -7.847  -5.791  -5.790  -5.779  -2.126  -2.126  -2.116  -2.116
 -2.113  -0.758  -0.684  -0.676  -0.544  -0.442  -0.407  -0.398
 -0.383  -0.375  -0.346  -0.338  -0.242

          Ground-State Mulliken Net Atomic Charges

     Atom                 Charge (a.u.)    Spin (a.u.)
  --------------------------------------------------------
      1 C                    -0.334520      -0.079389
      2 C                    -0.084244       1.014444
      3 Se                   -0.079543       1.031489
      4 H                     0.079617      -0.028099
      5 C                    -0.334520      -0.079389
      6 H                     0.108237       0.006941
      7 H                     0.109839       0.063476
      8 H                     0.105450       0.023135
      9 H                     0.106158      -0.046160
     10 H                     0.109839       0.063476
     11 H                     0.108237       0.006941
     12 H                     0.105450       0.023135
  --------------------------------------------------------
  Sum of atomic charges =    -0.000000

                    Cartesian Multipole Moments
 -----------------------------------------------------------------
    Charge (ESU x 10^10)
                -0.0000
    Dipole Moment (Debye)
         X      -0.5775      Y      -0.0000      Z       0.4586
       Tot       0.7375
    Quadrupole Moments (Debye-Ang)
        XX     -42.4409     XY       0.0000     YY     -38.3414
        XZ      -0.5979     YZ       0.0000     ZZ     -39.2564

 Final energy is   -2520.34910518179
 **  OPTIMIZATION CONVERGED  **
 Total job time:  53.17s(wall), 616.24s(cpu)
        *  Thank you very much for using Q-Chem.  Have a nice day.  *
