 Q-Chem 5.1, Q-Chem, Inc., Pleasanton, CA (2018)
 Q-Chem 5.1.1 for Intel X86 EM64T Linux

User input:
--------------------------------------------------------------

$comment
potential surface scanner
$end

$rem
JOBTYPE  PES_SCAN
UNRESTRICTED TRUE
SYM_IGNORE  TRUE
GEOM_OPT_MAX_CYCLES 400
SCF_MAX_CYCLES 400
METHOD   B3LYP
BASIS   6-31G**
PDB_PRINT 2
SCF_CONVERGENCE 6
THRESH 14
SCF_PRINT 1
$end
$molecule
0 3
C -2.176721 1.298565 0.121884
C -1.491861 0.000000 -0.145361
Se 2.908124 0.000000 -0.133586
H 2.352664 0.000000 1.233730
C -2.176721 -1.298565 0.121884
H -1.483666 2.144728 0.077115
H -2.979139 1.504682 -0.609269
H -2.659552 1.306326 1.108918
H -0.592561 0.000000 -0.755582
H -2.979139 -1.504682 -0.609269
H -1.483666 -2.144728 0.077115
H -2.659552 -1.306326 1.108918
$end
$scan
stre 2 3 4.300000 4.301000 0.100000
$end
--------------------------------------------------------------

   10   -2520.3488106864      4.75e-07  Convergence criterion met
 Total energy in the final basis set =    -2520.3488106864
   10   -2520.3477706435      5.32e-07  Convergence criterion met
 Total energy in the final basis set =    -2520.3477706435
   10   -2520.3485492161      5.05e-07  Convergence criterion met
 Total energy in the final basis set =    -2520.3485492161
   10   -2520.3487643514      4.76e-07  Convergence criterion met
 Total energy in the final basis set =    -2520.3487643514
   10   -2520.3487671058      4.73e-07  Convergence criterion met
 Total energy in the final basis set =    -2520.3487671058

             Standard Nuclear Orientation (Angstroms)
    I     Atom           X                Y                Z
 ----------------------------------------------------------------
    1      C      -2.1563411899     1.2986396282     0.1212922705
    2      C      -1.4799594811     0.0000000000    -0.1662509072
    3      Se      2.8197273688     0.0000000000    -0.1143568083
    4      H       2.2580613551     0.0000000000     1.2505617491
    5      C      -2.1563411899    -1.2986396282     0.1212922705
    6      H      -1.4642222639     2.1443752650     0.0574913195
    7      H      -2.9792400730     1.5061256579    -0.5863756930
    8      H      -2.6109319094     1.3059474573     1.1216758120
    9      H      -0.5981483704     0.0000000000    -0.8016244518
   10      H      -2.9792400730    -1.5061256579    -0.5863756930
   11      H      -1.4642222639    -2.1443752650     0.0574913195
   12      H      -2.6109319094    -1.3059474573     1.1216758120
 ----------------------------------------------------------------

   10   -2520.3487674131      4.72e-07  Convergence criterion met
 Total energy in the final basis set =    -2520.3487674131

                    Orbital Energies (a.u.)
 --------------------------------------------------------------

 Alpha MOs
 -- Occupied --
******* -58.118 -52.177 -52.174 -52.171 -10.182 -10.175 -10.175
 -7.851  -5.800  -5.793  -5.781  -2.132  -2.131  -2.122  -2.117
 -2.116  -0.774  -0.712  -0.685  -0.564  -0.445  -0.422  -0.402
 -0.395  -0.380  -0.348  -0.342  -0.300  -0.256  -0.176

 Beta MOs
 -- Occupied --
******* -58.117 -52.173 -52.173 -52.170 -10.175 -10.175 -10.168
 -7.848  -5.792  -5.791  -5.780  -2.127  -2.126  -2.117  -2.116
 -2.113  -0.757  -0.682  -0.677  -0.542  -0.440  -0.405  -0.397
 -0.384  -0.373  -0.345  -0.336  -0.243

          Ground-State Mulliken Net Atomic Charges

     Atom                 Charge (a.u.)    Spin (a.u.)
  --------------------------------------------------------
      1 C                    -0.334292      -0.079798
      2 C                    -0.082202       1.016112
      3 Se                   -0.078150       1.030263
      4 H                     0.078487      -0.027713
      5 C                    -0.334292      -0.079798
      6 H                     0.107929       0.006586
      7 H                     0.108822       0.062985
      8 H                     0.105098       0.024222
      9 H                     0.106751      -0.046653
     10 H                     0.108822       0.062985
     11 H                     0.107929       0.006586
     12 H                     0.105098       0.024222
  --------------------------------------------------------
  Sum of atomic charges =    -0.000000

                    Cartesian Multipole Moments
 -----------------------------------------------------------------
    Charge (ESU x 10^10)
                -0.0000
    Dipole Moment (Debye)
         X      -0.3906      Y      -0.0000      Z       0.5435
       Tot       0.6693
    Quadrupole Moments (Debye-Ang)
        XX     -42.5359     XY      -0.0000     YY     -38.3653
        XZ       0.1845     YZ      -0.0000     ZZ     -38.6253

 Final energy is   -2520.34876741311
 **  OPTIMIZATION CONVERGED  **
 Total job time:  21.10s(wall), 244.93s(cpu)
        *  Thank you very much for using Q-Chem.  Have a nice day.  *
