 Q-Chem 5.1, Q-Chem, Inc., Pleasanton, CA (2018)
 Q-Chem 5.1.1 for Intel X86 EM64T Linux

User input:
--------------------------------------------------------------

$comment
potential surface scanner
$end

$rem
JOBTYPE  PES_SCAN
UNRESTRICTED TRUE
SYM_IGNORE  TRUE
GEOM_OPT_MAX_CYCLES 400
SCF_MAX_CYCLES 400
METHOD   B3LYP
BASIS   6-31G**
PDB_PRINT 2
SCF_CONVERGENCE 6
THRESH 14
SCF_PRINT 1
$end
$molecule
0 3
C -2.393357 1.299326 0.095370
C -1.692992 0.000000 -0.122336
Se 3.706969 0.000000 -0.101950
H 3.666488 0.000000 1.378092
C -2.393357 -1.299326 0.095370
H -1.697206 2.143996 0.103670
H -3.139590 1.507905 -0.692338
H -2.946886 1.306216 1.044549
H -0.748182 0.000000 -0.659811
H -3.139590 -1.507905 -0.692338
H -1.697206 -2.143996 0.103670
H -2.946886 -1.306216 1.044549
$end
$scan
stre 2 3 5.300000 5.301000 0.100000
$end
--------------------------------------------------------------

   10   -2520.3486372728      4.78e-07  Convergence criterion met
 Total energy in the final basis set =    -2520.3486372728
   10   -2520.3474843526      5.13e-07  Convergence criterion met
 Total energy in the final basis set =    -2520.3474843526
   10   -2520.3483869802      5.18e-07  Convergence criterion met
 Total energy in the final basis set =    -2520.3483869802
   10   -2520.3486324949      4.83e-07  Convergence criterion met
 Total energy in the final basis set =    -2520.3486324949
   10   -2520.3486363846      4.78e-07  Convergence criterion met
 Total energy in the final basis set =    -2520.3486363846

             Standard Nuclear Orientation (Angstroms)
    I     Atom           X                Y                Z
 ----------------------------------------------------------------
    1      C      -2.3740652604     1.2992838291     0.0958678809
    2      C      -1.6801450561     0.0000000000    -0.1416810281
    3      Se      3.6195806645     0.0000000000    -0.0877616946
    4      H       3.5802451504     0.0000000000     1.3923179408
    5      C      -2.3740652604    -1.2992838291     0.0958678809
    6      H      -1.6781041745     2.1440501420     0.0830989079
    7      H      -3.1433802343     1.5073470183    -0.6694851869
    8      H      -2.8993127502     1.3065564885     1.0609821620
    9      H      -0.7517509199     0.0000000000    -0.7073057459
   10      H      -3.1433802343    -1.5073470183    -0.6694851869
   11      H      -1.6781041745    -2.1440501420     0.0830989079
   12      H      -2.8993127502    -1.3065564885     1.0609821620
 ----------------------------------------------------------------

   10   -2520.3486370801      4.77e-07  Convergence criterion met
 Total energy in the final basis set =    -2520.3486370801

                    Orbital Energies (a.u.)
 --------------------------------------------------------------

 Alpha MOs
 -- Occupied --
******* -58.118 -52.178 -52.175 -52.172 -10.182 -10.174 -10.174
 -7.852  -5.800  -5.794  -5.782  -2.133  -2.132  -2.122  -2.118
 -2.116  -0.773  -0.712  -0.684  -0.564  -0.444  -0.422  -0.402
 -0.395  -0.379  -0.348  -0.341  -0.300  -0.257  -0.175

 Beta MOs
 -- Occupied --
******* -58.117 -52.174 -52.173 -52.171 -10.175 -10.175 -10.168
 -7.849  -5.792  -5.792  -5.780  -2.127  -2.127  -2.117  -2.117
 -2.114  -0.756  -0.682  -0.677  -0.542  -0.440  -0.405  -0.396
 -0.384  -0.373  -0.344  -0.336  -0.244

          Ground-State Mulliken Net Atomic Charges

     Atom                 Charge (a.u.)    Spin (a.u.)
  --------------------------------------------------------
      1 C                    -0.333739      -0.080267
      2 C                    -0.074685       1.019235
      3 Se                   -0.075347       1.027693
      4 H                     0.075649      -0.027502
      5 C                    -0.333739      -0.080267
      6 H                     0.108774       0.006677
      7 H                     0.108200       0.062746
      8 H                     0.106058       0.024468
      9 H                     0.095797      -0.046676
     10 H                     0.108200       0.062746
     11 H                     0.108774       0.006677
     12 H                     0.106058       0.024468
  --------------------------------------------------------
  Sum of atomic charges =     0.000000

                    Cartesian Multipole Moments
 -----------------------------------------------------------------
    Charge (ESU x 10^10)
                 0.0000
    Dipole Moment (Debye)
         X      -0.1236      Y      -0.0000      Z       0.6179
       Tot       0.6301
    Quadrupole Moments (Debye-Ang)
        XX     -41.6038     XY       0.0000     YY     -38.3316
        XZ       2.3583     YZ       0.0000     ZZ     -38.0314

 Final energy is   -2520.34863708010
 **  OPTIMIZATION CONVERGED  **
 Total job time:  20.61s(wall), 233.87s(cpu)
        *  Thank you very much for using Q-Chem.  Have a nice day.  *
