 Q-Chem 5.1, Q-Chem, Inc., Pleasanton, CA (2018)
 Q-Chem 5.1.1 for Intel X86 EM64T Linux

User input:
--------------------------------------------------------------

$comment
potential surface scanner
$end

$rem
JOBTYPE  PES_SCAN
UNRESTRICTED TRUE
SYM_IGNORE  TRUE
GEOM_OPT_MAX_CYCLES 400
SCF_MAX_CYCLES 400
METHOD   B3LYP
BASIS   6-31G**
PDB_PRINT 2
SCF_CONVERGENCE 6
THRESH 14
SCF_PRINT 1
$end
$molecule
0 1
F 1.699219 0.684854 0.554819
F -1.694676 0.622784 -0.433608
C -0.014724 -1.007651 -0.025990
C 1.077298 -0.177902 -0.640532
C -1.114404 -0.147359 0.575704
H -0.440057 -1.656909 -0.803169
H 0.407954 -1.656695 0.748429
H 1.921711 -0.744965 -1.028835
H 0.716209 0.568778 -1.345453
H -0.690875 0.527893 1.324221
H -1.896953 -0.764032 1.031614
$end
$scan
stre 1 4 1.700000 1.701000 0.100000
$end
--------------------------------------------------------------

    9    -317.5901310735      8.63e-07  Convergence criterion met
 Total energy in the final basis set =     -317.5901310735
   10    -317.5763712207      1.35e-07  Convergence criterion met
 Total energy in the final basis set =     -317.5763712207
   10    -317.5762398730      1.36e-07  Convergence criterion met
 Total energy in the final basis set =     -317.5762398730
   10    -317.5763403964      1.37e-07  Convergence criterion met
 Total energy in the final basis set =     -317.5763403964
   10    -317.5763429209      1.37e-07  Convergence criterion met
 Total energy in the final basis set =     -317.5763429209

             Standard Nuclear Orientation (Angstroms)
    I     Atom           X                Y                Z
 ----------------------------------------------------------------
    1      F       1.7072364304     0.7111231053     0.6143664628
    2      F      -1.6996748359     0.6135610656    -0.4397402722
    3      C      -0.0205658038    -1.0160229837    -0.0330012497
    4      C       1.0597026163    -0.1981648239    -0.6677781432
    5      C      -1.1107453174    -0.1457191884     0.5726607861
    6      H      -0.4562192100    -1.6696456920    -0.8021623870
    7      H       0.4107980707    -1.6611313058     0.7391610280
    8      H       1.9281407503    -0.7418847764    -1.0300690996
    9      H       0.7118856701     0.5764363618    -1.3460066370
   10      H      -0.6705513569     0.5353642670     1.3052280609
   11      H      -1.8893050137    -0.7551200295     1.0445414510
 ----------------------------------------------------------------

   10    -317.5763433050      1.37e-07  Convergence criterion met
 Total energy in the final basis set =     -317.5763433050

                    Orbital Energies (a.u.)
 --------------------------------------------------------------

 Alpha MOs
 -- Occupied --
-24.674 -24.629 -10.276 -10.263 -10.212  -1.180  -1.077  -0.809
 -0.697  -0.607  -0.508  -0.502  -0.477  -0.437  -0.425  -0.405
 -0.373  -0.338  -0.336  -0.320  -0.316

 Beta MOs
 -- Occupied --
-24.674 -24.629 -10.276 -10.263 -10.212  -1.180  -1.077  -0.809
 -0.697  -0.607  -0.508  -0.502  -0.477  -0.437  -0.425  -0.405
 -0.373  -0.338  -0.336  -0.320  -0.316

          Ground-State Mulliken Net Atomic Charges

     Atom                 Charge (a.u.)    Spin (a.u.)
  --------------------------------------------------------
      1 F                    -0.382296       0.000000
      2 F                    -0.326641      -0.000000
      3 C                    -0.237193      -0.000000
      4 C                     0.056242       0.000000
      5 C                     0.133883      -0.000000
      6 H                     0.121508       0.000000
      7 H                     0.128801       0.000000
      8 H                     0.133895       0.000000
      9 H                     0.150477       0.000000
     10 H                     0.127365       0.000000
     11 H                     0.093960      -0.000000
  --------------------------------------------------------
  Sum of atomic charges =    -0.000000

                    Cartesian Multipole Moments
 -----------------------------------------------------------------
    Charge (ESU x 10^10)
                -0.0000
    Dipole Moment (Debye)
         X      -0.4739      Y      -2.5457      Z      -0.8138
       Tot       2.7143
    Quadrupole Moments (Debye-Ang)
        XX     -33.0458     XY      -0.9454     YY     -28.7404
        XZ      -4.5902     YZ      -0.3006     ZZ     -27.4115

 Final energy is   -317.576343305023
 **  OPTIMIZATION CONVERGED  **
 Total job time:  19.22s(wall), 218.01s(cpu)
        *  Thank you very much for using Q-Chem.  Have a nice day.  *
