 Q-Chem 5.1, Q-Chem, Inc., Pleasanton, CA (2018)
 Q-Chem 5.1.1 for Intel X86 EM64T Linux

User input:
--------------------------------------------------------------

$comment
potential surface scanner
$end

$rem
JOBTYPE  PES_SCAN
UNRESTRICTED TRUE
SYM_IGNORE  TRUE
GEOM_OPT_MAX_CYCLES 400
SCF_MAX_CYCLES 400
METHOD   B3LYP
BASIS   6-31G**
PDB_PRINT 2
SCF_CONVERGENCE 6
THRESH 14
SCF_PRINT 1
$end
$molecule
0 1
F 1.653000 0.625500 0.402200
F -1.644300 0.642100 -0.389000
C -0.000400 -0.990500 -0.008200
C 1.108500 -0.129500 -0.588600
C -1.116800 -0.147700 0.583700
H -0.406500 -1.626400 -0.802200
H 0.409700 -1.637700 0.774300
H 1.902400 -0.751100 -1.012100
H 0.736700 0.544900 -1.365600
H -0.753700 0.499900 1.387100
H -1.917900 -0.780700 0.975600
$end
$scan
stre 1 4 1.200000 1.201000 0.100000
$end
--------------------------------------------------------------

    9    -317.6039561489      1.85e-07  Convergence criterion met
 Total energy in the final basis set =     -317.6039561489
    9    -317.5820704125      2.73e-07  Convergence criterion met
 Total energy in the final basis set =     -317.5820704125
    9    -317.5710905386      2.21e-07  Convergence criterion met
 Total energy in the final basis set =     -317.5710905386
    9    -317.5717441426      2.08e-07  Convergence criterion met
 Total energy in the final basis set =     -317.5717441426
    9    -317.5724798834      1.97e-07  Convergence criterion met
 Total energy in the final basis set =     -317.5724798834
    9    -317.5725119484      1.97e-07  Convergence criterion met
 Total energy in the final basis set =     -317.5725119484
    9    -317.5725505210      1.98e-07  Convergence criterion met
 Total energy in the final basis set =     -317.5725505210
    9    -317.5725519699      1.98e-07  Convergence criterion met
 Total energy in the final basis set =     -317.5725519699

             Standard Nuclear Orientation (Angstroms)
    I     Atom           X                Y                Z
 ----------------------------------------------------------------
    1      F       1.6454847545     0.5991383704     0.3150999110
    2      F      -1.6601172780     0.6816072753    -0.3922915096
    3      C       0.0092653317    -0.9738588580     0.0028828371
    4      C       1.1533875727    -0.0879507353    -0.5368090809
    5      C      -1.1271655944    -0.1541510800     0.5906219651
    6      H      -0.3693372709    -1.6056271839    -0.8080474945
    7      H       0.3988190190    -1.6384644255     0.7861112338
    8      H       1.8940251368    -0.7646348192    -1.0141108037
    9      H       0.7289612080     0.5117718274    -1.3670446175
   10      H      -0.7703365125     0.4771452770     1.4138446838
   11      H      -1.9322863669    -0.7961756483     0.9669428755
 ----------------------------------------------------------------

    9    -317.5725543265      1.99e-07  Convergence criterion met
 Total energy in the final basis set =     -317.5725543265

                    Orbital Energies (a.u.)
 --------------------------------------------------------------

 Alpha MOs
 -- Occupied --
-24.704 -24.667 -10.257 -10.255 -10.189  -1.287  -1.172  -0.784
 -0.687  -0.611  -0.541  -0.536  -0.509  -0.484  -0.461  -0.436
 -0.390  -0.344  -0.332  -0.309  -0.305

 Beta MOs
 -- Occupied --
-24.704 -24.667 -10.257 -10.255 -10.189  -1.287  -1.172  -0.784
 -0.687  -0.611  -0.541  -0.536  -0.509  -0.484  -0.461  -0.436
 -0.390  -0.344  -0.332  -0.309  -0.305

          Ground-State Mulliken Net Atomic Charges

     Atom                 Charge (a.u.)    Spin (a.u.)
  --------------------------------------------------------
      1 F                    -0.185874      -0.000000
      2 F                    -0.326132      -0.000000
      3 C                    -0.272645      -0.000000
      4 C                     0.130091       0.000000
      5 C                     0.135472       0.000000
      6 H                     0.107688       0.000000
      7 H                     0.100471      -0.000000
      8 H                     0.050130      -0.000000
      9 H                     0.068251      -0.000000
     10 H                     0.098577       0.000000
     11 H                     0.093971      -0.000000
  --------------------------------------------------------
  Sum of atomic charges =     0.000000

                    Cartesian Multipole Moments
 -----------------------------------------------------------------
    Charge (ESU x 10^10)
                 0.0000
    Dipole Moment (Debye)
         X       0.3831      Y      -1.4820      Z       0.5579
       Tot       1.6292
    Quadrupole Moments (Debye-Ang)
        XX     -31.3966     XY       0.9178     YY     -29.2997
        XZ      -2.2541     YZ       0.1212     ZZ     -28.2037

 Final energy is   -317.572554326501
 **  OPTIMIZATION CONVERGED  **
 Total job time:  27.24s(wall), 310.64s(cpu)
        *  Thank you very much for using Q-Chem.  Have a nice day.  *
