 Q-Chem 5.1, Q-Chem, Inc., Pleasanton, CA (2018)
 Q-Chem 5.1.1 for Intel X86 EM64T Linux

User input:
--------------------------------------------------------------

$comment
potential surface scanner
$end

$rem
JOBTYPE  PES_SCAN
UNRESTRICTED TRUE
SYM_IGNORE  TRUE
GEOM_OPT_MAX_CYCLES 400
SCF_MAX_CYCLES 400
METHOD   B3LYP
BASIS   6-31G**
PDB_PRINT 2
SCF_CONVERGENCE 6
THRESH 14
SCF_PRINT 1
$end
$molecule
0 1
F 1.679199 0.634854 0.437913
F -1.683675 0.643328 -0.419120
C -0.002225 -0.990040 -0.012095
C 1.114766 -0.134980 -0.586182
C -1.121007 -0.150382 0.582089
H -0.406635 -1.629446 -0.806125
H 0.402767 -1.648523 0.765777
H 1.906171 -0.752968 -1.024964
H 0.723938 0.547458 -1.347924
H -0.731347 0.510863 1.363130
H -1.911250 -0.781366 1.004701
$end
$scan
stre 1 4 1.500000 1.501000 0.100000
$end
--------------------------------------------------------------

    9    -317.6060250090      2.12e-07  Convergence criterion met
 Total energy in the final basis set =     -317.6060250090
    9    -317.6006689830      7.81e-07  Convergence criterion met
 Total energy in the final basis set =     -317.6006689830
    9    -317.6009849351      7.73e-07  Convergence criterion met
 Total energy in the final basis set =     -317.6009849351
    9    -317.6010624593      7.70e-07  Convergence criterion met
 Total energy in the final basis set =     -317.6010624593
    9    -317.6010652309      7.73e-07  Convergence criterion met
 Total energy in the final basis set =     -317.6010652309

             Standard Nuclear Orientation (Angstroms)
    I     Atom           X                Y                Z
 ----------------------------------------------------------------
    1      F       1.6897512006     0.6589959813     0.4963873221
    2      F      -1.6892171416     0.6325892718    -0.4269800665
    3      C      -0.0085351199    -0.9990297577    -0.0190546415
    4      C       1.0955480950    -0.1567916448    -0.6133030848
    5      C      -1.1177234680    -0.1488760774     0.5787607122
    6      H      -0.4236225160    -1.6437151232    -0.8042865084
    7      H       0.4055078308    -1.6523874872     0.7573087254
    8      H       1.9141672605    -0.7484526922    -1.0273440754
    9      H       0.7199953248     0.5592472215    -1.3459009053
   10      H      -0.7109727040     0.5198803145     1.3432998488
   11      H      -1.9041967622    -0.7726620067     1.0183126733
 ----------------------------------------------------------------

    9    -317.6010656379      7.73e-07  Convergence criterion met
 Total energy in the final basis set =     -317.6010656379

                    Orbital Energies (a.u.)
 --------------------------------------------------------------

 Alpha MOs
 -- Occupied --
-24.672 -24.655 -10.265 -10.261 -10.204  -1.177  -1.134  -0.799
 -0.692  -0.604  -0.506  -0.502  -0.475  -0.457  -0.429  -0.416
 -0.388  -0.344  -0.339  -0.325  -0.323

 Beta MOs
 -- Occupied --
-24.672 -24.655 -10.265 -10.261 -10.204  -1.177  -1.134  -0.799
 -0.692  -0.604  -0.506  -0.502  -0.475  -0.457  -0.429  -0.416
 -0.388  -0.344  -0.339  -0.325  -0.323

          Ground-State Mulliken Net Atomic Charges

     Atom                 Charge (a.u.)    Spin (a.u.)
  --------------------------------------------------------
      1 F                    -0.357941      -0.000000
      2 F                    -0.326642       0.000000
      3 C                    -0.243853       0.000000
      4 C                     0.113318      -0.000000
      5 C                     0.135258      -0.000000
      6 H                     0.115001       0.000000
      7 H                     0.118048       0.000000
      8 H                     0.109994       0.000000
      9 H                     0.126786       0.000000
     10 H                     0.116401       0.000000
     11 H                     0.093630       0.000000
  --------------------------------------------------------
  Sum of atomic charges =    -0.000000

                    Cartesian Multipole Moments
 -----------------------------------------------------------------
    Charge (ESU x 10^10)
                -0.0000
    Dipole Moment (Debye)
         X      -0.1757      Y      -2.1578      Z      -0.3026
       Tot       2.1860
    Quadrupole Moments (Debye-Ang)
        XX     -32.5125     XY      -0.3216     YY     -28.9065
        XZ      -3.7469     YZ      -0.1047     ZZ     -27.5882

 Final energy is   -317.601065637913
 **  OPTIMIZATION CONVERGED  **
 Total job time:  17.76s(wall), 203.18s(cpu)
        *  Thank you very much for using Q-Chem.  Have a nice day.  *
