 Q-Chem 5.1, Q-Chem, Inc., Pleasanton, CA (2018)
 Q-Chem 5.1.1 for Intel X86 EM64T Linux

User input:
--------------------------------------------------------------

$comment
potential surface scanner
$end

$rem
JOBTYPE  PES_SCAN
UNRESTRICTED TRUE
SYM_IGNORE  TRUE
GEOM_OPT_MAX_CYCLES 400
SCF_MAX_CYCLES 400
METHOD   B3LYP
BASIS   6-31G**
PDB_PRINT 2
SCF_CONVERGENCE 6
THRESH 14
SCF_PRINT 1
$end
$molecule
0 1
F 1.653000 0.625500 0.402200
F -1.644300 0.642100 -0.389000
C -0.000400 -0.990500 -0.008200
C 1.108500 -0.129500 -0.588600
C -1.116800 -0.147700 0.583700
H -0.406500 -1.626400 -0.802200
H 0.409700 -1.637700 0.774300
H 1.902400 -0.751100 -1.012100
H 0.736700 0.544900 -1.365600
H -0.753700 0.499900 1.387100
H -1.917900 -0.780700 0.975600
$end
$scan
stre 1 4 1.300000 1.301000 0.100000
$end
--------------------------------------------------------------

    9    -317.6039561489      1.85e-07  Convergence criterion met
 Total energy in the final basis set =     -317.6039561489
    9    -317.5993160498      4.26e-07  Convergence criterion met
 Total energy in the final basis set =     -317.5993160498
    9    -317.5996009853      4.29e-07  Convergence criterion met
 Total energy in the final basis set =     -317.5996009853
    9    -317.5996301984      4.32e-07  Convergence criterion met
 Total energy in the final basis set =     -317.5996301984
    9    -317.5996332920      4.33e-07  Convergence criterion met
 Total energy in the final basis set =     -317.5996332920
    9    -317.5996350797      4.35e-07  Convergence criterion met
 Total energy in the final basis set =     -317.5996350797
    9    -317.5996369926      4.36e-07  Convergence criterion met
 Total energy in the final basis set =     -317.5996369926
    9    -317.5996390856      4.37e-07  Convergence criterion met
 Total energy in the final basis set =     -317.5996390856
    9    -317.5996403428      4.37e-07  Convergence criterion met
 Total energy in the final basis set =     -317.5996403428

             Standard Nuclear Orientation (Angstroms)
    I     Atom           X                Y                Z
 ----------------------------------------------------------------
    1      F       1.6676643167     0.6104242113     0.3811365325
    2      F      -1.6793797116     0.6532978384    -0.4111568039
    3      C       0.0037002529    -0.9812689961    -0.0053643277
    4      C       1.1348745736    -0.1121076872    -0.5591202449
    5      C      -1.1243133120    -0.1519728011     0.5854151625
    6      H      -0.3892773776    -1.6150729136    -0.8086971710
    7      H       0.3997559688    -1.6452054222     0.7737241859
    8      H       1.8981525633    -0.7578589378    -1.0223740037
    9      H       0.7278425029     0.5354853454    -1.3502644337
   10      H      -0.7504476781     0.5022471197     1.3812850381
   11      H      -1.9178720989    -0.7891677568     0.9926160659
 ----------------------------------------------------------------

    9    -317.5996407021      4.36e-07  Convergence criterion met
 Total energy in the final basis set =     -317.5996407021

                    Orbital Energies (a.u.)
 --------------------------------------------------------------

 Alpha MOs
 -- Occupied --
-24.685 -24.669 -10.259 -10.256 -10.194  -1.224  -1.173  -0.789
 -0.688  -0.605  -0.518  -0.515  -0.493  -0.481  -0.449  -0.433
 -0.390  -0.347  -0.337  -0.317  -0.315

 Beta MOs
 -- Occupied --
-24.685 -24.669 -10.259 -10.256 -10.194  -1.224  -1.173  -0.789
 -0.688  -0.605  -0.518  -0.515  -0.493  -0.481  -0.449  -0.433
 -0.390  -0.347  -0.337  -0.317  -0.315

          Ground-State Mulliken Net Atomic Charges

     Atom                 Charge (a.u.)    Spin (a.u.)
  --------------------------------------------------------
      1 F                    -0.274379       0.000000
      2 F                    -0.326558       0.000000
      3 C                    -0.259168       0.000000
      4 C                     0.142912      -0.000000
      5 C                     0.135484      -0.000000
      6 H                     0.109871      -0.000000
      7 H                     0.106515       0.000000
      8 H                     0.074759       0.000000
      9 H                     0.091962       0.000000
     10 H                     0.104843       0.000000
     11 H                     0.093760       0.000000
  --------------------------------------------------------
  Sum of atomic charges =    -0.000000

                    Cartesian Multipole Moments
 -----------------------------------------------------------------
    Charge (ESU x 10^10)
                 0.0000
    Dipole Moment (Debye)
         X       0.1797      Y      -1.7208      Z       0.2496
       Tot       1.7481
    Quadrupole Moments (Debye-Ang)
        XX     -31.8678     XY       0.4317     YY     -29.1184
        XZ      -2.8244     YZ       0.0531     ZZ     -27.9496

 Final energy is   -317.599640702111
 **  OPTIMIZATION CONVERGED  **
 Total job time:  29.90s(wall), 345.08s(cpu)
        *  Thank you very much for using Q-Chem.  Have a nice day.  *
