 Q-Chem 5.1, Q-Chem, Inc., Pleasanton, CA (2018)
 Q-Chem 5.1.1 for Intel X86 EM64T Linux

User input:
--------------------------------------------------------------

$comment
potential surface scanner
$end

$rem
JOBTYPE  PES_SCAN
UNRESTRICTED TRUE
SYM_IGNORE  TRUE
GEOM_OPT_MAX_CYCLES 400
SCF_MAX_CYCLES 400
METHOD   B3LYP
BASIS   6-31G**
PDB_PRINT 2
SCF_CONVERGENCE 6
THRESH 14
SCF_PRINT 1
$end
$molecule
0 1
F 1.707236 0.711123 0.614366
F -1.699675 0.613561 -0.439740
C -0.020566 -1.016023 -0.033001
C 1.059703 -0.198165 -0.667778
C -1.110745 -0.145719 0.572661
H -0.456219 -1.669646 -0.802162
H 0.410798 -1.661131 0.739161
H 1.928141 -0.741885 -1.030069
H 0.711886 0.576436 -1.346007
H -0.670551 0.535364 1.305228
H -1.889305 -0.755120 1.044541
$end
$scan
stre 1 4 1.800000 1.801000 0.100000
$end
--------------------------------------------------------------

   10    -317.5763434113      1.37e-07  Convergence criterion met
 Total energy in the final basis set =     -317.5763434113
   10    -317.5615610558      1.69e-07  Convergence criterion met
 Total energy in the final basis set =     -317.5615610558
   10    -317.5613250908      1.71e-07  Convergence criterion met
 Total energy in the final basis set =     -317.5613250908
   10    -317.5614427713      1.73e-07  Convergence criterion met
 Total energy in the final basis set =     -317.5614427713
   10    -317.5614455278      1.73e-07  Convergence criterion met
 Total energy in the final basis set =     -317.5614455278

             Standard Nuclear Orientation (Angstroms)
    I     Atom           X                Y                Z
 ----------------------------------------------------------------
    1      F       1.7103999383     0.7394999533     0.6753953068
    2      F      -1.7030381060     0.6060376401    -0.4448558632
    3      C      -0.0261367819    -1.0247936878    -0.0405958429
    4      C       1.0427420149    -0.2179145213    -0.6948563559
    5      C      -1.1060024525    -0.1438889462     0.5696421908
    6      H      -0.4724762433    -1.6823683597    -0.8016975237
    7      H       0.4135791901    -1.6664313763     0.7291587645
    8      H       1.9339447701    -0.7388279954    -1.0303866833
    9      H       0.7065174658     0.5811902921    -1.3481076966
   10      H      -0.6478799191     0.5415017574     1.2862841039
   11      H      -1.8809468765    -0.7452097561     1.0572195996
 ----------------------------------------------------------------

   10    -317.5614460903      1.73e-07  Convergence criterion met
 Total energy in the final basis set =     -317.5614460903

                    Orbital Energies (a.u.)
 --------------------------------------------------------------

 Alpha MOs
 -- Occupied --
-24.676 -24.617 -10.281 -10.264 -10.215  -1.181  -1.056  -0.813
 -0.699  -0.610  -0.510  -0.503  -0.479  -0.436  -0.425  -0.406
 -0.359  -0.339  -0.335  -0.310  -0.308

 Beta MOs
 -- Occupied --
-24.676 -24.617 -10.281 -10.264 -10.215  -1.181  -1.056  -0.813
 -0.699  -0.610  -0.510  -0.503  -0.479  -0.436  -0.425  -0.406
 -0.359  -0.339  -0.335  -0.310  -0.308

          Ground-State Mulliken Net Atomic Charges

     Atom                 Charge (a.u.)    Spin (a.u.)
  --------------------------------------------------------
      1 F                    -0.388284       0.000000
      2 F                    -0.326609      -0.000000
      3 C                    -0.236045       0.000000
      4 C                     0.029242      -0.000000
      5 C                     0.132763       0.000000
      6 H                     0.125047      -0.000000
      7 H                     0.133804       0.000000
      8 H                     0.143333       0.000000
      9 H                     0.159781      -0.000000
     10 H                     0.132757       0.000000
     11 H                     0.094211      -0.000000
  --------------------------------------------------------
  Sum of atomic charges =    -0.000000

                    Cartesian Multipole Moments
 -----------------------------------------------------------------
    Charge (ESU x 10^10)
                 0.0000
    Dipole Moment (Debye)
         X      -0.6013      Y      -2.7335      Z      -1.0660
       Tot       2.9950
    Quadrupole Moments (Debye-Ang)
        XX     -33.2532     XY      -1.2274     YY     -28.6823
        XZ      -4.9915     YZ      -0.4176     ZZ     -27.3845

 Final energy is   -317.561446090282
 **  OPTIMIZATION CONVERGED  **
 Total job time:  18.88s(wall), 216.91s(cpu)
        *  Thank you very much for using Q-Chem.  Have a nice day.  *
