 Q-Chem 5.1, Q-Chem, Inc., Pleasanton, CA (2018)
 Q-Chem 5.1.1 for Intel X86 EM64T Linux

User input:
--------------------------------------------------------------

$comment
potential surface scanner
$end

$rem
JOBTYPE  PES_SCAN
UNRESTRICTED TRUE
SYM_IGNORE  TRUE
GEOM_OPT_MAX_CYCLES 400
SCF_MAX_CYCLES 400
METHOD   B3LYP
BASIS   6-31G**
PDB_PRINT 2
SCF_CONVERGENCE 6
THRESH 14
SCF_PRINT 1
$end
$molecule
0 1
F 1.653000 0.625500 0.402200
F -1.644300 0.642100 -0.389000
C -0.000400 -0.990500 -0.008200
C 1.108500 -0.129500 -0.588600
C -1.116800 -0.147700 0.583700
H -0.406500 -1.626400 -0.802200
H 0.409700 -1.637700 0.774300
H 1.902400 -0.751100 -1.012100
H 0.736700 0.544900 -1.365600
H -0.753700 0.499900 1.387100
H -1.917900 -0.780700 0.975600
$end
$scan
stre 1 4 0.900000 0.901000 0.100000
$end
--------------------------------------------------------------

    9    -317.6039561489      1.85e-07  Convergence criterion met
 Total energy in the final basis set =     -317.6039561489
    9    -317.5820704125      2.73e-07  Convergence criterion met
 Total energy in the final basis set =     -317.5820704125
    9    -317.4873451285      2.27e-07  Convergence criterion met
 Total energy in the final basis set =     -317.4873451285
    9    -317.3700690971      2.35e-07  Convergence criterion met
 Total energy in the final basis set =     -317.3700690971
    9    -317.1686690539      2.56e-07  Convergence criterion met
 Total energy in the final basis set =     -317.1686690539
    9    -317.1414851719      2.62e-07  Convergence criterion met
 Total energy in the final basis set =     -317.1414851719
    9    -317.1274665024      2.79e-07  Convergence criterion met
 Total energy in the final basis set =     -317.1274665024
    9    -317.1287218945      3.15e-07  Convergence criterion met
    9    -317.1293758981      3.52e-07  Convergence criterion met
 Total energy in the final basis set =     -317.1293758981
    9    -317.1293846092      3.51e-07  Convergence criterion met
 Total energy in the final basis set =     -317.1293846092
    9    -317.1293903101      3.52e-07  Convergence criterion met
 Total energy in the final basis set =     -317.1293903101
    9    -317.1293946067      3.52e-07  Convergence criterion met
 Total energy in the final basis set =     -317.1293946067
    9    -317.1293987437      3.52e-07  Convergence criterion met
 Total energy in the final basis set =     -317.1293987437
    9    -317.1294017417      3.51e-07  Convergence criterion met
 Total energy in the final basis set =     -317.1294017417

             Standard Nuclear Orientation (Angstroms)
    I     Atom           X                Y                Z
 ----------------------------------------------------------------
    1      F       1.5559481892     0.5935834079     0.1039524262
    2      F      -1.6090445500     0.7691626537    -0.3092298415
    3      C       0.0098969433    -0.9585584362     0.0311459603
    4      C       1.2169427378     0.0065103471    -0.4880109125
    5      C      -1.1438433940    -0.1664437589     0.6199586308
    6      H      -0.3244233177    -1.5645611982    -0.8165407461
    7      H       0.3841398819    -1.6409822862     0.8104667275
    8      H       1.9410785266    -0.7959822229    -0.9455665627
    9      H       0.7542697709     0.4238743193    -1.4721816075
   10      H      -0.8271659508     0.3893362052     1.5159846228
   11      H      -1.9870988371    -0.8071390306     0.9072213027
 ----------------------------------------------------------------

    9    -317.1294028775      3.49e-07  Convergence criterion met
 Total energy in the final basis set =     -317.1294028775

                    Orbital Energies (a.u.)
 --------------------------------------------------------------

 Alpha MOs
 -- Occupied --
-24.805 -24.660 -10.305 -10.252 -10.166  -1.576  -1.165  -0.773
 -0.739  -0.714  -0.700  -0.636  -0.538  -0.480  -0.469  -0.429
 -0.381  -0.332  -0.321  -0.263  -0.256

 Beta MOs
 -- Occupied --
-24.805 -24.660 -10.305 -10.252 -10.166  -1.576  -1.165  -0.773
 -0.739  -0.714  -0.700  -0.636  -0.538  -0.480  -0.469  -0.429
 -0.381  -0.332  -0.321  -0.263  -0.256

          Ground-State Mulliken Net Atomic Charges

     Atom                 Charge (a.u.)    Spin (a.u.)
  --------------------------------------------------------
      1 F                     0.342627       0.000000
      2 F                    -0.327732      -0.000000
      3 C                    -0.341342       0.000000
      4 C                    -0.061275       0.000000
      5 C                     0.131593      -0.000000
      6 H                     0.104759      -0.000000
      7 H                     0.081968      -0.000000
      8 H                    -0.064129       0.000000
      9 H                    -0.038594      -0.000000
     10 H                     0.076081       0.000000
     11 H                     0.096042      -0.000000
  --------------------------------------------------------
  Sum of atomic charges =    -0.000000

                    Cartesian Multipole Moments
 -----------------------------------------------------------------
    Charge (ESU x 10^10)
                -0.0000
    Dipole Moment (Debye)
         X       1.2386      Y      -0.2360      Z       1.7609
       Tot       2.1657
    Quadrupole Moments (Debye-Ang)
        XX     -29.8476     XY       3.3595     YY     -29.9097
        XZ      -0.0897     YZ       0.2320     ZZ     -29.7409

 Final energy is   -317.129402877452
 **  OPTIMIZATION CONVERGED  **
 Total job time:  89.33s(wall), 1024.66s(cpu)
        *  Thank you very much for using Q-Chem.  Have a nice day.  *
