 Q-Chem 5.1, Q-Chem, Inc., Pleasanton, CA (2018)
 Q-Chem 5.1.1 for Intel X86 EM64T Linux

User input:
--------------------------------------------------------------

$comment
potential surface scanner
$end

$rem
JOBTYPE  PES_SCAN
UNRESTRICTED TRUE
SYM_IGNORE  TRUE
GEOM_OPT_MAX_CYCLES 400
SCF_MAX_CYCLES 400
METHOD   B3LYP
BASIS   6-31G**
PDB_PRINT 2
SCF_CONVERGENCE 6
THRESH 14
SCF_PRINT 1
$end
$molecule
0 1
F 1.689751 0.658996 0.496387
F -1.689217 0.632589 -0.426980
C -0.008535 -0.999030 -0.019055
C 1.095548 -0.156792 -0.613303
C -1.117723 -0.148876 0.578761
H -0.423623 -1.643715 -0.804287
H 0.405508 -1.652387 0.757309
H 1.914167 -0.748453 -1.027344
H 0.719995 0.559247 -1.345901
H -0.710973 0.519880 1.343300
H -1.904197 -0.772662 1.018313
$end
$scan
stre 1 4 1.600000 1.601000 0.100000
$end
--------------------------------------------------------------

    9    -317.6010656500      7.73e-07  Convergence criterion met
 Total energy in the final basis set =     -317.6010656500
    9    -317.5899920720      8.70e-07  Convergence criterion met
 Total energy in the final basis set =     -317.5899920720
    9    -317.5900400491      8.64e-07  Convergence criterion met
 Total energy in the final basis set =     -317.5900400491
    9    -317.5901280432      8.62e-07  Convergence criterion met
 Total energy in the final basis set =     -317.5901280432
    9    -317.5901306257      8.63e-07  Convergence criterion met
 Total energy in the final basis set =     -317.5901306257

             Standard Nuclear Orientation (Angstroms)
    I     Atom           X                Y                Z
 ----------------------------------------------------------------
    1      F       1.6992192151     0.6848544137     0.5548194466
    2      F      -1.6946762074     0.6227839812    -0.4336082689
    3      C      -0.0147244370    -1.0076509759    -0.0259900805
    4      C       1.0772980648    -0.1779021404    -0.6405318363
    5      C      -1.1144039592    -0.1473588593     0.5757043101
    6      H      -0.4400567311    -1.6569087701    -0.8031692621
    7      H       0.4079541883    -1.6566950206     0.7484289809
    8      H       1.9217105119    -0.7449647051    -1.0288349321
    9      H       0.7162086024     0.5687779171    -1.3454532483
   10      H      -0.6908751820     0.5278927870     1.3242210723
   11      H      -1.8969530658    -0.7640316275     1.0316138184
 ----------------------------------------------------------------

    9    -317.5901310011      8.63e-07  Convergence criterion met
 Total energy in the final basis set =     -317.5901310011

                    Orbital Energies (a.u.)
 --------------------------------------------------------------

 Alpha MOs
 -- Occupied --
-24.673 -24.642 -10.270 -10.262 -10.208  -1.178  -1.102  -0.804
 -0.695  -0.605  -0.506  -0.502  -0.475  -0.443  -0.426  -0.408
 -0.383  -0.340  -0.337  -0.326  -0.322

 Beta MOs
 -- Occupied --
-24.673 -24.642 -10.270 -10.262 -10.208  -1.178  -1.102  -0.804
 -0.695  -0.605  -0.506  -0.502  -0.475  -0.443  -0.426  -0.408
 -0.383  -0.340  -0.337  -0.326  -0.322

          Ground-State Mulliken Net Atomic Charges

     Atom                 Charge (a.u.)    Spin (a.u.)
  --------------------------------------------------------
      1 F                    -0.373586      -0.000000
      2 F                    -0.326655      -0.000000
      3 C                    -0.239747       0.000000
      4 C                     0.085352       0.000000
      5 C                     0.134728      -0.000000
      6 H                     0.118139       0.000000
      7 H                     0.123517       0.000000
      8 H                     0.122935       0.000000
      9 H                     0.139642       0.000000
     10 H                     0.121935      -0.000000
     11 H                     0.093738       0.000000
  --------------------------------------------------------
  Sum of atomic charges =     0.000000

                    Cartesian Multipole Moments
 -----------------------------------------------------------------
    Charge (ESU x 10^10)
                 0.0000
    Dipole Moment (Debye)
         X      -0.3300      Y      -2.3555      Z      -0.5604
       Tot       2.4436
    Quadrupole Moments (Debye-Ang)
        XX     -32.7917     XY      -0.6446     YY     -28.8180
        XZ      -4.1741     YZ      -0.1970     ZZ     -27.4792

 Final energy is   -317.590131001143
 **  OPTIMIZATION CONVERGED  **
 Total job time:  18.10s(wall), 206.39s(cpu)
        *  Thank you very much for using Q-Chem.  Have a nice day.  *
