 Q-Chem 5.1, Q-Chem, Inc., Pleasanton, CA (2018)
 Q-Chem 5.1.1 for Intel X86 EM64T Linux

User input:
--------------------------------------------------------------

$comment
potential surface scanner
$end

$rem
JOBTYPE  PES_SCAN
UNRESTRICTED TRUE
SYM_IGNORE  TRUE
GEOM_OPT_MAX_CYCLES 400
SCF_MAX_CYCLES 400
METHOD   B3LYP
BASIS   6-31G**
PDB_PRINT 2
SCF_CONVERGENCE 6
THRESH 14
SCF_PRINT 1
$end
$molecule
0 1
F 1.653000 0.625500 0.402200
F -1.644300 0.642100 -0.389000
C -0.000400 -0.990500 -0.008200
C 1.108500 -0.129500 -0.588600
C -1.116800 -0.147700 0.583700
H -0.406500 -1.626400 -0.802200
H 0.409700 -1.637700 0.774300
H 1.902400 -0.751100 -1.012100
H 0.736700 0.544900 -1.365600
H -0.753700 0.499900 1.387100
H -1.917900 -0.780700 0.975600
$end
$scan
stre 1 4 1.100000 1.101000 0.100000
$end
--------------------------------------------------------------

    9    -317.6039561489      1.85e-07  Convergence criterion met
 Total energy in the final basis set =     -317.6039561489
    9    -317.5820704125      2.73e-07  Convergence criterion met
 Total energy in the final basis set =     -317.5820704125
    9    -317.5097060547      2.24e-07  Convergence criterion met
 Total energy in the final basis set =     -317.5097060547
    9    -317.5063126056      2.37e-07  Convergence criterion met
 Total energy in the final basis set =     -317.5063126056
    9    -317.5082825561      2.86e-07  Convergence criterion met
 Total energy in the final basis set =     -317.5082825561
    9    -317.5083420801      2.85e-07  Convergence criterion met
 Total energy in the final basis set =     -317.5083420801
    9    -317.5084169109      2.86e-07  Convergence criterion met
 Total energy in the final basis set =     -317.5084169109
    9    -317.5084198017      2.86e-07  Convergence criterion met
 Total energy in the final basis set =     -317.5084198017
    9    -317.5084246691      2.85e-07  Convergence criterion met
 Total energy in the final basis set =     -317.5084246691

             Standard Nuclear Orientation (Angstroms)
    I     Atom           X                Y                Z
 ----------------------------------------------------------------
    1      F       1.6307241075     0.5781065242     0.2577297464
    2      F      -1.6565185432     0.6940019024    -0.3802112523
    3      C       0.0128583578    -0.9665247446     0.0105529250
    4      C       1.1755658945    -0.0618355044    -0.5125333653
    5      C      -1.1316175627    -0.1563036434     0.5950150022
    6      H      -0.3505868930    -1.5921171486    -0.8113932950
    7      H       0.3940864300    -1.6361563428     0.7951741859
    8      H       1.8913717888    -0.7725678059    -1.0095036974
    9      H       0.7328623010     0.4983598138    -1.3768178081
   10      H      -0.7870101805     0.4654165684     1.4322395960
   11      H      -1.9410357003    -0.8015796190     0.9569479627
 ----------------------------------------------------------------

    9    -317.5084254123      2.85e-07  Convergence criterion met
 Total energy in the final basis set =     -317.5084254123

                    Orbital Energies (a.u.)
 --------------------------------------------------------------

 Alpha MOs
 -- Occupied --
-24.728 -24.665 -10.259 -10.256 -10.182  -1.366  -1.170  -0.778
 -0.689  -0.624  -0.575  -0.575  -0.526  -0.484  -0.467  -0.436
 -0.388  -0.340  -0.329  -0.297  -0.292

 Beta MOs
 -- Occupied --
-24.728 -24.665 -10.259 -10.256 -10.182  -1.366  -1.170  -0.778
 -0.689  -0.624  -0.575  -0.575  -0.526  -0.484  -0.467  -0.436
 -0.388  -0.340  -0.329  -0.297  -0.292

          Ground-State Mulliken Net Atomic Charges

     Atom                 Charge (a.u.)    Spin (a.u.)
  --------------------------------------------------------
      1 F                    -0.056339      -0.000000
      2 F                    -0.326131       0.000000
      3 C                    -0.289528       0.000000
      4 C                     0.092774      -0.000000
      5 C                     0.135091      -0.000000
      6 H                     0.106270       0.000000
      7 H                     0.093982      -0.000000
      8 H                     0.019386       0.000000
      9 H                     0.038735       0.000000
     10 H                     0.091503       0.000000
     11 H                     0.094258       0.000000
  --------------------------------------------------------
  Sum of atomic charges =    -0.000000

                    Cartesian Multipole Moments
 -----------------------------------------------------------------
    Charge (ESU x 10^10)
                 0.0000
    Dipole Moment (Debye)
         X       0.6416      Y      -1.1611      Z       0.9148
       Tot       1.6115
    Quadrupole Moments (Debye-Ang)
        XX     -30.9537     XY       1.5066     YY     -29.4520
        XZ      -1.6511     YZ       0.1817     ZZ     -28.5855

 Final energy is   -317.508425412275
 **  OPTIMIZATION CONVERGED  **
 Total job time:  29.62s(wall), 341.30s(cpu)
        *  Thank you very much for using Q-Chem.  Have a nice day.  *
