 Q-Chem 5.1, Q-Chem, Inc., Pleasanton, CA (2018)
 Q-Chem 5.1.1 for Intel X86 EM64T Linux

User input:
--------------------------------------------------------------

$comment
potential surface scanner
$end

$rem
JOBTYPE  PES_SCAN
UNRESTRICTED TRUE
SYM_IGNORE  TRUE
GEOM_OPT_MAX_CYCLES 400
SCF_MAX_CYCLES 400
METHOD   B3LYP
BASIS   6-31G**
PDB_PRINT 2
SCF_CONVERGENCE 6
THRESH 14
SCF_PRINT 1
$end
$molecule
0 1
F 1.667664 0.610424 0.381137
F -1.679380 0.653298 -0.411157
C 0.003700 -0.981269 -0.005364
C 1.134875 -0.112108 -0.559120
C -1.124313 -0.151973 0.585415
H -0.389277 -1.615073 -0.808697
H 0.399756 -1.645205 0.773724
H 1.898153 -0.757859 -1.022374
H 0.727843 0.535485 -1.350264
H -0.750448 0.502247 1.381285
H -1.917872 -0.789168 0.992616
$end
$scan
stre 1 4 1.400000 1.401000 0.100000
$end
--------------------------------------------------------------

    9    -317.5996406892      4.36e-07  Convergence criterion met
 Total energy in the final basis set =     -317.5996406892
    9    -317.6053249082      2.42e-07  Convergence criterion met
 Total energy in the final basis set =     -317.6053249082
    9    -317.6059535339      2.23e-07  Convergence criterion met
 Total energy in the final basis set =     -317.6059535339
    9    -317.6060219052      2.12e-07  Convergence criterion met
 Total energy in the final basis set =     -317.6060219052
    9    -317.6060246917      2.13e-07  Convergence criterion met
 Total energy in the final basis set =     -317.6060246917

             Standard Nuclear Orientation (Angstroms)
    I     Atom           X                Y                Z
 ----------------------------------------------------------------
    1      F       1.6791985548     0.6348542854     0.4379134911
    2      F      -1.6836749375     0.6433279820    -0.4191199746
    3      C      -0.0022245512    -0.9900402279    -0.0120953426
    4      C       1.1147658279    -0.1349797424    -0.5861816933
    5      C      -1.1210067935    -0.1503818630     0.5820887662
    6      H      -0.4066354335    -1.6294457205    -0.8061251230
    7      H       0.4027665010    -1.6485229309     0.7657769334
    8      H       1.9061711167    -0.7529681468    -1.0249643618
    9      H       0.7239380387     0.5474578095    -1.3479235056
   10      H      -0.7313469764     0.5108630765     1.3631303225
   11      H      -1.9112503469    -0.7813655220     1.0047014875
 ----------------------------------------------------------------

    9    -317.6060250088      2.12e-07  Convergence criterion met
 Total energy in the final basis set =     -317.6060250088

                    Orbital Energies (a.u.)
 --------------------------------------------------------------

 Alpha MOs
 -- Occupied --
-24.670 -24.669 -10.260 -10.260 -10.199  -1.176  -1.172  -0.794
 -0.690  -0.603  -0.508  -0.505  -0.479  -0.474  -0.436  -0.425
 -0.390  -0.347  -0.339  -0.321  -0.321

 Beta MOs
 -- Occupied --
-24.670 -24.669 -10.260 -10.260 -10.199  -1.176  -1.172  -0.794
 -0.690  -0.603  -0.508  -0.505  -0.479  -0.474  -0.436  -0.425
 -0.390  -0.347  -0.339  -0.321  -0.321

          Ground-State Mulliken Net Atomic Charges

     Atom                 Charge (a.u.)    Spin (a.u.)
  --------------------------------------------------------
      1 F                    -0.328211      -0.000000
      2 F                    -0.326561      -0.000000
      3 C                    -0.250129      -0.000000
      4 C                     0.134978       0.000000
      5 C                     0.135512       0.000000
      6 H                     0.112214       0.000000
      7 H                     0.112383       0.000000
      8 H                     0.094278      -0.000000
      9 H                     0.111184      -0.000000
     10 H                     0.110720      -0.000000
     11 H                     0.093633      -0.000000
  --------------------------------------------------------
  Sum of atomic charges =    -0.000000

                    Cartesian Multipole Moments
 -----------------------------------------------------------------
    Charge (ESU x 10^10)
                -0.0000
    Dipole Moment (Debye)
         X      -0.0087      Y      -1.9506      Z      -0.0352
       Tot       1.9510
    Quadrupole Moments (Debye-Ang)
        XX     -32.2054     XY       0.0307     YY     -29.0085
        XZ      -3.2991     YZ      -0.0218     ZZ     -27.7399

 Final energy is   -317.606025008835
 **  OPTIMIZATION CONVERGED  **
 Total job time:  18.35s(wall), 207.93s(cpu)
        *  Thank you very much for using Q-Chem.  Have a nice day.  *
