 Q-Chem 5.1, Q-Chem, Inc., Pleasanton, CA (2018)
 Q-Chem 5.1.1 for Intel X86 EM64T Linux

User input:
--------------------------------------------------------------

$comment
potential surface scanner
$end

$rem
JOBTYPE  PES_SCAN
UNRESTRICTED TRUE
SYM_IGNORE  TRUE
GEOM_OPT_MAX_CYCLES 400
SCF_MAX_CYCLES 400
METHOD   B3LYP
BASIS   6-31G**
PDB_PRINT 2
SCF_CONVERGENCE 6
THRESH 14
SCF_PRINT 1
$end
$molecule
0 1
F 1.653000 0.625500 0.402200
F -1.644300 0.642100 -0.389000
C -0.000400 -0.990500 -0.008200
C 1.108500 -0.129500 -0.588600
C -1.116800 -0.147700 0.583700
H -0.406500 -1.626400 -0.802200
H 0.409700 -1.637700 0.774300
H 1.902400 -0.751100 -1.012100
H 0.736700 0.544900 -1.365600
H -0.753700 0.499900 1.387100
H -1.917900 -0.780700 0.975600
$end
$scan
stre 1 4 0.800000 0.801000 0.100000
$end
--------------------------------------------------------------

    9    -317.6039561489      1.85e-07  Convergence criterion met
 Total energy in the final basis set =     -317.6039561489
    9    -317.5820704125      2.73e-07  Convergence criterion met
 Total energy in the final basis set =     -317.5820704125
    9    -317.4873451285      2.27e-07  Convergence criterion met
 Total energy in the final basis set =     -317.4873451285
    9    -317.3700690971      2.35e-07  Convergence criterion met
 Total energy in the final basis set =     -317.3700690971
    9    -317.0989232933      2.65e-07  Convergence criterion met
 Total energy in the final basis set =     -317.0989232933
    9    -316.9548936209      2.97e-07  Convergence criterion met
 Total energy in the final basis set =     -316.9548936209
    9    -316.8024665714      3.57e-07  Convergence criterion met
 Total energy in the final basis set =     -316.8024665714
    9    -316.6942916299      4.07e-07  Convergence criterion met
    9    -316.6654147689      4.84e-07  Convergence criterion met
 Total energy in the final basis set =     -316.6654147689
    9    -316.6654174522      4.84e-07  Convergence criterion met
 Total energy in the final basis set =     -316.6654174522
    9    -316.6654206082      4.84e-07  Convergence criterion met
 Total energy in the final basis set =     -316.6654206082
    9    -316.6654243898      4.84e-07  Convergence criterion met
 Total energy in the final basis set =     -316.6654243898
    9    -316.6654270298      4.84e-07  Convergence criterion met
 Total energy in the final basis set =     -316.6654270298
    9    -316.6654281882      4.84e-07  Convergence criterion met
 Total energy in the final basis set =     -316.6654281882

             Standard Nuclear Orientation (Angstroms)
    I     Atom           X                Y                Z
 ----------------------------------------------------------------
    1      F       1.4502044073     0.6624218508    -0.0433891900
    2      F      -1.4741172627     0.8973433795    -0.1913908273
    3      C       0.0001833302    -0.9702142723     0.0573370508
    4      C       1.2154305392     0.0624238620    -0.5176083441
    5      C      -1.1510683243    -0.1806428341     0.6505114450
    6      H      -0.3127104773    -1.5782003341    -0.7966137655
    7      H       0.3981395888    -1.6408001470     0.8330580850
    8      H       2.0244387379    -0.7836935705    -0.8528274862
    9      H       0.7626161689     0.3060679982    -1.6034836158
   10      H      -0.8794195628     0.2480448655     1.6272329781
   11      H      -2.0629971452    -0.7739507979     0.7943736701
 ----------------------------------------------------------------

    9    -316.6654289655      4.84e-07  Convergence criterion met
 Total energy in the final basis set =     -316.6654289655

                    Orbital Energies (a.u.)
 --------------------------------------------------------------

 Alpha MOs
 -- Occupied --
-24.875 -24.659 -10.371 -10.250 -10.154  -1.696  -1.162  -0.831
 -0.823  -0.793  -0.739  -0.633  -0.535  -0.478  -0.468  -0.426
 -0.376  -0.328  -0.318  -0.243  -0.234

 Beta MOs
 -- Occupied --
-24.875 -24.659 -10.371 -10.250 -10.154  -1.696  -1.162  -0.831
 -0.823  -0.793  -0.739  -0.633  -0.535  -0.478  -0.468  -0.426
 -0.376  -0.328  -0.318  -0.243  -0.234

          Ground-State Mulliken Net Atomic Charges

     Atom                 Charge (a.u.)    Spin (a.u.)
  --------------------------------------------------------
      1 F                     0.639017       0.000000
      2 F                    -0.334661       0.000000
      3 C                    -0.380862       0.000000
      4 C                    -0.201425      -0.000000
      5 C                     0.123265      -0.000000
      6 H                     0.103422      -0.000000
      7 H                     0.080637       0.000000
      8 H                    -0.118419       0.000000
      9 H                    -0.084819       0.000000
     10 H                     0.074287       0.000000
     11 H                     0.099558       0.000000
  --------------------------------------------------------
  Sum of atomic charges =    -0.000000

                    Cartesian Multipole Moments
 -----------------------------------------------------------------
    Charge (ESU x 10^10)
                 0.0000
    Dipole Moment (Debye)
         X       1.3326      Y       0.5149      Z       2.0519
       Tot       2.5002
    Quadrupole Moments (Debye-Ang)
        XX     -29.4553     XY       4.8883     YY     -30.1465
        XZ       0.6933     YZ       0.0526     ZZ     -30.5385

 Final energy is   -316.665428965535
 **  OPTIMIZATION CONVERGED  **
 Total job time:  119.91s(wall), 1332.79s(cpu)
        *  Thank you very much for using Q-Chem.  Have a nice day.  *
