 Q-Chem 5.1, Q-Chem, Inc., Pleasanton, CA (2018)
 Q-Chem 5.1.1 for Intel X86 EM64T Linux

User input:
--------------------------------------------------------------

$comment
potential surface scanner
$end

$rem
JOBTYPE  PES_SCAN
UNRESTRICTED TRUE
SYM_IGNORE  TRUE
GEOM_OPT_MAX_CYCLES 400
SCF_MAX_CYCLES 400
METHOD   B3LYP
BASIS   6-31G**
PDB_PRINT 2
SCF_CONVERGENCE 6
THRESH 14
SCF_PRINT 1
$end
$molecule
0 1
F 1.653000 0.625500 0.402200
F -1.644300 0.642100 -0.389000
C -0.000400 -0.990500 -0.008200
C 1.108500 -0.129500 -0.588600
C -1.116800 -0.147700 0.583700
H -0.406500 -1.626400 -0.802200
H 0.409700 -1.637700 0.774300
H 1.902400 -0.751100 -1.012100
H 0.736700 0.544900 -1.365600
H -0.753700 0.499900 1.387100
H -1.917900 -0.780700 0.975600
$end
$scan
stre 1 4 1.000000 1.001000 0.100000
$end
--------------------------------------------------------------

    9    -317.6039561489      1.85e-07  Convergence criterion met
 Total energy in the final basis set =     -317.6039561489
    9    -317.5820704125      2.73e-07  Convergence criterion met
 Total energy in the final basis set =     -317.5820704125
    9    -317.4873451285      2.27e-07  Convergence criterion met
 Total energy in the final basis set =     -317.4873451285
    9    -317.3988607890      2.38e-07  Convergence criterion met
 Total energy in the final basis set =     -317.3988607890
    9    -317.3793715945      2.53e-07  Convergence criterion met
 Total energy in the final basis set =     -317.3793715945
    9    -317.3778875109      2.81e-07  Convergence criterion met
 Total energy in the final basis set =     -317.3778875109
    9    -317.3780565653      2.93e-07  Convergence criterion met
 Total energy in the final basis set =     -317.3780565653
    9    -317.3781236759      2.96e-07  Convergence criterion met
    9    -317.3781708751      2.97e-07  Convergence criterion met
 Total energy in the final basis set =     -317.3781708751
    9    -317.3781751751      2.98e-07  Convergence criterion met
 Total energy in the final basis set =     -317.3781751751
    9    -317.3781807424      2.99e-07  Convergence criterion met
 Total energy in the final basis set =     -317.3781807424
    9    -317.3781872959      2.99e-07  Convergence criterion met
 Total energy in the final basis set =     -317.3781872959
    9    -317.3781926709      2.98e-07  Convergence criterion met
 Total energy in the final basis set =     -317.3781926709
    9    -317.3781953257      2.97e-07  Convergence criterion met
 Total energy in the final basis set =     -317.3781953257

             Standard Nuclear Orientation (Angstroms)
    I     Atom           X                Y                Z
 ----------------------------------------------------------------
    1      F       1.5919499841     0.5864342113     0.1837036078
    2      F      -1.6379254242     0.7261599700    -0.3481940833
    3      C       0.0129592666    -0.9608635915     0.0179479009
    4      C       1.1961672003    -0.0303455796    -0.4966924021
    5      C      -1.1362459552    -0.1606524038     0.6072221497
    6      H      -0.3388069303    -1.5737864818    -0.8181293544
    7      H       0.3886534233    -1.6408573385     0.7975840849
    8      H       1.9112927261    -0.7843736680    -0.9748440676
    9      H       0.7456415634     0.4592019163    -1.4206465664
   10      H      -0.8037589368     0.4335261598     1.4706165194
   11      H      -1.9592269173    -0.8056431942     0.9386322112
 ----------------------------------------------------------------

    9    -317.3781963005      2.96e-07  Convergence criterion met
 Total energy in the final basis set =     -317.3781963005

                    Orbital Energies (a.u.)
 --------------------------------------------------------------

 Alpha MOs
 -- Occupied --
-24.759 -24.663 -10.273 -10.254 -10.175  -1.463  -1.167  -0.773
 -0.704  -0.643  -0.632  -0.621  -0.536  -0.483  -0.469  -0.433
 -0.385  -0.336  -0.325  -0.281  -0.276

 Beta MOs
 -- Occupied --
-24.759 -24.663 -10.273 -10.254 -10.175  -1.463  -1.167  -0.773
 -0.704  -0.643  -0.632  -0.621  -0.536  -0.483  -0.469  -0.433
 -0.385  -0.336  -0.325  -0.281  -0.276

          Ground-State Mulliken Net Atomic Charges

     Atom                 Charge (a.u.)    Spin (a.u.)
  --------------------------------------------------------
      1 F                     0.117119       0.000000
      2 F                    -0.326571       0.000000
      3 C                    -0.312789      -0.000000
      4 C                     0.031770      -0.000000
      5 C                     0.133740       0.000000
      6 H                     0.105355       0.000000
      7 H                     0.087705       0.000000
      8 H                    -0.018313      -0.000000
      9 H                     0.003001       0.000000
     10 H                     0.083964       0.000000
     11 H                     0.095019      -0.000000
  --------------------------------------------------------
  Sum of atomic charges =     0.000000

                    Cartesian Multipole Moments
 -----------------------------------------------------------------
    Charge (ESU x 10^10)
                 0.0000
    Dipole Moment (Debye)
         X       0.9292      Y      -0.7680      Z       1.3143
       Tot       1.7834
    Quadrupole Moments (Debye-Ang)
        XX     -30.3927     XY       2.2975     YY     -29.6751
        XZ      -0.9170     YZ       0.2176     ZZ     -29.0675

 Final energy is   -317.378196300451
 **  OPTIMIZATION CONVERGED  **
 Total job time:  55.16s(wall), 643.40s(cpu)
        *  Thank you very much for using Q-Chem.  Have a nice day.  *
