 Q-Chem 5.1, Q-Chem, Inc., Pleasanton, CA (2018)
 Q-Chem 5.1.1 for Intel X86 EM64T Linux

User input:
--------------------------------------------------------------

$comment
potential surface scanner
$end

$rem
JOBTYPE  PES_SCAN
UNRESTRICTED TRUE
SYM_IGNORE  TRUE
GEOM_OPT_MAX_CYCLES 400
SCF_MAX_CYCLES 400
METHOD   B3LYP
BASIS   6-31G**
PDB_PRINT 2
SCF_CONVERGENCE 6
THRESH 14
SCF_PRINT 1
$end
$molecule
0 1
F 1.653000 0.625500 0.402200
F -1.644300 0.642100 -0.389000
C -0.000400 -0.990500 -0.008200
C 1.108500 -0.129500 -0.588600
C -1.116800 -0.147700 0.583700
H -0.406500 -1.626400 -0.802200
H 0.409700 -1.637700 0.774300
H 1.902400 -0.751100 -1.012100
H 0.736700 0.544900 -1.365600
H -0.753700 0.499900 1.387100
H -1.917900 -0.780700 0.975600
$end
$scan
stre 1 4 0.700000 0.701000 0.100000
$end
--------------------------------------------------------------

    9    -317.6039561489      1.85e-07  Convergence criterion met
 Total energy in the final basis set =     -317.6039561489
    9    -317.5820704125      2.73e-07  Convergence criterion met
 Total energy in the final basis set =     -317.5820704125
    9    -317.4873451285      2.27e-07  Convergence criterion met
 Total energy in the final basis set =     -317.4873451285
    9    -317.3700690971      2.35e-07  Convergence criterion met
 Total energy in the final basis set =     -317.3700690971
    9    -317.0989232933      2.65e-07  Convergence criterion met
 Total energy in the final basis set =     -317.0989232933
    9    -316.8918555794      3.14e-07  Convergence criterion met
 Total energy in the final basis set =     -316.8918555794
    9    -316.6798938967      4.00e-07  Convergence criterion met
 Total energy in the final basis set =     -316.6798938967
    9    -316.4611683297      4.84e-07  Convergence criterion met
    9    -315.8098519399      7.40e-07  Convergence criterion met
 Total energy in the final basis set =     -315.8098519399
    9    -315.8098580482      7.42e-07  Convergence criterion met
 Total energy in the final basis set =     -315.8098580482
    9    -315.8098607583      7.42e-07  Convergence criterion met
 Total energy in the final basis set =     -315.8098607583
    9    -315.8098624704      7.42e-07  Convergence criterion met
 Total energy in the final basis set =     -315.8098624704
    9    -315.8098641704      7.42e-07  Convergence criterion met
 Total energy in the final basis set =     -315.8098641704
    9    -315.8098652009      7.43e-07  Convergence criterion met
 Total energy in the final basis set =     -315.8098652009

             Standard Nuclear Orientation (Angstroms)
    I     Atom           X                Y                Z
 ----------------------------------------------------------------
    1      F       1.2889084553     0.7047906272    -0.4860192975
    2      F      -0.7639877522     1.1565603559     0.8513615595
    3      C       0.1170495576    -0.9610115354     0.3105000562
    4      C       1.0844250408     0.0867406616    -0.7433147765
    5      C      -1.1435762195    -0.2066740044     0.6311646633
    6      H      -0.0646701077    -1.8733583823    -0.2618372793
    7      H       0.6821696768    -1.2061456395     1.2222193081
    8      H       1.9612191524    -0.7678090548    -1.1127213016
    9      H       0.3289245669     0.0426994001    -1.7712933440
   10      H      -1.6809181939    -0.5242416283     1.5332658031
   11      H      -1.8388441763    -0.2027508000    -0.2161253914
 ----------------------------------------------------------------

    9    -315.8098655317      7.43e-07  Convergence criterion met
 Total energy in the final basis set =     -315.8098655317

                    Orbital Energies (a.u.)
 --------------------------------------------------------------

 Alpha MOs
 -- Occupied --
-24.987 -24.664 -10.498 -10.246 -10.146  -1.798  -1.162  -0.969
 -0.969  -0.851  -0.740  -0.623  -0.539  -0.475  -0.466  -0.426
 -0.374  -0.331  -0.322  -0.231  -0.215

 Beta MOs
 -- Occupied --
-24.987 -24.664 -10.498 -10.246 -10.146  -1.798  -1.162  -0.969
 -0.969  -0.851  -0.740  -0.623  -0.539  -0.475  -0.466  -0.426
 -0.374  -0.331  -0.322  -0.231  -0.215

          Ground-State Mulliken Net Atomic Charges

     Atom                 Charge (a.u.)    Spin (a.u.)
  --------------------------------------------------------
      1 F                     1.015444       0.000000
      2 F                    -0.374049       0.000000
      3 C                    -0.403948      -0.000000
      4 C                    -0.404426      -0.000000
      5 C                     0.130774      -0.000000
      6 H                     0.096817       0.000000
      7 H                     0.079221       0.000000
      8 H                    -0.166309       0.000000
      9 H                    -0.166175      -0.000000
     10 H                     0.092827       0.000000
     11 H                     0.099825       0.000000
  --------------------------------------------------------
  Sum of atomic charges =     0.000000

                    Cartesian Multipole Moments
 -----------------------------------------------------------------
    Charge (ESU x 10^10)
                -0.0000
    Dipole Moment (Debye)
         X       0.9582      Y       1.2513      Z       0.6264
       Tot       1.6959
    Quadrupole Moments (Debye-Ang)
        XX     -27.5777     XY       5.7028     YY     -30.4992
        XZ       0.8976     YZ      -2.8171     ZZ     -32.9645

 Final energy is   -315.809865531721
 **  OPTIMIZATION CONVERGED  **
 Total job time:  213.19s(wall), 2474.80s(cpu)
        *  Thank you very much for using Q-Chem.  Have a nice day.  *
