 Q-Chem 5.1, Q-Chem, Inc., Pleasanton, CA (2018)
 Q-Chem 5.1.1 for Intel X86 EM64T Linux

User input:
--------------------------------------------------------------

$comment
potential surface scanner
$end

$rem
JOBTYPE  PES_SCAN
UNRESTRICTED TRUE
SYM_IGNORE  TRUE
GEOM_OPT_MAX_CYCLES 400
SCF_MAX_CYCLES 400
METHOD   B3LYP
BASIS   6-31G**
PDB_PRINT 2
SCF_CONVERGENCE 6
THRESH 14
SCF_PRINT 1
$end
$molecule
0 1
F 1.653000 0.625500 0.402200
F -1.644300 0.642100 -0.389000
C -0.000400 -0.990500 -0.008200
C 1.108500 -0.129500 -0.588600
C -1.116800 -0.147700 0.583700
H -0.406500 -1.626400 -0.802200
H 0.409700 -1.637700 0.774300
H 1.902400 -0.751100 -1.012100
H 0.736700 0.544900 -1.365600
H -0.753700 0.499900 1.387100
H -1.917900 -0.780700 0.975600
$end
$scan
stre 1 4 1.900000 1.901000 0.100000
$end
--------------------------------------------------------------

    9    -317.6039561489      1.85e-07  Convergence criterion met
 Total energy in the final basis set =     -317.6039561489
    9    -317.5999283884      7.45e-07  Convergence criterion met
 Total energy in the final basis set =     -317.5999283884
    9    -317.5818427996      9.36e-07  Convergence criterion met
 Total energy in the final basis set =     -317.5818427996
   10    -317.5598496237      1.59e-07  Convergence criterion met
 Total energy in the final basis set =     -317.5598496237
   10    -317.5443045106      2.30e-07  Convergence criterion met
 Total energy in the final basis set =     -317.5443045106
   10    -317.5455317482      2.36e-07  Convergence criterion met
 Total energy in the final basis set =     -317.5455317482
   10    -317.5460113308      2.38e-07  Convergence criterion met
 Total energy in the final basis set =     -317.5460113308
   10    -317.5464317982      2.43e-07  Convergence criterion met
   10    -317.5464734880      2.42e-07  Convergence criterion met
 Total energy in the final basis set =     -317.5464734880
   10    -317.5464764487      2.42e-07  Convergence criterion met
 Total energy in the final basis set =     -317.5464764487
   10    -317.5464789004      2.42e-07  Convergence criterion met
 Total energy in the final basis set =     -317.5464789004
   10    -317.5464807252      2.41e-07  Convergence criterion met
 Total energy in the final basis set =     -317.5464807252
   10    -317.5464820979      2.41e-07  Convergence criterion met
 Total energy in the final basis set =     -317.5464820979
   10    -317.5464830915      2.41e-07  Convergence criterion met
 Total energy in the final basis set =     -317.5464830915

             Standard Nuclear Orientation (Angstroms)
    I     Atom           X                Y                Z
 ----------------------------------------------------------------
    1      F       1.7046523013     0.7799854664     0.7314794699
    2      F      -1.7042240002     0.6007573490    -0.4470472266
    3      C      -0.0315450202    -1.0340652964    -0.0475101144
    4      C       1.0272801220    -0.2394006163    -0.7217985268
    5      C      -1.0992486131    -0.1410511559     0.5683649744
    6      H      -0.4910638564    -1.6930935868    -0.8012178267
    7      H       0.4147228947    -1.6744405357     0.7190073417
    8      H       1.9416885744    -0.7384603175    -1.0239215102
    9      H       0.7008370337     0.5747110788    -1.3601179314
   10      H      -0.6215378720     0.5473755610     1.2685293446
   11      H      -1.8708615641    -0.7335179467     1.0714320055
 ----------------------------------------------------------------

   10    -317.5464835454      2.41e-07  Convergence criterion met
 Total energy in the final basis set =     -317.5464835454

                    Orbital Energies (a.u.)
 --------------------------------------------------------------

 Alpha MOs
 -- Occupied --
-24.677 -24.606 -10.287 -10.264 -10.219  -1.182  -1.039  -0.817
 -0.702  -0.613  -0.513  -0.504  -0.481  -0.437  -0.426  -0.408
 -0.347  -0.340  -0.332  -0.300  -0.299

 Beta MOs
 -- Occupied --
-24.677 -24.606 -10.287 -10.264 -10.219  -1.182  -1.039  -0.817
 -0.702  -0.613  -0.513  -0.504  -0.481  -0.437  -0.426  -0.408
 -0.347  -0.340  -0.332  -0.300  -0.299

          Ground-State Mulliken Net Atomic Charges

     Atom                 Charge (a.u.)    Spin (a.u.)
  --------------------------------------------------------
      1 F                    -0.393682      -0.000000
      2 F                    -0.326490       0.000000
      3 C                    -0.236571       0.000000
      4 C                     0.006480       0.000000
      5 C                     0.131708       0.000000
      6 H                     0.128811      -0.000000
      7 H                     0.138049      -0.000000
      8 H                     0.151514       0.000000
      9 H                     0.167627      -0.000000
     10 H                     0.138189       0.000000
     11 H                     0.094363      -0.000000
  --------------------------------------------------------
  Sum of atomic charges =    -0.000000

                    Cartesian Multipole Moments
 -----------------------------------------------------------------
    Charge (ESU x 10^10)
                -0.0000
    Dipole Moment (Debye)
         X      -0.7028      Y      -2.9397      Z      -1.3081
       Tot       3.2935
    Quadrupole Moments (Debye-Ang)
        XX     -33.3787     XY      -1.5204     YY     -28.6802
        XZ      -5.3450     YZ      -0.5493     ZZ     -27.3750

 Final energy is   -317.546483545438
 **  OPTIMIZATION CONVERGED  **
 Total job time:  59.51s(wall), 686.57s(cpu)
        *  Thank you very much for using Q-Chem.  Have a nice day.  *
