 Q-Chem 5.1, Q-Chem, Inc., Pleasanton, CA (2018)
 Q-Chem 5.1.1 for Intel X86 EM64T Linux

User input:
--------------------------------------------------------------

$comment
potential surface scanner
$end

$rem
JOBTYPE  PES_SCAN
UNRESTRICTED TRUE
SYM_IGNORE  TRUE
GEOM_OPT_MAX_CYCLES 400
SCF_MAX_CYCLES 400
METHOD   B3LYP
BASIS   6-31G**
PDB_PRINT 2
SCF_CONVERGENCE 6
THRESH 14
SCF_PRINT 1
$end
$molecule
0 3
Cl -0.294967 1.558104 1.030037
Cl 1.662805 1.581862 -0.794389
C -0.749609 -0.486916 -0.334219
C 0.080342 -0.285374 -1.441100
C -0.463610 -1.537502 0.690374
H -1.761349 -0.098614 -0.388566
H 0.961987 -0.899144 -1.580135
H -0.257647 0.300072 -2.286330
H -0.945502 -1.312865 1.643129
H -0.862571 -2.498400 0.333380
H 0.610423 -1.655824 0.852622
$end
$scan
stre 1 3 2.400000 2.401000 0.100000
$end
--------------------------------------------------------------

   11   -1038.2271876235      8.73e-07  Convergence criterion met
 Total energy in the final basis set =    -1038.2271876235
   11   -1038.2263040266      8.36e-07  Convergence criterion met
 Total energy in the final basis set =    -1038.2263040266
   11   -1038.2264570977      8.54e-07  Convergence criterion met
 Total energy in the final basis set =    -1038.2264570977
   11   -1038.2267150918      9.04e-07  Convergence criterion met
 Total energy in the final basis set =    -1038.2267150918
   11   -1038.2268497435      9.32e-07  Convergence criterion met
 Total energy in the final basis set =    -1038.2268497435
   11   -1038.2270809263      9.40e-07  Convergence criterion met
 Total energy in the final basis set =    -1038.2270809263
   12   -1038.2273770246      8.56e-07  Convergence criterion met
 Total energy in the final basis set =    -1038.2273770246
   12   -1038.2276951948      8.99e-07  Convergence criterion met
   12   -1038.2292479634      6.79e-07  Convergence criterion met
 Total energy in the final basis set =    -1038.2292479634
   12   -1038.2293115194      6.71e-07  Convergence criterion met
 Total energy in the final basis set =    -1038.2293115194
   12   -1038.2293200161      6.72e-07  Convergence criterion met
 Total energy in the final basis set =    -1038.2293200161
   12   -1038.2293322972      6.71e-07  Convergence criterion met
 Total energy in the final basis set =    -1038.2293322972
   12   -1038.2293383662      6.70e-07  Convergence criterion met
 Total energy in the final basis set =    -1038.2293383662
   12   -1038.2293397212      6.70e-07  Convergence criterion met
 Total energy in the final basis set =    -1038.2293397212

             Standard Nuclear Orientation (Angstroms)
    I     Atom           X                Y                Z
 ----------------------------------------------------------------
    1      Cl     -0.2578157078     1.5091271186     0.6814427499
    2      Cl      2.1513303027     1.8969869400    -0.6077254317
    3      C      -0.8434881089    -0.5802674125    -0.3439451671
    4      C      -0.0597688438    -0.3483656111    -1.4636458385
    5      C      -0.4788354493    -1.5759176135     0.7129933600
    6      H      -1.8829169550    -0.2641248547    -0.3844398715
    7      H       0.9561892359    -0.7219809398    -1.5236358525
    8      H      -0.4098262799     0.2821814667    -2.2726270207
    9      H      -0.8958996690    -1.2976259023     1.6825871022
   10      H      -0.9026391531    -2.5514289198     0.4374532791
   11      H       0.6039726280    -1.6831852715     0.8063456907
 ----------------------------------------------------------------

   12   -1038.2293400161      6.70e-07  Convergence criterion met
 Total energy in the final basis set =    -1038.2293400161

                    Orbital Energies (a.u.)
 --------------------------------------------------------------

 Alpha MOs
 -- Occupied --
*******-101.517 -10.278 -10.256 -10.219  -9.462  -9.430  -7.227
 -7.222  -7.215  -7.200  -7.183  -7.183  -0.855  -0.802  -0.765
 -0.735  -0.611  -0.518  -0.472  -0.459  -0.414  -0.402  -0.380
 -0.368  -0.319  -0.286  -0.281  -0.277  -0.274

 Beta MOs
 -- Occupied --
*******-101.512 -10.277 -10.248 -10.219  -9.456  -9.425  -7.214
 -7.212  -7.211  -7.183  -7.180  -7.180  -0.842  -0.766  -0.725
 -0.724  -0.605  -0.513  -0.468  -0.453  -0.411  -0.400  -0.337
 -0.317  -0.306  -0.272  -0.269

          Ground-State Mulliken Net Atomic Charges

     Atom                 Charge (a.u.)    Spin (a.u.)
  --------------------------------------------------------
      1 Cl                   -0.153235       0.718548
      2 Cl                   -0.242512       0.733740
      3 C                    -0.079133       0.016464
      4 C                    -0.121397       0.577973
      5 C                    -0.331783       0.000224
      6 H                     0.165130       0.000567
      7 H                     0.163220      -0.025071
      8 H                     0.158690      -0.025127
      9 H                     0.152282       0.003695
     10 H                     0.139725      -0.000474
     11 H                     0.149012      -0.000538
  --------------------------------------------------------
  Sum of atomic charges =     0.000000

                    Cartesian Multipole Moments
 -----------------------------------------------------------------
    Charge (ESU x 10^10)
                 0.0000
    Dipole Moment (Debye)
         X      -3.1589      Y      -4.7358      Z      -1.0563
       Tot       5.7899
    Quadrupole Moments (Debye-Ang)
        XX     -47.4403     XY      -3.8246     YY     -49.5227
        XZ       0.7603     YZ      -0.0515     ZZ     -42.4323

 Final energy is   -1038.22934001615
 **  OPTIMIZATION CONVERGED  **
 Total job time:  170.21s(wall), 1977.43s(cpu)
        *  Thank you very much for using Q-Chem.  Have a nice day.  *
