 Q-Chem 5.1, Q-Chem, Inc., Pleasanton, CA (2018)
 Q-Chem 5.1.1 for Intel X86 EM64T Linux

User input:
--------------------------------------------------------------

$comment
potential surface scanner
$end

$rem
JOBTYPE  PES_SCAN
UNRESTRICTED TRUE
SYM_IGNORE  TRUE
GEOM_OPT_MAX_CYCLES 400
SCF_MAX_CYCLES 400
METHOD   B3LYP
BASIS   6-31G**
PDB_PRINT 2
SCF_CONVERGENCE 6
THRESH 14
SCF_PRINT 1
$end
$molecule
0 3
Cl -0.624172 1.992756 1.183757
Cl 1.345240 1.381772 -0.595569
C -0.720353 -0.633882 -0.459875
C 0.234190 -0.203667 -1.417447
C -0.423376 -1.609015 0.620527
H -1.693546 -0.154201 -0.459560
H 1.076070 -0.862756 -1.612331
H -0.137931 0.319693 -2.292070
H -0.386049 -1.087360 1.586910
H -1.220986 -2.357858 0.700597
H 0.531213 -2.120082 0.469861
$end
$scan
stre 1 3 3.000000 3.001000 0.100000
$end
--------------------------------------------------------------

   11   -1038.2349756555      7.42e-07  Convergence criterion met
 Total energy in the final basis set =    -1038.2349756555
   11   -1038.2339323385      7.94e-07  Convergence criterion met
 Total energy in the final basis set =    -1038.2339323385
   11   -1038.2340486214      7.75e-07  Convergence criterion met
 Total energy in the final basis set =    -1038.2340486214
   11   -1038.2340830120      7.71e-07  Convergence criterion met
 Total energy in the final basis set =    -1038.2340830120
   11   -1038.2340888105      7.71e-07  Convergence criterion met
 Total energy in the final basis set =    -1038.2340888105
   11   -1038.2340958467      7.71e-07  Convergence criterion met
 Total energy in the final basis set =    -1038.2340958467
   11   -1038.2341001474      7.67e-07  Convergence criterion met
 Total energy in the final basis set =    -1038.2341001474
   11   -1038.2341054345      7.58e-07  Convergence criterion met
 Total energy in the final basis set =    -1038.2341054345
   11   -1038.2341086910      7.48e-07  Convergence criterion met
 Total energy in the final basis set =    -1038.2341086910
   11   -1038.2341107103      7.40e-07  Convergence criterion met
 Total energy in the final basis set =    -1038.2341107103
   11   -1038.2341118644      7.36e-07  Convergence criterion met
 Total energy in the final basis set =    -1038.2341118644

             Standard Nuclear Orientation (Angstroms)
    I     Atom           X                Y                Z
 ----------------------------------------------------------------
    1      Cl     -0.6055976926     1.9065570618     1.1745967357
    2      Cl      1.3627047403     1.4028278964    -0.6165858687
    3      C      -0.7190509826    -0.6137644608    -0.4487052777
    4      C       0.2259001989    -0.2081128892    -1.4209308446
    5      C      -0.4255801024    -1.5951114434     0.6274059777
    6      H      -1.6968254155    -0.1445582195    -0.4579170024
    7      H       1.0711057004    -0.8653070905    -1.6048875036
    8      H      -0.1431915736     0.3142523747    -2.2970527544
    9      H      -0.4188119774    -1.0847144425     1.5994927934
   10      H      -1.2110771441    -2.3595713994     0.6798709139
   11      H       0.5407242485    -2.0870973877     0.4895128307
 ----------------------------------------------------------------

   11   -1038.2341127379      7.34e-07  Convergence criterion met
 Total energy in the final basis set =    -1038.2341127379

                    Orbital Energies (a.u.)
 --------------------------------------------------------------

 Alpha MOs
 -- Occupied --
*******-101.521 -10.267 -10.252 -10.209  -9.469  -9.434  -7.232
 -7.229  -7.221  -7.205  -7.188  -7.188  -0.856  -0.808  -0.773
 -0.722  -0.606  -0.512  -0.468  -0.451  -0.409  -0.400  -0.395
 -0.377  -0.323  -0.293  -0.286  -0.278  -0.245

 Beta MOs
 -- Occupied --
*******-101.516 -10.266 -10.242 -10.210  -9.464  -9.429  -7.223
 -7.219  -7.218  -7.188  -7.185  -7.184  -0.836  -0.782  -0.736
 -0.713  -0.593  -0.507  -0.462  -0.434  -0.404  -0.392  -0.373
 -0.325  -0.312  -0.279  -0.274

          Ground-State Mulliken Net Atomic Charges

     Atom                 Charge (a.u.)    Spin (a.u.)
  --------------------------------------------------------
      1 Cl                   -0.240821       0.720976
      2 Cl                   -0.090657       0.585214
      3 C                     0.028642       0.697364
      4 C                    -0.274174       0.008477
      5 C                    -0.357626      -0.051926
      6 H                     0.151079      -0.029633
      7 H                     0.171469       0.002348
      8 H                     0.179223       0.000282
      9 H                     0.174210       0.041638
     10 H                     0.134838       0.023370
     11 H                     0.123818       0.001890
  --------------------------------------------------------
  Sum of atomic charges =    -0.000000

                    Cartesian Multipole Moments
 -----------------------------------------------------------------
    Charge (ESU x 10^10)
                 0.0000
    Dipole Moment (Debye)
         X      -0.8019      Y      -4.2236      Z      -2.1897
       Tot       4.8246
    Quadrupole Moments (Debye-Ang)
        XX     -44.5690     XY      -0.0513     YY     -49.4695
        XZ       0.1106     YZ      -2.3265     ZZ     -43.1312

 Final energy is   -1038.23411273793
 **  OPTIMIZATION CONVERGED  **
 Total job time:  44.05s(wall), 511.35s(cpu)
        *  Thank you very much for using Q-Chem.  Have a nice day.  *
