 Q-Chem 5.1, Q-Chem, Inc., Pleasanton, CA (2018)
 Q-Chem 5.1.1 for Intel X86 EM64T Linux

User input:
--------------------------------------------------------------

$comment
potential surface scanner
$end

$rem
JOBTYPE  PES_SCAN
UNRESTRICTED TRUE
SYM_IGNORE  TRUE
GEOM_OPT_MAX_CYCLES 400
SCF_MAX_CYCLES 400
METHOD   B3LYP
BASIS   6-31G**
PDB_PRINT 2
SCF_CONVERGENCE 6
THRESH 14
SCF_PRINT 1
$end
$molecule
0 3
Cl 1.036941 3.222645 -1.616500
Cl 0.695743 1.413285 0.444917
C -0.915929 -0.868859 -0.039828
C -0.269128 0.177467 -0.788447
C -0.212613 -2.097894 0.414537
H -1.910068 -0.668981 0.352899
H 0.557387 -0.133189 -1.423750
H -0.927087 0.887755 -1.280541
H 0.174447 -1.965941 1.437943
H -0.890693 -2.957267 0.447817
H 0.641297 -2.343622 -0.224246
$end
$scan
stre 1 3 4.700000 4.701000 0.100000
$end
--------------------------------------------------------------

   12   -1038.2349792168      6.67e-07  Convergence criterion met
 Total energy in the final basis set =    -1038.2349792168
   12   -1038.2348317117      6.72e-07  Convergence criterion met
 Total energy in the final basis set =    -1038.2348317117
   12   -1038.2348872389      6.57e-07  Convergence criterion met
 Total energy in the final basis set =    -1038.2348872389
   12   -1038.2348969279      6.48e-07  Convergence criterion met
 Total energy in the final basis set =    -1038.2348969279
   12   -1038.2349000548      6.45e-07  Convergence criterion met
 Total energy in the final basis set =    -1038.2349000548
   12   -1038.2349068008      6.40e-07  Convergence criterion met
 Total energy in the final basis set =    -1038.2349068008
   12   -1038.2349102506      6.40e-07  Convergence criterion met
 Total energy in the final basis set =    -1038.2349102506
   12   -1038.2349120364      6.43e-07  Convergence criterion met
 Total energy in the final basis set =    -1038.2349120364

             Standard Nuclear Orientation (Angstroms)
    I     Atom           X                Y                Z
 ----------------------------------------------------------------
    1      Cl      1.0230987394     3.1001464747    -1.6708768774
    2      Cl      0.6937413503     1.4246167556     0.4878127271
    3      C      -0.9125406665    -0.8587359995    -0.0366949864
    4      C      -0.2739619171     0.1951295524    -0.7722393094
    5      C      -0.2072330309    -2.0918984288     0.4032881601
    6      H      -1.9110902687    -0.6724692484     0.3518455745
    7      H       0.5590700168    -0.0959041564    -1.4078295144
    8      H      -0.9293898647     0.9181252545    -1.2481024353
    9      H       0.1536768076    -1.9814352432     1.4385269005
   10      H      -0.8782409147    -2.9576745445     0.4003854928
   11      H       0.6631667485    -2.3145014163    -0.2213147321
 ----------------------------------------------------------------

   12   -1038.2349127368      6.46e-07  Convergence criterion met
 Total energy in the final basis set =    -1038.2349127368

                    Orbital Energies (a.u.)
 --------------------------------------------------------------

 Alpha MOs
 -- Occupied --
*******-101.527 -10.267 -10.248 -10.215  -9.475  -9.440  -7.239
 -7.234  -7.227  -7.211  -7.193  -7.193  -0.865  -0.810  -0.776
 -0.720  -0.608  -0.510  -0.468  -0.455  -0.415  -0.410  -0.396
 -0.375  -0.324  -0.295  -0.291  -0.289  -0.244

 Beta MOs
 -- Occupied --
*******-101.522 -10.267 -10.236 -10.215  -9.471  -9.435  -7.232
 -7.226  -7.225  -7.194  -7.190  -7.190  -0.846  -0.788  -0.737
 -0.713  -0.593  -0.505  -0.461  -0.437  -0.408  -0.396  -0.389
 -0.328  -0.315  -0.282  -0.278

          Ground-State Mulliken Net Atomic Charges

     Atom                 Charge (a.u.)    Spin (a.u.)
  --------------------------------------------------------
      1 Cl                   -0.211347       0.766990
      2 Cl                   -0.060464       0.454412
      3 C                    -0.008128       0.839366
      4 C                    -0.288735      -0.052450
      5 C                    -0.353506      -0.062028
      6 H                     0.127962      -0.036995
      7 H                     0.183773       0.006479
      8 H                     0.193938       0.005980
      9 H                     0.151251       0.053221
     10 H                     0.135386       0.018343
     11 H                     0.129870       0.006683
  --------------------------------------------------------
  Sum of atomic charges =    -0.000000

                    Cartesian Multipole Moments
 -----------------------------------------------------------------
    Charge (ESU x 10^10)
                -0.0000
    Dipole Moment (Debye)
         X      -2.1663      Y      -4.7941      Z       0.6853
       Tot       5.3053
    Quadrupole Moments (Debye-Ang)
        XX     -45.1841     XY      -3.5463     YY     -53.0951
        XZ       1.2106     YZ       2.8894     ZZ     -45.8620

 Final energy is   -1038.23491273680
 **  OPTIMIZATION CONVERGED  **
 Total job time:  36.73s(wall), 394.11s(cpu)
        *  Thank you very much for using Q-Chem.  Have a nice day.  *
