 Q-Chem 5.1, Q-Chem, Inc., Pleasanton, CA (2018)
 Q-Chem 5.1.1 for Intel X86 EM64T Linux

User input:
--------------------------------------------------------------

$comment
potential surface scanner
$end

$rem
JOBTYPE  PES_SCAN
UNRESTRICTED TRUE
SYM_IGNORE  TRUE
GEOM_OPT_MAX_CYCLES 400
SCF_MAX_CYCLES 400
METHOD   B3LYP
BASIS   6-31G**
PDB_PRINT 2
SCF_CONVERGENCE 6
THRESH 14
SCF_PRINT 1
$end
$molecule
0 3
Cl -0.651098 2.195268 1.164675
Cl 1.331970 1.327698 -0.544556
C -0.725239 -0.669442 -0.471766
C 0.242542 -0.191338 -1.404082
C -0.417226 -1.641872 0.608193
H -1.695429 -0.181754 -0.456255
H 1.073259 -0.856386 -1.629327
H -0.137434 0.342590 -2.269619
H -0.343276 -1.113210 1.570158
H -1.223306 -2.376851 0.718791
H 0.525537 -2.169302 0.438590
$end
$scan
stre 1 3 3.200000 3.201000 0.100000
$end
--------------------------------------------------------------

   11   -1038.2357976842      7.87e-07  Convergence criterion met
 Total energy in the final basis set =    -1038.2357976842
   11   -1038.2354761690      8.35e-07  Convergence criterion met
 Total energy in the final basis set =    -1038.2354761690
   11   -1038.2354943537      8.21e-07  Convergence criterion met
 Total energy in the final basis set =    -1038.2354943537
   11   -1038.2355069030      8.04e-07  Convergence criterion met
 Total energy in the final basis set =    -1038.2355069030
   11   -1038.2355088950      8.02e-07  Convergence criterion met
 Total energy in the final basis set =    -1038.2355088950
   11   -1038.2355131046      7.96e-07  Convergence criterion met
 Total energy in the final basis set =    -1038.2355131046
   11   -1038.2355142642      7.95e-07  Convergence criterion met
 Total energy in the final basis set =    -1038.2355142642
   11   -1038.2355158970      7.91e-07  Convergence criterion met
 Total energy in the final basis set =    -1038.2355158970
   11   -1038.2355174162      7.85e-07  Convergence criterion met
 Total energy in the final basis set =    -1038.2355174162
   11   -1038.2355187804      7.76e-07  Convergence criterion met
 Total energy in the final basis set =    -1038.2355187804

             Standard Nuclear Orientation (Angstroms)
    I     Atom           X                Y                Z
 ----------------------------------------------------------------
    1      Cl     -0.6476137999     2.0919048638     1.1760002498
    2      Cl      1.3381912724     1.3532157166    -0.5664817889
    3      C      -0.7223422621    -0.6526959182    -0.4676489138
    4      C       0.2401460308    -0.1970575000    -1.4111073674
    5      C      -0.4197732137    -1.6250385957     0.6137434868
    6      H      -1.6940153186    -0.1691474526    -0.4602416354
    7      H       1.0767301335    -0.8590146320    -1.6209430453
    8      H      -0.1354884710     0.3321270522    -2.2810756554
    9      H      -0.3496421129    -1.0962962498     1.5753472050
   10      H      -1.2282407220    -2.3582157234     0.7200262671
   11      H       0.5223484636    -2.1543805610     0.4471831975
 ----------------------------------------------------------------

   11   -1038.2355193150      7.72e-07  Convergence criterion met
 Total energy in the final basis set =    -1038.2355193150

                    Orbital Energies (a.u.)
 --------------------------------------------------------------

 Alpha MOs
 -- Occupied --
*******-101.524 -10.269 -10.248 -10.209  -9.471  -9.437  -7.234
 -7.230  -7.223  -7.207  -7.190  -7.190  -0.859  -0.807  -0.774
 -0.720  -0.606  -0.510  -0.467  -0.451  -0.409  -0.403  -0.395
 -0.375  -0.323  -0.293  -0.288  -0.282  -0.243

 Beta MOs
 -- Occupied --
*******-101.518 -10.268 -10.238 -10.209  -9.466  -9.431  -7.226
 -7.222  -7.220  -7.190  -7.187  -7.186  -0.839  -0.783  -0.736
 -0.712  -0.592  -0.506  -0.461  -0.432  -0.404  -0.391  -0.380
 -0.325  -0.313  -0.280  -0.275

          Ground-State Mulliken Net Atomic Charges

     Atom                 Charge (a.u.)    Spin (a.u.)
  --------------------------------------------------------
      1 Cl                   -0.231049       0.741407
      2 Cl                   -0.078535       0.532595
      3 C                     0.021403       0.753862
      4 C                    -0.283049      -0.017303
      5 C                    -0.358741      -0.055688
      6 H                     0.147574      -0.032222
      7 H                     0.172006       0.004589
      8 H                     0.180188       0.001478
      9 H                     0.172950       0.046252
     10 H                     0.134493       0.022031
     11 H                     0.122760       0.003000
  --------------------------------------------------------
  Sum of atomic charges =     0.000000

                    Cartesian Multipole Moments
 -----------------------------------------------------------------
    Charge (ESU x 10^10)
                -0.0000
    Dipole Moment (Debye)
         X      -0.6461      Y      -4.2117      Z      -2.1702
       Tot       4.7818
    Quadrupole Moments (Debye-Ang)
        XX     -44.5927     XY       0.0618     YY     -49.8762
        XZ       0.0274     YZ      -2.4352     ZZ     -43.0591

 Final energy is   -1038.23551931496
 **  OPTIMIZATION CONVERGED  **
 Total job time:  40.35s(wall), 466.86s(cpu)
        *  Thank you very much for using Q-Chem.  Have a nice day.  *
