 Q-Chem 5.1, Q-Chem, Inc., Pleasanton, CA (2018)
 Q-Chem 5.1.1 for Intel X86 EM64T Linux

User input:
--------------------------------------------------------------

$comment
potential surface scanner
$end

$rem
JOBTYPE  PES_SCAN
UNRESTRICTED TRUE
SYM_IGNORE  TRUE
GEOM_OPT_MAX_CYCLES 400
SCF_MAX_CYCLES 400
METHOD   B3LYP
BASIS   6-31G**
PDB_PRINT 2
SCF_CONVERGENCE 6
THRESH 14
SCF_PRINT 1
$end
$molecule
0 1
Cl -1.271337 1.376813 0.223864
Cl 1.954052 0.118637 0.611689
C -0.615377 -0.179542 -0.477229
C 0.860334 -0.027482 -0.823928
C -0.945393 -1.347408 0.440549
H -1.141317 -0.286818 -1.431387
H 1.187714 -0.914977 -1.371435
H 1.028018 0.858113 -1.436294
H -0.469897 -1.223340 1.415209
H -2.024892 -1.429544 0.581904
H -0.581605 -2.279052 -0.008144
$end
$scan
stre 1 3 1.200000 1.201000 0.100000
$end
--------------------------------------------------------------

    9   -1038.3416009812      3.04e-07  Convergence criterion met
 Total energy in the final basis set =    -1038.3416009812
    9   -1038.3321207240      4.78e-07  Convergence criterion met
 Total energy in the final basis set =    -1038.3321207240
    9   -1038.2933894752      4.57e-07  Convergence criterion met
 Total energy in the final basis set =    -1038.2933894752
    9   -1038.2221940509      4.68e-07  Convergence criterion met
 Total energy in the final basis set =    -1038.2221940509
    9   -1038.1186120753      5.04e-07  Convergence criterion met
 Total energy in the final basis set =    -1038.1186120753
    9   -1037.9593482488      5.80e-07  Convergence criterion met
 Total energy in the final basis set =    -1037.9593482488
    9   -1037.9367123832      6.04e-07  Convergence criterion met
 Total energy in the final basis set =    -1037.9367123832
    9   -1037.9348833699      6.23e-07  Convergence criterion met
    9   -1037.9357549773      7.05e-07  Convergence criterion met
 Total energy in the final basis set =    -1037.9357549773
    9   -1037.9357597916      7.03e-07  Convergence criterion met
 Total energy in the final basis set =    -1037.9357597916
    9   -1037.9357625009      7.01e-07  Convergence criterion met
 Total energy in the final basis set =    -1037.9357625009
    9   -1037.9357650527      7.00e-07  Convergence criterion met
 Total energy in the final basis set =    -1037.9357650527
    9   -1037.9357670816      6.99e-07  Convergence criterion met
 Total energy in the final basis set =    -1037.9357670816
    9   -1037.9357681947      7.00e-07  Convergence criterion met
 Total energy in the final basis set =    -1037.9357681947

             Standard Nuclear Orientation (Angstroms)
    I     Atom           X                Y                Z
 ----------------------------------------------------------------
    1      Cl     -1.1277865365     1.0649280073     0.1435082847
    2      Cl      1.9701798682     0.2689435004     0.6016128834
    3      C      -0.7128128561     0.0563868585    -0.3571329105
    4      C       0.8437107681    -0.0204330706    -0.7957671074
    5      C      -0.9563727137    -1.3278995872     0.4186843314
    6      H      -1.0935183471    -0.2577862477    -1.3837745557
    7      H       1.0934577411    -0.9883606077    -1.2278675822
    8      H       1.0447670359     0.7808881230    -1.5119040656
    9      H      -0.4552756548    -1.2824390203     1.3914250615
   10      H      -2.0333117820    -1.4364223512     0.5869807480
   11      H      -0.5927375230    -2.1924056046    -0.1409670877
 ----------------------------------------------------------------

    9   -1037.9357688834      7.00e-07  Convergence criterion met
 Total energy in the final basis set =    -1037.9357688834

                    Orbital Energies (a.u.)
 --------------------------------------------------------------

 Alpha MOs
 -- Occupied --
*******-101.531 -10.250 -10.244 -10.184  -9.494  -9.447  -7.257
 -7.244  -7.243  -7.211  -7.202  -7.202  -1.079  -0.844  -0.732
 -0.686  -0.587  -0.548  -0.515  -0.487  -0.442  -0.404  -0.395
 -0.386  -0.311  -0.293  -0.257  -0.255

 Beta MOs
 -- Occupied --
*******-101.531 -10.250 -10.244 -10.184  -9.494  -9.447  -7.257
 -7.244  -7.243  -7.211  -7.202  -7.202  -1.079  -0.844  -0.732
 -0.686  -0.587  -0.548  -0.515  -0.487  -0.442  -0.404  -0.395
 -0.386  -0.311  -0.293  -0.257  -0.255

          Ground-State Mulliken Net Atomic Charges

     Atom                 Charge (a.u.)    Spin (a.u.)
  --------------------------------------------------------
      1 Cl                    0.173641       0.000000
      2 Cl                   -0.104335       0.000000
      3 C                    -0.156256      -0.000000
      4 C                    -0.302938      -0.000000
      5 C                    -0.341429      -0.000000
      6 H                     0.085828       0.000000
      7 H                     0.152525       0.000000
      8 H                     0.148002       0.000000
      9 H                     0.132094       0.000000
     10 H                     0.106544       0.000000
     11 H                     0.106326       0.000000
  --------------------------------------------------------
  Sum of atomic charges =    -0.000000

                    Cartesian Multipole Moments
 -----------------------------------------------------------------
    Charge (ESU x 10^10)
                -0.0000
    Dipole Moment (Debye)
         X      -1.5259      Y      -0.6771      Z      -1.5921
       Tot       2.3068
    Quadrupole Moments (Debye-Ang)
        XX     -47.4495     XY      -0.3140     YY     -44.2529
        XZ      -1.5189     YZ      -0.1992     ZZ     -43.2593

 Final energy is   -1037.93576888339
 **  OPTIMIZATION CONVERGED  **
 Total job time:  103.03s(wall), 1024.21s(cpu)
        *  Thank you very much for using Q-Chem.  Have a nice day.  *
