 Q-Chem 5.1, Q-Chem, Inc., Pleasanton, CA (2018)
 Q-Chem 5.1.1 for Intel X86 EM64T Linux

User input:
--------------------------------------------------------------

$comment
potential surface scanner
$end

$rem
JOBTYPE  PES_SCAN
UNRESTRICTED TRUE
SYM_IGNORE  TRUE
GEOM_OPT_MAX_CYCLES 400
SCF_MAX_CYCLES 400
METHOD   B3LYP
BASIS   6-31G**
PDB_PRINT 2
SCF_CONVERGENCE 6
THRESH 14
SCF_PRINT 1
$end
$molecule
0 3
Cl 1.094207 3.306750 -1.592096
Cl 0.684496 1.413431 0.414339
C -0.922522 -0.879770 -0.037795
C -0.280567 0.166432 -0.796687
C -0.211331 -2.102245 0.421833
H -1.914880 -0.679743 0.359185
H 0.540397 -0.151052 -1.436109
H -0.946107 0.865942 -1.294770
H 0.186180 -1.959130 1.439761
H -0.886431 -2.963185 0.470231
H 0.636857 -2.352031 -0.223093
$end
$scan
stre 1 3 4.800000 4.801000 0.100000
$end
--------------------------------------------------------------

   12   -1038.2348497886      7.16e-07  Convergence criterion met
 Total energy in the final basis set =    -1038.2348497886
   12   -1038.2348989565      7.25e-07  Convergence criterion met
 Total energy in the final basis set =    -1038.2348989565
   12   -1038.2349655558      7.05e-07  Convergence criterion met
 Total energy in the final basis set =    -1038.2349655558
   12   -1038.2349757138      6.89e-07  Convergence criterion met
 Total energy in the final basis set =    -1038.2349757138
   12   -1038.2349768901      6.84e-07  Convergence criterion met
 Total energy in the final basis set =    -1038.2349768901
   12   -1038.2349786267      6.71e-07  Convergence criterion met
 Total energy in the final basis set =    -1038.2349786267

             Standard Nuclear Orientation (Angstroms)
    I     Atom           X                Y                Z
 ----------------------------------------------------------------
    1      Cl      1.0369413707     3.2226446949    -1.6165001471
    2      Cl      0.6957434776     1.4132847946     0.4449170741
    3      C      -0.9159285144    -0.8688594606    -0.0398283772
    4      C      -0.2691279936     0.1774667988    -0.7884473938
    5      C      -0.2126125461    -2.0978935957     0.4145368579
    6      H      -1.9100683375    -0.6689809034     0.3528991377
    7      H       0.5573870861    -0.1331891829    -1.4237500495
    8      H      -0.9270870292     0.8877553103    -1.2805412139
    9      H       0.1744468264    -1.9659405344     1.4379427240
   10      H      -0.8906926668    -2.9572671318     0.4478165303
   11      H       0.6412973269    -2.3436217898    -0.2242461424
 ----------------------------------------------------------------

   12   -1038.2349792169      6.67e-07  Convergence criterion met
 Total energy in the final basis set =    -1038.2349792169

                    Orbital Energies (a.u.)
 --------------------------------------------------------------

 Alpha MOs
 -- Occupied --
*******-101.528 -10.268 -10.247 -10.214  -9.475  -9.441  -7.239
 -7.234  -7.228  -7.212  -7.194  -7.194  -0.866  -0.809  -0.777
 -0.719  -0.608  -0.509  -0.468  -0.455  -0.415  -0.410  -0.396
 -0.374  -0.324  -0.296  -0.291  -0.290  -0.242

 Beta MOs
 -- Occupied --
*******-101.522 -10.268 -10.235 -10.215  -9.471  -9.436  -7.232
 -7.226  -7.225  -7.195  -7.191  -7.190  -0.848  -0.788  -0.737
 -0.712  -0.593  -0.504  -0.461  -0.437  -0.407  -0.397  -0.390
 -0.328  -0.315  -0.282  -0.278

          Ground-State Mulliken Net Atomic Charges

     Atom                 Charge (a.u.)    Spin (a.u.)
  --------------------------------------------------------
      1 Cl                   -0.206704       0.774389
      2 Cl                   -0.055976       0.436128
      3 C                    -0.010201       0.851850
      4 C                    -0.291067      -0.054355
      5 C                    -0.352938      -0.062996
      6 H                     0.127606      -0.037500
      7 H                     0.181669       0.006382
      8 H                     0.192707       0.006681
      9 H                     0.150907       0.054529
     10 H                     0.134869       0.017412
     11 H                     0.129129       0.007480
  --------------------------------------------------------
  Sum of atomic charges =     0.000000

                    Cartesian Multipole Moments
 -----------------------------------------------------------------
    Charge (ESU x 10^10)
                 0.0000
    Dipole Moment (Debye)
         X      -2.1338      Y      -4.8298      Z       0.6193
       Tot       5.3163
    Quadrupole Moments (Debye-Ang)
        XX     -45.2205     XY      -3.6383     YY     -53.5740
        XZ       1.1614     YZ       2.8367     ZZ     -45.6488

 Final energy is   -1038.23497921686
 **  OPTIMIZATION CONVERGED  **
 Total job time:  26.85s(wall), 305.53s(cpu)
        *  Thank you very much for using Q-Chem.  Have a nice day.  *
