 Q-Chem 5.1, Q-Chem, Inc., Pleasanton, CA (2018)
 Q-Chem 5.1.1 for Intel X86 EM64T Linux

User input:
--------------------------------------------------------------

$comment
potential surface scanner
$end

$rem
JOBTYPE  PES_SCAN
UNRESTRICTED TRUE
SYM_IGNORE  TRUE
GEOM_OPT_MAX_CYCLES 400
SCF_MAX_CYCLES 400
METHOD   B3LYP
BASIS   6-31G**
PDB_PRINT 2
SCF_CONVERGENCE 6
THRESH 14
SCF_PRINT 1
$end
$molecule
0 1
Cl -1.271337 1.376813 0.223864
Cl 1.954052 0.118637 0.611689
C -0.615377 -0.179542 -0.477229
C 0.860334 -0.027482 -0.823928
C -0.945393 -1.347408 0.440549
H -1.141317 -0.286818 -1.431387
H 1.187714 -0.914977 -1.371435
H 1.028018 0.858113 -1.436294
H -0.469897 -1.223340 1.415209
H -2.024892 -1.429544 0.581904
H -0.581605 -2.279052 -0.008144
$end
$scan
stre 1 3 2.700000 2.701000 0.100000
$end
--------------------------------------------------------------

    9   -1038.3416009812      3.04e-07  Convergence criterion met
 Total energy in the final basis set =    -1038.3416009812
    9   -1038.3357252310      5.51e-07  Convergence criterion met
 Total energy in the final basis set =    -1038.3357252310
    9   -1038.3239389268      7.49e-07  Convergence criterion met
 Total energy in the final basis set =    -1038.3239389268
    9   -1038.3113299061      8.84e-07  Convergence criterion met
 Total energy in the final basis set =    -1038.3113299061
   10   -1038.2998422022      2.43e-07  Convergence criterion met
 Total energy in the final basis set =    -1038.2998422022
   10   -1038.2894118889      3.71e-07  Convergence criterion met
 Total energy in the final basis set =    -1038.2894118889
   10   -1038.2797224737      7.42e-07  Convergence criterion met
 Total energy in the final basis set =    -1038.2797224737
   10   -1038.2783745626      8.51e-07  Convergence criterion met
   10   -1038.2805115021      9.25e-07  Convergence criterion met
 Total energy in the final basis set =    -1038.2805115021
   10   -1038.2805217507      9.27e-07  Convergence criterion met
 Total energy in the final basis set =    -1038.2805217507
   10   -1038.2805309353      9.28e-07  Convergence criterion met
 Total energy in the final basis set =    -1038.2805309353
   10   -1038.2805380575      9.28e-07  Convergence criterion met
 Total energy in the final basis set =    -1038.2805380575
   10   -1038.2805421946      9.29e-07  Convergence criterion met
 Total energy in the final basis set =    -1038.2805421946
   10   -1038.2805440773      9.30e-07  Convergence criterion met
 Total energy in the final basis set =    -1038.2805440773

             Standard Nuclear Orientation (Angstroms)
    I     Atom           X                Y                Z
 ----------------------------------------------------------------
    1      Cl     -1.5506645059     1.8736732138     0.2758653688
    2      Cl      2.0069590732    -0.1635959999     0.5756159757
    3      C      -0.5027297985    -0.4577149375    -0.5938828642
    4      C       0.9082278558    -0.0686321995    -0.8418676481
    5      C      -0.9328532684    -1.3902007323     0.4650995126
    6      H      -1.1385059048    -0.3446271783    -1.4691907342
    7      H       1.3072419999    -0.7608514677    -1.5994495494
    8      H       0.9558714234     0.9416023020    -1.2476876639
    9      H      -0.4797681877    -1.1452817143     1.4268873196
   10      H      -2.0185443293    -1.4215604742     0.5493184556
   11      H      -0.5749343577    -2.3974108121     0.1840898274
 ----------------------------------------------------------------

   10   -1038.2805450383      9.31e-07  Convergence criterion met
 Total energy in the final basis set =    -1038.2805450383

                    Orbital Energies (a.u.)
 --------------------------------------------------------------

 Alpha MOs
 -- Occupied --
*******-101.479 -10.319 -10.292 -10.231  -9.479  -9.391  -7.244
 -7.233  -7.233  -7.154  -7.147  -7.147  -0.900  -0.823  -0.738
 -0.718  -0.616  -0.526  -0.505  -0.472  -0.450  -0.427  -0.410
 -0.328  -0.325  -0.276  -0.253  -0.252

 Beta MOs
 -- Occupied --
*******-101.479 -10.319 -10.292 -10.231  -9.479  -9.391  -7.244
 -7.233  -7.233  -7.154  -7.147  -7.147  -0.900  -0.823  -0.738
 -0.718  -0.616  -0.526  -0.505  -0.472  -0.450  -0.427  -0.410
 -0.328  -0.325  -0.276  -0.253  -0.252

          Ground-State Mulliken Net Atomic Charges

     Atom                 Charge (a.u.)    Spin (a.u.)
  --------------------------------------------------------
      1 Cl                   -0.456056      -0.000000
      2 Cl                   -0.028799       0.000000
      3 C                     0.038459       0.000000
      4 C                    -0.312047       0.000000
      5 C                    -0.340609      -0.000000
      6 H                     0.189376       0.000000
      7 H                     0.182008      -0.000000
      8 H                     0.224008       0.000000
      9 H                     0.188618       0.000000
     10 H                     0.168807      -0.000000
     11 H                     0.146234       0.000000
  --------------------------------------------------------
  Sum of atomic charges =    -0.000000

                    Cartesian Multipole Moments
 -----------------------------------------------------------------
    Charge (ESU x 10^10)
                -0.0000
    Dipole Moment (Debye)
         X       1.4838      Y      -5.3032      Z      -2.8148
       Tot       6.1845
    Quadrupole Moments (Debye-Ang)
        XX     -50.1634     XY       7.5861     YY     -49.3017
        XZ      -0.6778     YZ      -1.0516     ZZ     -41.4993

 Final energy is   -1038.28054503825
 **  OPTIMIZATION CONVERGED  **
 Total job time:  80.60s(wall), 944.20s(cpu)
        *  Thank you very much for using Q-Chem.  Have a nice day.  *
