 Q-Chem 5.1, Q-Chem, Inc., Pleasanton, CA (2018)
 Q-Chem 5.1.1 for Intel X86 EM64T Linux

User input:
--------------------------------------------------------------

$comment
potential surface scanner
$end

$rem
JOBTYPE  PES_SCAN
UNRESTRICTED TRUE
SYM_IGNORE  TRUE
GEOM_OPT_MAX_CYCLES 400
SCF_MAX_CYCLES 400
METHOD   B3LYP
BASIS   6-31G**
PDB_PRINT 2
SCF_CONVERGENCE 6
THRESH 14
SCF_PRINT 1
$end
$molecule
0 3
Cl 1.014738 2.976490 -1.719234
Cl 0.683225 1.446838 0.522777
C -0.906645 -0.845317 -0.027467
C -0.280993 0.209902 -0.760487
C -0.200825 -2.085519 0.391484
H -1.902968 -0.665781 0.370374
H 0.560340 -0.064936 -1.391579
H -0.937383 0.937972 -1.226225
H 0.123181 -2.009362 1.441559
H -0.862855 -2.957064 0.336453
H 0.690482 -2.277823 -0.212855
$end
$scan
stre 1 3 4.500000 4.501000 0.100000
$end
--------------------------------------------------------------

   11   -1038.2345703154      9.78e-07  Convergence criterion met
 Total energy in the final basis set =    -1038.2345703154
   11   -1038.2326321566      9.65e-07  Convergence criterion met
 Total energy in the final basis set =    -1038.2326321566
   11   -1038.2334627187      9.36e-07  Convergence criterion met
 Total energy in the final basis set =    -1038.2334627187
   11   -1038.2336848426      9.05e-07  Convergence criterion met
 Total energy in the final basis set =    -1038.2336848426
   11   -1038.2336959196      9.05e-07  Convergence criterion met
 Total energy in the final basis set =    -1038.2336959196
   11   -1038.2337009008      9.10e-07  Convergence criterion met
 Total energy in the final basis set =    -1038.2337009008
   11   -1038.2337023614      9.15e-07  Convergence criterion met
 Total energy in the final basis set =    -1038.2337023614

             Standard Nuclear Orientation (Angstroms)
    I     Atom           X                Y                Z
 ----------------------------------------------------------------
    1      Cl      0.9971043129     2.8741875267    -1.7292959518
    2      Cl      0.6766753226     1.4486618306     0.5545387395
    3      C      -0.9027818348    -0.8347561151    -0.0310116099
    4      C      -0.2835425609     0.2205930810    -0.7569443671
    5      C      -0.1956267348    -2.0759436830     0.3832612448
    6      H      -1.9003631743    -0.6613530422     0.3668516147
    7      H       0.5633652111    -0.0421571378    -1.3850471049
    8      H      -0.9405129215     0.9523469412    -1.2145292574
    9      H       0.1206126048    -2.0062422492     1.4360355358
   10      H      -0.8547816033    -2.9489854524     0.3175880555
   11      H       0.7001483783    -2.2609516998    -0.2166468992
 ----------------------------------------------------------------

   11   -1038.2337032937      9.20e-07  Convergence criterion met
 Total energy in the final basis set =    -1038.2337032937

                    Orbital Energies (a.u.)
 --------------------------------------------------------------

 Alpha MOs
 -- Occupied --
*******-101.525 -10.265 -10.249 -10.215  -9.474  -9.438  -7.238
 -7.234  -7.227  -7.209  -7.191  -7.191  -0.865  -0.811  -0.774
 -0.722  -0.608  -0.511  -0.469  -0.455  -0.414  -0.408  -0.397
 -0.377  -0.324  -0.294  -0.290  -0.285  -0.246

 Beta MOs
 -- Occupied --
*******-101.519 -10.265 -10.238 -10.216  -9.470  -9.433  -7.230
 -7.225  -7.224  -7.191  -7.188  -7.188  -0.845  -0.789  -0.736
 -0.714  -0.594  -0.506  -0.462  -0.438  -0.408  -0.395  -0.387
 -0.329  -0.315  -0.281  -0.278

          Ground-State Mulliken Net Atomic Charges

     Atom                 Charge (a.u.)    Spin (a.u.)
  --------------------------------------------------------
      1 Cl                   -0.220968       0.750666
      2 Cl                   -0.066874       0.493444
      3 C                    -0.004274       0.811722
      4 C                    -0.284594      -0.046334
      5 C                    -0.354383      -0.059721
      6 H                     0.128496      -0.035828
      7 H                     0.187497       0.005499
      8 H                     0.196096       0.004863
      9 H                     0.151567       0.050411
     10 H                     0.136548       0.020463
     11 H                     0.130888       0.004815
  --------------------------------------------------------
  Sum of atomic charges =    -0.000000

                    Cartesian Multipole Moments
 -----------------------------------------------------------------
    Charge (ESU x 10^10)
                -0.0000
    Dipole Moment (Debye)
         X      -2.2220      Y      -4.7414      Z       0.7851
       Tot       5.2948
    Quadrupole Moments (Debye-Ang)
        XX     -45.1281     XY      -3.4025     YY     -52.3174
        XZ       1.2956     YZ       2.9559     ZZ     -46.1637

 Final energy is   -1038.23370329367
 **  OPTIMIZATION CONVERGED  **
 Total job time:  28.92s(wall), 331.90s(cpu)
        *  Thank you very much for using Q-Chem.  Have a nice day.  *
