 Q-Chem 5.1, Q-Chem, Inc., Pleasanton, CA (2018)
 Q-Chem 5.1.1 for Intel X86 EM64T Linux

User input:
--------------------------------------------------------------

$comment
potential surface scanner
$end

$rem
JOBTYPE  PES_SCAN
UNRESTRICTED TRUE
SYM_IGNORE  TRUE
GEOM_OPT_MAX_CYCLES 400
SCF_MAX_CYCLES 400
METHOD   B3LYP
BASIS   6-31G**
PDB_PRINT 2
SCF_CONVERGENCE 6
THRESH 14
SCF_PRINT 1
$end
$molecule
0 3
Cl 1.023099 3.100146 -1.670877
Cl 0.693741 1.424617 0.487813
C -0.912541 -0.858736 -0.036695
C -0.273962 0.195130 -0.772239
C -0.207233 -2.091898 0.403288
H -1.911090 -0.672469 0.351846
H 0.559070 -0.095904 -1.407830
H -0.929390 0.918125 -1.248102
H 0.153677 -1.981435 1.438527
H -0.878241 -2.957675 0.400385
H 0.663167 -2.314501 -0.221315
$end
$scan
stre 1 3 4.600000 4.601000 0.100000
$end
--------------------------------------------------------------

   12   -1038.2349127369      6.46e-07  Convergence criterion met
 Total energy in the final basis set =    -1038.2349127369
   12   -1038.2333780071      6.27e-07  Convergence criterion met
 Total energy in the final basis set =    -1038.2333780071
   11   -1038.2342419075      9.77e-07  Convergence criterion met
 Total energy in the final basis set =    -1038.2342419075
   11   -1038.2345237755      9.45e-07  Convergence criterion met
 Total energy in the final basis set =    -1038.2345237755
   11   -1038.2345445957      9.50e-07  Convergence criterion met
 Total energy in the final basis set =    -1038.2345445957
   11   -1038.2345557867      9.65e-07  Convergence criterion met
 Total energy in the final basis set =    -1038.2345557867
   11   -1038.2345592210      9.78e-07  Convergence criterion met
 Total energy in the final basis set =    -1038.2345592210
   11   -1038.2345611309      9.88e-07  Convergence criterion met
 Total energy in the final basis set =    -1038.2345611309
   11   -1038.2345625203      9.94e-07  Convergence criterion met
 Total energy in the final basis set =    -1038.2345625203
   11   -1038.2345644286      9.99e-07  Convergence criterion met
 Total energy in the final basis set =    -1038.2345644286
   11   -1038.2345665890      9.98e-07  Convergence criterion met
 Total energy in the final basis set =    -1038.2345665890
   11   -1038.2345685806      9.91e-07  Convergence criterion met
 Total energy in the final basis set =    -1038.2345685806
   11   -1038.2345697107      9.83e-07  Convergence criterion met
 Total energy in the final basis set =    -1038.2345697107

             Standard Nuclear Orientation (Angstroms)
    I     Atom           X                Y                Z
 ----------------------------------------------------------------
    1      Cl      1.0147383480     2.9764895339    -1.7192341161
    2      Cl      0.6832251481     1.4468383133     0.5227771658
    3      C      -0.9066453811    -0.8453173776    -0.0274668313
    4      C      -0.2809925092     0.2099024630    -0.7604865755
    5      C      -0.2008251334    -2.0855187959     0.3914837475
    6      H      -1.9029681587    -0.6657813575     0.3703737636
    7      H       0.5603398288    -0.0649355627    -1.3915794417
    8      H      -0.9373826536     0.9379720114    -1.2262247923
    9      H       0.1231810363    -2.0093620488     1.4415593124
   10      H      -0.8628552399    -2.9570644522     0.3364534984
   11      H       0.6904817147    -2.2778227268    -0.2128547308
 ----------------------------------------------------------------

   11   -1038.2345703174      9.78e-07  Convergence criterion met
 Total energy in the final basis set =    -1038.2345703174

                    Orbital Energies (a.u.)
 --------------------------------------------------------------

 Alpha MOs
 -- Occupied --
*******-101.526 -10.266 -10.249 -10.215  -9.474  -9.439  -7.238
 -7.233  -7.227  -7.210  -7.192  -7.192  -0.864  -0.811  -0.775
 -0.721  -0.608  -0.510  -0.468  -0.455  -0.414  -0.409  -0.397
 -0.376  -0.323  -0.295  -0.291  -0.287  -0.245

 Beta MOs
 -- Occupied --
*******-101.520 -10.266 -10.237 -10.216  -9.470  -9.434  -7.231
 -7.225  -7.224  -7.193  -7.189  -7.189  -0.845  -0.788  -0.736
 -0.714  -0.594  -0.505  -0.462  -0.438  -0.408  -0.395  -0.388
 -0.328  -0.315  -0.282  -0.278

          Ground-State Mulliken Net Atomic Charges

     Atom                 Charge (a.u.)    Spin (a.u.)
  --------------------------------------------------------
      1 Cl                   -0.216566       0.758585
      2 Cl                   -0.065394       0.476394
      3 C                    -0.005237       0.823544
      4 C                    -0.286182      -0.049625
      5 C                    -0.354159      -0.060723
      6 H                     0.128361      -0.036334
      7 H                     0.185763       0.005829
      8 H                     0.195207       0.005561
      9 H                     0.151302       0.051277
     10 H                     0.136391       0.020387
     11 H                     0.130513       0.005107
  --------------------------------------------------------
  Sum of atomic charges =     0.000000

                    Cartesian Multipole Moments
 -----------------------------------------------------------------
    Charge (ESU x 10^10)
                -0.0000
    Dipole Moment (Debye)
         X      -2.2097      Y      -4.7839      Z       0.7568
       Tot       5.3236
    Quadrupole Moments (Debye-Ang)
        XX     -45.1642     XY      -3.4776     YY     -52.6587
        XZ       1.2664     YZ       2.9602     ZZ     -46.0706

 Final energy is   -1038.23457031741
 **  OPTIMIZATION CONVERGED  **
 Total job time:  49.57s(wall), 579.53s(cpu)
        *  Thank you very much for using Q-Chem.  Have a nice day.  *
