 Q-Chem 5.1, Q-Chem, Inc., Pleasanton, CA (2018)
 Q-Chem 5.1.1 for Intel X86 EM64T Linux

User input:
--------------------------------------------------------------

$comment
potential surface scanner
$end

$rem
JOBTYPE  PES_SCAN
UNRESTRICTED TRUE
SYM_IGNORE  TRUE
GEOM_OPT_MAX_CYCLES 400
SCF_MAX_CYCLES 400
METHOD   B3LYP
BASIS   6-31G**
PDB_PRINT 2
SCF_CONVERGENCE 6
THRESH 14
SCF_PRINT 1
$end
$molecule
0 3
Cl -0.431824 1.484698 0.423417
Cl 2.308525 1.254202 0.365381
C -0.848472 -0.426240 -0.341253
C -0.263356 -0.400732 -1.643449
C -0.305976 -1.384239 0.689157
H -1.930454 -0.304243 -0.323192
H 0.766778 -0.708754 -1.786292
H -0.782702 0.061294 -2.475479
H -0.706998 -1.169324 1.680948
H -0.609695 -2.400188 0.407156
H 0.784476 -1.341078 0.728409
$end
$scan
stre 1 3 2.000000 2.001000 0.100000
$end
--------------------------------------------------------------

   11   -1038.2312862050      7.01e-07  Convergence criterion met
 Total energy in the final basis set =    -1038.2312862050
   11   -1038.2306415307      7.19e-07  Convergence criterion met
 Total energy in the final basis set =    -1038.2306415307
   11   -1038.2311438416      6.93e-07  Convergence criterion met
 Total energy in the final basis set =    -1038.2311438416
   11   -1038.2314739164      6.70e-07  Convergence criterion met
 Total energy in the final basis set =    -1038.2314739164
   11   -1038.2314781217      6.72e-07  Convergence criterion met
 Total energy in the final basis set =    -1038.2314781217
   11   -1038.2314800484      6.75e-07  Convergence criterion met
 Total energy in the final basis set =    -1038.2314800484

             Standard Nuclear Orientation (Angstroms)
    I     Atom           X                Y                Z
 ----------------------------------------------------------------
    1      Cl     -0.4406984382     1.4359759111     0.4220461767
    2      Cl      2.3164979213     1.2711562168     0.3594521583
    3      C      -0.8362816777    -0.3791705026    -0.3187354375
    4      C      -0.2627650524    -0.4055941077    -1.6447368044
    5      C      -0.3077633044    -1.3756873791     0.6904485218
    6      H      -1.9236883251    -0.2976441344    -0.3174439404
    7      H       0.7649336521    -0.7217717207    -1.7865633831
    8      H      -0.7852043408     0.0438581043    -2.4816051639
    9      H      -0.7143283900    -1.1862527576     1.6855958105
   10      H      -0.6131219642    -2.3808461478     0.3765919739
   11      H       0.7827219195    -1.3386274824     0.7397530881
 ----------------------------------------------------------------

   11   -1038.2314810260      6.76e-07  Convergence criterion met
 Total energy in the final basis set =    -1038.2314810260

                    Orbital Energies (a.u.)
 --------------------------------------------------------------

 Alpha MOs
 -- Occupied --
*******-101.528 -10.282 -10.238 -10.208  -9.477  -9.441  -7.240
 -7.236  -7.230  -7.212  -7.194  -7.194  -0.873  -0.796  -0.775
 -0.721  -0.607  -0.506  -0.466  -0.456  -0.407  -0.399  -0.387
 -0.374  -0.330  -0.296  -0.291  -0.287  -0.255

 Beta MOs
 -- Occupied --
*******-101.523 -10.283 -10.225 -10.208  -9.473  -9.436  -7.234
 -7.228  -7.227  -7.194  -7.191  -7.191  -0.858  -0.775  -0.736
 -0.704  -0.597  -0.500  -0.460  -0.448  -0.400  -0.394  -0.373
 -0.328  -0.320  -0.283  -0.279

          Ground-State Mulliken Net Atomic Charges

     Atom                 Charge (a.u.)    Spin (a.u.)
  --------------------------------------------------------
      1 Cl                   -0.040340       0.431915
      2 Cl                   -0.214294       0.764919
      3 C                    -0.173297      -0.060581
      4 C                    -0.145023       0.930360
      5 C                    -0.311905       0.005666
      6 H                     0.170455       0.008022
      7 H                     0.151678      -0.039864
      8 H                     0.136188      -0.040416
      9 H                     0.137755       0.002811
     10 H                     0.129701      -0.001617
     11 H                     0.159081      -0.001216
  --------------------------------------------------------
  Sum of atomic charges =    -0.000000

                    Cartesian Multipole Moments
 -----------------------------------------------------------------
    Charge (ESU x 10^10)
                -0.0000
    Dipole Moment (Debye)
         X      -3.0001      Y      -3.1021      Z      -1.4376
       Tot       4.5487
    Quadrupole Moments (Debye-Ang)
        XX     -47.3109     XY      -2.6139     YY     -47.2385
        XZ      -0.5349     YZ      -0.9986     ZZ     -42.9725

 Final energy is   -1038.23148102597
 **  OPTIMIZATION CONVERGED  **
 Total job time:  26.23s(wall), 301.51s(cpu)
        *  Thank you very much for using Q-Chem.  Have a nice day.  *
