 Q-Chem 5.1, Q-Chem, Inc., Pleasanton, CA (2018)
 Q-Chem 5.1.1 for Intel X86 EM64T Linux

User input:
--------------------------------------------------------------

$comment
potential surface scanner
$end

$rem
JOBTYPE  PES_SCAN
UNRESTRICTED TRUE
SYM_IGNORE  TRUE
GEOM_OPT_MAX_CYCLES 400
SCF_MAX_CYCLES 400
METHOD   B3LYP
BASIS   6-31G**
PDB_PRINT 2
SCF_CONVERGENCE 6
THRESH 14
SCF_PRINT 1
$end
$molecule
0 1
Cl -1.271337 1.376813 0.223864
Cl 1.954052 0.118637 0.611689
C -0.615377 -0.179542 -0.477229
C 0.860334 -0.027482 -0.823928
C -0.945393 -1.347408 0.440549
H -1.141317 -0.286818 -1.431387
H 1.187714 -0.914977 -1.371435
H 1.028018 0.858113 -1.436294
H -0.469897 -1.223340 1.415209
H -2.024892 -1.429544 0.581904
H -0.581605 -2.279052 -0.008144
$end
$scan
stre 1 3 1.700000 1.701000 0.100000
$end
--------------------------------------------------------------

    9   -1038.3416009812      3.04e-07  Convergence criterion met
 Total energy in the final basis set =    -1038.3416009812
    9   -1038.3352306535      4.81e-07  Convergence criterion met
 Total energy in the final basis set =    -1038.3352306535
    9   -1038.3355837670      4.82e-07  Convergence criterion met
 Total energy in the final basis set =    -1038.3355837670
    9   -1038.3357381949      4.79e-07  Convergence criterion met
 Total energy in the final basis set =    -1038.3357381949
    9   -1038.3357400423      4.80e-07  Convergence criterion met
 Total energy in the final basis set =    -1038.3357400423
    9   -1038.3357413023      4.80e-07  Convergence criterion met
 Total energy in the final basis set =    -1038.3357413023
    9   -1038.3357425010      4.81e-07  Convergence criterion met
 Total energy in the final basis set =    -1038.3357425010

             Standard Nuclear Orientation (Angstroms)
    I     Atom           X                Y                Z
 ----------------------------------------------------------------
    1      Cl     -1.2397877222     1.3102092974     0.2047703552
    2      Cl      1.9556712071     0.1408387046     0.6105037519
    3      C      -0.6326721838    -0.1341601753    -0.4549332862
    4      C       0.8523627728    -0.0243615295    -0.8189584729
    5      C      -0.9459804301    -1.3395863260     0.4367737716
    6      H      -1.1344992906    -0.2831203444    -1.4204885422
    7      H       1.1638543996    -0.9283342724    -1.3463221745
    8      H       1.0337876392     0.8463866843    -1.4493874861
    9      H      -0.4708492814    -1.2312446334     1.4140460804
   10      H      -2.0248184290    -1.4334130742     0.5808918198
   11      H      -0.5767686817    -2.2578143312    -0.0320978169
 ----------------------------------------------------------------

    9   -1038.3357434607      4.81e-07  Convergence criterion met
 Total energy in the final basis set =    -1038.3357434607

                    Orbital Energies (a.u.)
 --------------------------------------------------------------

 Alpha MOs
 -- Occupied --
*******-101.538 -10.263 -10.260 -10.196  -9.459  -9.454  -7.223
 -7.218  -7.213  -7.213  -7.208  -7.208  -0.905  -0.844  -0.754
 -0.697  -0.590  -0.498  -0.485  -0.457  -0.415  -0.399  -0.387
 -0.378  -0.311  -0.303  -0.296  -0.296

 Beta MOs
 -- Occupied --
*******-101.538 -10.263 -10.260 -10.196  -9.459  -9.454  -7.223
 -7.218  -7.213  -7.213  -7.208  -7.208  -0.905  -0.844  -0.754
 -0.697  -0.590  -0.498  -0.485  -0.457  -0.415  -0.399  -0.387
 -0.378  -0.311  -0.303  -0.296  -0.296

          Ground-State Mulliken Net Atomic Charges

     Atom                 Charge (a.u.)    Spin (a.u.)
  --------------------------------------------------------
      1 Cl                   -0.019824       0.000000
      2 Cl                   -0.077892      -0.000000
      3 C                    -0.194033      -0.000000
      4 C                    -0.268433       0.000000
      5 C                    -0.305767      -0.000000
      6 H                     0.152922       0.000000
      7 H                     0.158051       0.000000
      8 H                     0.168304      -0.000000
      9 H                     0.148495       0.000000
     10 H                     0.126260       0.000000
     11 H                     0.111917       0.000000
  --------------------------------------------------------
  Sum of atomic charges =     0.000000

                    Cartesian Multipole Moments
 -----------------------------------------------------------------
    Charge (ESU x 10^10)
                 0.0000
    Dipole Moment (Debye)
         X      -0.7722      Y      -1.7209      Z      -2.0120
       Tot       2.7579
    Quadrupole Moments (Debye-Ang)
        XX     -48.0120     XY       1.4137     YY     -44.9583
        XZ      -1.3375     YZ      -0.0910     ZZ     -42.7157

 Final energy is   -1038.33574346073
 **  OPTIMIZATION CONVERGED  **
 Total job time:  29.20s(wall), 303.56s(cpu)
        *  Thank you very much for using Q-Chem.  Have a nice day.  *
