 Q-Chem 5.1, Q-Chem, Inc., Pleasanton, CA (2018)
 Q-Chem 5.1.1 for Intel X86 EM64T Linux

User input:
--------------------------------------------------------------

$comment
potential surface scanner
$end

$rem
JOBTYPE  PES_SCAN
UNRESTRICTED TRUE
SYM_IGNORE  TRUE
GEOM_OPT_MAX_CYCLES 400
SCF_MAX_CYCLES 400
METHOD   B3LYP
BASIS   6-31G**
PDB_PRINT 2
SCF_CONVERGENCE 6
THRESH 14
SCF_PRINT 1
$end
$molecule
0 3
Cl -0.398317 1.590312 0.375516
Cl 2.312346 1.220523 0.403644
C -0.878356 -0.526753 -0.384484
C -0.272142 -0.385564 -1.635250
C -0.303918 -1.405725 0.685283
H -1.947390 -0.334073 -0.330940
H 0.767727 -0.659447 -1.779445
H -0.792288 0.096319 -2.455677
H -0.693033 -1.139185 1.669187
H -0.600636 -2.442178 0.474283
H 0.786309 -1.348832 0.702687
$end
$scan
stre 1 3 2.200000 2.201000 0.100000
$end
--------------------------------------------------------------

   12   -1038.2306256003      5.81e-07  Convergence criterion met
 Total energy in the final basis set =    -1038.2306256003
   11   -1038.2301695380      8.54e-07  Convergence criterion met
 Total energy in the final basis set =    -1038.2301695380
   11   -1038.2305014496      9.25e-07  Convergence criterion met
 Total energy in the final basis set =    -1038.2305014496
   12   -1038.2308662161      4.68e-07  Convergence criterion met
 Total energy in the final basis set =    -1038.2308662161
   12   -1038.2308702763      4.68e-07  Convergence criterion met
 Total energy in the final basis set =    -1038.2308702763
   12   -1038.2308748248      4.67e-07  Convergence criterion met
 Total energy in the final basis set =    -1038.2308748248
   12   -1038.2308772965      4.66e-07  Convergence criterion met
 Total energy in the final basis set =    -1038.2308772965
   12   -1038.2308804517      4.64e-07  Convergence criterion met
 Total energy in the final basis set =    -1038.2308804517
   12   -1038.2308825005      4.63e-07  Convergence criterion met
 Total energy in the final basis set =    -1038.2308825005
   12   -1038.2308842646      4.62e-07  Convergence criterion met
 Total energy in the final basis set =    -1038.2308842646
   12   -1038.2308855889      4.61e-07  Convergence criterion met
 Total energy in the final basis set =    -1038.2308855889
   12   -1038.2308866665      4.61e-07  Convergence criterion met
 Total energy in the final basis set =    -1038.2308866665

             Standard Nuclear Orientation (Angstroms)
    I     Atom           X                Y                Z
 ----------------------------------------------------------------
    1      Cl     -0.4198964821     1.5338678009     0.4152209988
    2      Cl      2.3070884771     1.2404738066     0.3655771386
    3      C      -0.8626375131    -0.4757361743    -0.3628999715
    4      C      -0.2638419314    -0.3931147330    -1.6384893837
    5      C      -0.3064633822    -1.3954319863     0.6879171508
    6      H      -1.9379561672    -0.3140514707    -0.3288205401
    7      H       0.7694046288    -0.6909285371    -1.7812088420
    8      H      -0.7799898199     0.0821552744    -2.4651473540
    9      H      -0.7044133860    -1.1564915865     1.6752558152
   10      H      -0.6047410995    -2.4221813739     0.4384249299
   11      H       0.7837486754    -1.3431640202     0.7189740580
 ----------------------------------------------------------------

   12   -1038.2308873250      4.61e-07  Convergence criterion met
 Total energy in the final basis set =    -1038.2308873250

                    Orbital Energies (a.u.)
 --------------------------------------------------------------

 Alpha MOs
 -- Occupied --
*******-101.520 -10.283 -10.251 -10.212  -9.467  -9.433  -7.231
 -7.226  -7.220  -7.204  -7.186  -7.186  -0.861  -0.801  -0.768
 -0.729  -0.611  -0.514  -0.467  -0.459  -0.410  -0.400  -0.382
 -0.373  -0.324  -0.289  -0.284  -0.279  -0.266

 Beta MOs
 -- Occupied --
*******-101.515 -10.284 -10.240 -10.212  -9.462  -9.428  -7.221
 -7.218  -7.217  -7.186  -7.183  -7.183  -0.846  -0.772  -0.729
 -0.716  -0.603  -0.509  -0.462  -0.451  -0.406  -0.397  -0.353
 -0.322  -0.313  -0.277  -0.272

          Ground-State Mulliken Net Atomic Charges

     Atom                 Charge (a.u.)    Spin (a.u.)
  --------------------------------------------------------
      1 Cl                   -0.112486       0.593823
      2 Cl                   -0.236656       0.741400
      3 C                    -0.123944      -0.048043
      4 C                    -0.125419       0.772752
      5 C                    -0.321454       0.004643
      6 H                     0.170122       0.003903
      7 H                     0.160082      -0.033506
      8 H                     0.145368      -0.033662
      9 H                     0.146034       0.002541
     10 H                     0.133923      -0.002486
     11 H                     0.164429      -0.001365
  --------------------------------------------------------
  Sum of atomic charges =    -0.000000

                    Cartesian Multipole Moments
 -----------------------------------------------------------------
    Charge (ESU x 10^10)
                 0.0000
    Dipole Moment (Debye)
         X      -3.2672      Y      -3.7358      Z      -1.8515
       Tot       5.2971
    Quadrupole Moments (Debye-Ang)
        XX     -47.7959     XY      -2.6830     YY     -47.6263
        XZ      -0.5707     YZ      -1.1153     ZZ     -42.2202

 Final energy is   -1038.23088732497
 **  OPTIMIZATION CONVERGED  **
 Total job time:  50.29s(wall), 585.43s(cpu)
        *  Thank you very much for using Q-Chem.  Have a nice day.  *
