 Q-Chem 5.1, Q-Chem, Inc., Pleasanton, CA (2018)
 Q-Chem 5.1.1 for Intel X86 EM64T Linux

User input:
--------------------------------------------------------------

$comment
potential surface scanner
$end

$rem
JOBTYPE  PES_SCAN
UNRESTRICTED TRUE
SYM_IGNORE  TRUE
GEOM_OPT_MAX_CYCLES 400
SCF_MAX_CYCLES 400
METHOD   B3LYP
BASIS   6-31G**
PDB_PRINT 2
SCF_CONVERGENCE 6
THRESH 14
SCF_PRINT 1
$end
$molecule
0 1
Cl -1.271337 1.376813 0.223864
Cl 1.954052 0.118637 0.611689
C -0.615377 -0.179542 -0.477229
C 0.860334 -0.027482 -0.823928
C -0.945393 -1.347408 0.440549
H -1.141317 -0.286818 -1.431387
H 1.187714 -0.914977 -1.371435
H 1.028018 0.858113 -1.436294
H -0.469897 -1.223340 1.415209
H -2.024892 -1.429544 0.581904
H -0.581605 -2.279052 -0.008144
$end
$scan
stre 1 3 1.600000 1.601000 0.100000
$end
--------------------------------------------------------------

    9   -1038.3416009812      3.04e-07  Convergence criterion met
 Total energy in the final basis set =    -1038.3416009812
    9   -1038.3321207240      4.78e-07  Convergence criterion met
 Total energy in the final basis set =    -1038.3321207240
    9   -1038.3177569672      4.70e-07  Convergence criterion met
 Total energy in the final basis set =    -1038.3177569672
    9   -1038.3184340046      4.80e-07  Convergence criterion met
 Total energy in the final basis set =    -1038.3184340046
    9   -1038.3192640473      4.95e-07  Convergence criterion met
 Total energy in the final basis set =    -1038.3192640473
    9   -1038.3192812131      4.96e-07  Convergence criterion met
 Total energy in the final basis set =    -1038.3192812131
    9   -1038.3192928789      4.97e-07  Convergence criterion met
 Total energy in the final basis set =    -1038.3192928789
    9   -1038.3192940752      4.97e-07  Convergence criterion met
 Total energy in the final basis set =    -1038.3192940752
    9   -1038.3192994119      4.96e-07  Convergence criterion met
 Total energy in the final basis set =    -1038.3192994119
    9   -1038.3193013584      4.96e-07  Convergence criterion met
 Total energy in the final basis set =    -1038.3193013584
    9   -1038.3193036856      4.96e-07  Convergence criterion met
 Total energy in the final basis set =    -1038.3193036856

             Standard Nuclear Orientation (Angstroms)
    I     Atom           X                Y                Z
 ----------------------------------------------------------------
    1      Cl     -1.2171246110     1.2585466244     0.1897764602
    2      Cl      1.9565688021     0.1604094452     0.6102023464
    3      C      -0.6464972230    -0.0983186382    -0.4373607187
    4      C       0.8468615626    -0.0225085589    -0.8144780151
    5      C      -0.9463962102    -1.3343234101     0.4331056292
    6      H      -1.1278852668    -0.2795067214    -1.4120689344
    7      H       1.1470501282    -0.9390068259    -1.3249703611
    8      H       1.0372795282     0.8359700980    -1.4597881787
    9      H      -0.4679465420    -1.2387594649     1.4105623890
   10      H      -2.0245794491    -1.4340475629     0.5820224152
   11      H      -0.5770307190    -2.2430549852    -0.0522050321
 ----------------------------------------------------------------

    9   -1038.3193045659      4.96e-07  Convergence criterion met
 Total energy in the final basis set =    -1038.3193045659

                    Orbital Energies (a.u.)
 --------------------------------------------------------------

 Alpha MOs
 -- Occupied --
*******-101.536 -10.257 -10.257 -10.193  -9.464  -9.452  -7.228
 -7.218  -7.218  -7.216  -7.207  -7.206  -0.929  -0.846  -0.750
 -0.694  -0.589  -0.502  -0.484  -0.463  -0.414  -0.406  -0.386
 -0.381  -0.312  -0.300  -0.294  -0.292

 Beta MOs
 -- Occupied --
*******-101.536 -10.257 -10.257 -10.193  -9.464  -9.452  -7.228
 -7.218  -7.218  -7.216  -7.207  -7.206  -0.929  -0.846  -0.750
 -0.694  -0.589  -0.502  -0.484  -0.463  -0.414  -0.406  -0.386
 -0.381  -0.312  -0.300  -0.294  -0.292

          Ground-State Mulliken Net Atomic Charges

     Atom                 Charge (a.u.)    Spin (a.u.)
  --------------------------------------------------------
      1 Cl                    0.019533      -0.000000
      2 Cl                   -0.083182       0.000000
      3 C                    -0.200673      -0.000000
      4 C                    -0.271207       0.000000
      5 C                    -0.309080      -0.000000
      6 H                     0.146108       0.000000
      7 H                     0.156569      -0.000000
      8 H                     0.164358      -0.000000
      9 H                     0.145273       0.000000
     10 H                     0.122427      -0.000000
     11 H                     0.109873       0.000000
  --------------------------------------------------------
  Sum of atomic charges =     0.000000

                    Cartesian Multipole Moments
 -----------------------------------------------------------------
    Charge (ESU x 10^10)
                -0.0000
    Dipole Moment (Debye)
         X      -0.9285      Y      -1.4894      Z      -1.9415
       Tot       2.6172
    Quadrupole Moments (Debye-Ang)
        XX     -47.9126     XY       1.0562     YY     -44.7813
        XZ      -1.3783     YZ      -0.0692     ZZ     -42.8038

 Final energy is   -1038.31930456594
 **  OPTIMIZATION CONVERGED  **
 Total job time:  39.85s(wall), 456.39s(cpu)
        *  Thank you very much for using Q-Chem.  Have a nice day.  *
