 Q-Chem 5.1, Q-Chem, Inc., Pleasanton, CA (2018)
 Q-Chem 5.1.1 for Intel X86 EM64T Linux

User input:
--------------------------------------------------------------

$comment
potential surface scanner
$end

$rem
JOBTYPE  PES_SCAN
UNRESTRICTED TRUE
SYM_IGNORE  TRUE
GEOM_OPT_MAX_CYCLES 400
SCF_MAX_CYCLES 400
METHOD   B3LYP
BASIS   6-31G**
PDB_PRINT 2
SCF_CONVERGENCE 6
THRESH 14
SCF_PRINT 1
$end
$molecule
0 1
Cl -1.271337 1.376813 0.223864
Cl 1.954052 0.118637 0.611689
C -0.615377 -0.179542 -0.477229
C 0.860334 -0.027482 -0.823928
C -0.945393 -1.347408 0.440549
H -1.141317 -0.286818 -1.431387
H 1.187714 -0.914977 -1.371435
H 1.028018 0.858113 -1.436294
H -0.469897 -1.223340 1.415209
H -2.024892 -1.429544 0.581904
H -0.581605 -2.279052 -0.008144
$end
$scan
stre 1 3 1.000000 1.001000 0.100000
$end
--------------------------------------------------------------

    9   -1038.3416009812      3.04e-07  Convergence criterion met
 Total energy in the final basis set =    -1038.3416009812
    9   -1038.3321207240      4.78e-07  Convergence criterion met
 Total energy in the final basis set =    -1038.3321207240
    9   -1038.2933894752      4.57e-07  Convergence criterion met
 Total energy in the final basis set =    -1038.2933894752
    9   -1038.2221940509      4.68e-07  Convergence criterion met
 Total energy in the final basis set =    -1038.2221940509
    9   -1038.1186120753      5.04e-07  Convergence criterion met
 Total energy in the final basis set =    -1038.1186120753
    9   -1037.9545888058      5.80e-07  Convergence criterion met
 Total energy in the final basis set =    -1037.9545888058
    9   -1037.7266043535      7.41e-07  Convergence criterion met
 Total energy in the final basis set =    -1037.7266043535
   10   -1037.4495449632      3.20e-07  Convergence criterion met
   10   -1037.1672678893      3.52e-07  Convergence criterion met
 Total energy in the final basis set =    -1037.1672678893
   10   -1037.1672705216      3.52e-07  Convergence criterion met
 Total energy in the final basis set =    -1037.1672705216
   10   -1037.1672720665      3.52e-07  Convergence criterion met
 Total energy in the final basis set =    -1037.1672720665
   10   -1037.1672732626      3.52e-07  Convergence criterion met
 Total energy in the final basis set =    -1037.1672732626
   10   -1037.1672747335      3.52e-07  Convergence criterion met
 Total energy in the final basis set =    -1037.1672747335
   10   -1037.1672761569      3.52e-07  Convergence criterion met
 Total energy in the final basis set =    -1037.1672761569

             Standard Nuclear Orientation (Angstroms)
    I     Atom           X                Y                Z
 ----------------------------------------------------------------
    1      Cl     -1.0794009853     0.9793268897     0.1642136799
    2      Cl      1.9790952890     0.4509223456     0.5773611658
    3      C      -0.7753280199     0.1452709650    -0.2961020977
    4      C       0.8957171397    -0.0288462120    -0.7914271484
    5      C      -0.9886324338    -1.3532666682     0.4030853386
    6      H      -1.0963406746    -0.2047856917    -1.3638830677
    7      H       1.1463425111    -1.0399211959    -1.1058926918
    8      H       1.0661758003     0.6958322654    -1.5930334464
    9      H      -0.4263345034    -1.3651044110     1.3440885795
   10      H      -2.0600270950    -1.4349263408     0.6263420224
   11      H      -0.6809670282    -2.1791019460    -0.2399543342
 ----------------------------------------------------------------

   10   -1037.1672770077      3.53e-07  Convergence criterion met
 Total energy in the final basis set =    -1037.1672770077

                    Orbital Energies (a.u.)
 --------------------------------------------------------------

 Alpha MOs
 -- Occupied --
*******-101.529 -10.297 -10.229 -10.179  -9.547  -9.445  -7.315
 -7.287  -7.287  -7.209  -7.200  -7.199  -1.141  -0.839  -0.721
 -0.679  -0.622  -0.573  -0.568  -0.485  -0.443  -0.403  -0.396
 -0.387  -0.312  -0.291  -0.227  -0.221

 Beta MOs
 -- Occupied --
*******-101.529 -10.297 -10.229 -10.179  -9.547  -9.445  -7.315
 -7.287  -7.287  -7.209  -7.200  -7.199  -1.141  -0.839  -0.721
 -0.679  -0.622  -0.573  -0.568  -0.485  -0.443  -0.403  -0.396
 -0.387  -0.312  -0.291  -0.227  -0.221

          Ground-State Mulliken Net Atomic Charges

     Atom                 Charge (a.u.)    Spin (a.u.)
  --------------------------------------------------------
      1 Cl                    0.438341      -0.000000
      2 Cl                   -0.115399      -0.000000
      3 C                    -0.235119       0.000000
      4 C                    -0.356935       0.000000
      5 C                    -0.377883      -0.000000
      6 H                     0.034767       0.000000
      7 H                     0.149280      -0.000000
      8 H                     0.137333      -0.000000
      9 H                     0.123384       0.000000
     10 H                     0.094114       0.000000
     11 H                     0.108116       0.000000
  --------------------------------------------------------
  Sum of atomic charges =     0.000000

                    Cartesian Multipole Moments
 -----------------------------------------------------------------
    Charge (ESU x 10^10)
                 0.0000
    Dipole Moment (Debye)
         X      -1.9840      Y      -0.2364      Z      -1.2423
       Tot       2.3527
    Quadrupole Moments (Debye-Ang)
        XX     -46.9505     XY      -1.4691     YY     -44.0478
        XZ      -1.5095     YZ      -0.3864     ZZ     -43.6402

 Final energy is   -1037.16727700770
 **  OPTIMIZATION CONVERGED  **
 Total job time:  138.04s(wall), 1556.48s(cpu)
        *  Thank you very much for using Q-Chem.  Have a nice day.  *
