 Q-Chem 5.1, Q-Chem, Inc., Pleasanton, CA (2018)
 Q-Chem 5.1.1 for Intel X86 EM64T Linux

User input:
--------------------------------------------------------------

$comment
potential surface scanner
$end

$rem
JOBTYPE  PES_SCAN
UNRESTRICTED TRUE
SYM_IGNORE  TRUE
GEOM_OPT_MAX_CYCLES 400
SCF_MAX_CYCLES 400
METHOD   B3LYP
BASIS   6-31G**
PDB_PRINT 2
SCF_CONVERGENCE 6
THRESH 14
SCF_PRINT 1
$end
$molecule
0 3
Cl -0.653220 3.165248 -0.047642
Cl 1.321123 1.231036 -0.153045
C -0.728890 -0.727788 -0.267966
C 0.181397 -0.078886 -1.166771
C -0.363436 -1.917742 0.546103
H -1.663377 -0.217617 -0.048707
H 0.964720 -0.706893 -1.587342
H -0.261195 0.601167 -1.888932
H -0.124777 -1.618264 1.578538
H -1.200062 -2.622511 0.617054
H 0.508014 -2.442350 0.143513
$end
$scan
stre 1 3 3.800000 3.801000 0.100000
$end
--------------------------------------------------------------

   11   -1038.2362350552      8.29e-07  Convergence criterion met
 Total energy in the final basis set =    -1038.2362350552
   11   -1038.2363127074      8.59e-07  Convergence criterion met
 Total energy in the final basis set =    -1038.2363127074
   11   -1038.2363339438      8.57e-07  Convergence criterion met
 Total energy in the final basis set =    -1038.2363339438
   11   -1038.2363461090      8.55e-07  Convergence criterion met
 Total energy in the final basis set =    -1038.2363461090
   11   -1038.2363531404      8.53e-07  Convergence criterion met
 Total energy in the final basis set =    -1038.2363531404
   11   -1038.2363645345      8.47e-07  Convergence criterion met
 Total energy in the final basis set =    -1038.2363645345
   11   -1038.2363700246      8.39e-07  Convergence criterion met
 Total energy in the final basis set =    -1038.2363700246
   11   -1038.2363721230      8.33e-07  Convergence criterion met
 Total energy in the final basis set =    -1038.2363721230

             Standard Nuclear Orientation (Angstroms)
    I     Atom           X                Y                Z
 ----------------------------------------------------------------
    1      Cl     -0.7031530739     3.0685188183     0.0665995821
    2      Cl      1.3411864396     1.2299419119    -0.1932993425
    3      C      -0.7227815168    -0.7151580347    -0.2846902607
    4      C       0.1952315007    -0.0894874491    -1.1914276122
    5      C      -0.3692440715    -1.8922885459     0.5528751613
    6      H      -1.6534682570    -0.1928357011    -0.0785721102
    7      H       0.9765006471    -0.7294244310    -1.5975603581
    8      H      -0.2399315314     0.5805893332    -1.9272137267
    9      H      -0.1285213780    -1.5740902280     1.5791756733
   10      H      -1.2128987642    -2.5870687222     0.6371790660
   11      H       0.4973770055    -2.4332969514     0.1617369277
 ----------------------------------------------------------------

   11   -1038.2363726190      8.30e-07  Convergence criterion met
 Total energy in the final basis set =    -1038.2363726190

                    Orbital Energies (a.u.)
 --------------------------------------------------------------

 Alpha MOs
 -- Occupied --
*******-101.526 -10.269 -10.245 -10.213  -9.475  -9.439  -7.239
 -7.234  -7.228  -7.210  -7.192  -7.192  -0.865  -0.808  -0.775
 -0.720  -0.607  -0.510  -0.467  -0.454  -0.413  -0.409  -0.396
 -0.372  -0.328  -0.294  -0.289  -0.285  -0.242

 Beta MOs
 -- Occupied --
*******-101.520 -10.270 -10.234 -10.213  -9.471  -9.433  -7.232
 -7.226  -7.225  -7.192  -7.189  -7.188  -0.846  -0.786  -0.736
 -0.712  -0.592  -0.505  -0.461  -0.435  -0.406  -0.394  -0.389
 -0.325  -0.318  -0.281  -0.277

          Ground-State Mulliken Net Atomic Charges

     Atom                 Charge (a.u.)    Spin (a.u.)
  --------------------------------------------------------
      1 Cl                   -0.219819       0.763021
      2 Cl                   -0.055609       0.464090
      3 C                     0.004715       0.823720
      4 C                    -0.295162      -0.042163
      5 C                    -0.355647      -0.060750
      6 H                     0.144397      -0.035913
      7 H                     0.168872       0.005417
      8 H                     0.192650       0.006418
      9 H                     0.155432       0.050596
     10 H                     0.136628       0.021394
     11 H                     0.123543       0.004168
  --------------------------------------------------------
  Sum of atomic charges =    -0.000000

                    Cartesian Multipole Moments
 -----------------------------------------------------------------
    Charge (ESU x 10^10)
                -0.0000
    Dipole Moment (Debye)
         X      -0.4417      Y      -4.8643      Z      -1.0166
       Tot       4.9890
    Quadrupole Moments (Debye-Ang)
        XX     -44.7555     XY       0.5402     YY     -53.4154
        XZ      -0.5194     YZ      -0.7578     ZZ     -42.7666

 Final energy is   -1038.23637261900
 **  OPTIMIZATION CONVERGED  **
 Total job time:  33.57s(wall), 381.71s(cpu)
        *  Thank you very much for using Q-Chem.  Have a nice day.  *
