 Q-Chem 5.1, Q-Chem, Inc., Pleasanton, CA (2018)
 Q-Chem 5.1.1 for Intel X86 EM64T Linux

User input:
--------------------------------------------------------------

$comment
potential surface scanner
$end

$rem
JOBTYPE  PES_SCAN
UNRESTRICTED TRUE
SYM_IGNORE  TRUE
GEOM_OPT_MAX_CYCLES 400
SCF_MAX_CYCLES 400
METHOD   B3LYP
BASIS   6-31G**
PDB_PRINT 2
SCF_CONVERGENCE 6
THRESH 14
SCF_PRINT 1
$end
$molecule
0 1
Cl -1.271337 1.376813 0.223864
Cl 1.954052 0.118637 0.611689
C -0.615377 -0.179542 -0.477229
C 0.860334 -0.027482 -0.823928
C -0.945393 -1.347408 0.440549
H -1.141317 -0.286818 -1.431387
H 1.187714 -0.914977 -1.371435
H 1.028018 0.858113 -1.436294
H -0.469897 -1.223340 1.415209
H -2.024892 -1.429544 0.581904
H -0.581605 -2.279052 -0.008144
$end
$scan
stre 1 3 0.900000 0.901000 0.100000
$end
--------------------------------------------------------------

    9   -1038.3416009812      3.04e-07  Convergence criterion met
 Total energy in the final basis set =    -1038.3416009812
    9   -1038.3321207240      4.78e-07  Convergence criterion met
 Total energy in the final basis set =    -1038.3321207240
    9   -1038.2933894752      4.57e-07  Convergence criterion met
 Total energy in the final basis set =    -1038.2933894752
    9   -1038.2221940509      4.68e-07  Convergence criterion met
 Total energy in the final basis set =    -1038.2221940509
    9   -1038.1186120753      5.04e-07  Convergence criterion met
 Total energy in the final basis set =    -1038.1186120753
    9   -1037.9545888058      5.80e-07  Convergence criterion met
 Total energy in the final basis set =    -1037.9545888058
    9   -1037.7266043535      7.41e-07  Convergence criterion met
 Total energy in the final basis set =    -1037.7266043535
   10   -1037.4320668000      3.22e-07  Convergence criterion met
   11   -1036.4083878941      2.70e-07  Convergence criterion met
 Total energy in the final basis set =    -1036.4083878941
   11   -1036.4083965024      2.67e-07  Convergence criterion met
 Total energy in the final basis set =    -1036.4083965024
   11   -1036.4084009114      2.66e-07  Convergence criterion met
 Total energy in the final basis set =    -1036.4084009114
   11   -1036.4084043899      2.67e-07  Convergence criterion met
 Total energy in the final basis set =    -1036.4084043899
   11   -1036.4084070901      2.68e-07  Convergence criterion met
 Total energy in the final basis set =    -1036.4084070901
   11   -1036.4084082740      2.68e-07  Convergence criterion met
 Total energy in the final basis set =    -1036.4084082740

             Standard Nuclear Orientation (Angstroms)
    I     Atom           X                Y                Z
 ----------------------------------------------------------------
    1      Cl     -0.9565439534     0.8782087239     0.5401245478
    2      Cl      1.8215991124     1.1657012647     0.1904955796
    3      C      -0.9789548649     0.1834388753    -0.0315333916
    4      C       1.1469583704    -0.1254633096    -0.8701857763
    5      C      -1.1524154722    -1.4084270938     0.3135765800
    6      H      -1.2685467923     0.0947042171    -1.1228519986
    7      H       1.6593206282    -1.0574928805    -0.6262112971
    8      H       1.3138935366     0.1735517285    -1.9071290518
    9      H      -0.4668230966    -1.6530343177     1.1331455668
   10      H      -2.1878897156    -1.5512367411     0.6592706328
   11      H      -0.9502977526    -2.0345504669    -0.5539033918
 ----------------------------------------------------------------

   11   -1036.4084086168      2.68e-07  Convergence criterion met
 Total energy in the final basis set =    -1036.4084086168

                    Orbital Energies (a.u.)
 --------------------------------------------------------------

 Alpha MOs
 -- Occupied --
*******-101.523 -10.375 -10.187 -10.178  -9.628  -9.439  -7.403
 -7.361  -7.357  -7.202  -7.195  -7.193  -1.152  -0.823  -0.737
 -0.673  -0.653  -0.603  -0.577  -0.487  -0.412  -0.400  -0.395
 -0.378  -0.313  -0.281  -0.228  -0.174

 Beta MOs
 -- Occupied --
*******-101.523 -10.375 -10.187 -10.178  -9.628  -9.439  -7.403
 -7.361  -7.357  -7.202  -7.195  -7.193  -1.152  -0.823  -0.737
 -0.673  -0.653  -0.603  -0.577  -0.487  -0.412  -0.400  -0.395
 -0.378  -0.313  -0.281  -0.228  -0.174

          Ground-State Mulliken Net Atomic Charges

     Atom                 Charge (a.u.)    Spin (a.u.)
  --------------------------------------------------------
      1 Cl                    0.706466      -0.000000
      2 Cl                   -0.132613      -0.000000
      3 C                    -0.327937       0.000000
      4 C                    -0.502987       0.000000
      5 C                    -0.381963       0.000000
      6 H                     0.073499       0.000000
      7 H                     0.118486      -0.000000
      8 H                     0.116773      -0.000000
      9 H                     0.115518      -0.000000
     10 H                     0.086427       0.000000
     11 H                     0.128332      -0.000000
  --------------------------------------------------------
  Sum of atomic charges =    -0.000000

                    Cartesian Multipole Moments
 -----------------------------------------------------------------
    Charge (ESU x 10^10)
                 0.0000
    Dipole Moment (Debye)
         X      -3.3289      Y      -0.4451      Z       0.2551
       Tot       3.3682
    Quadrupole Moments (Debye-Ang)
        XX     -44.9538     XY      -3.4214     YY     -44.4296
        XZ      -0.7207     YZ      -0.0637     ZZ     -43.4607

 Final energy is   -1036.40840861681
 **  OPTIMIZATION CONVERGED  **
 Total job time:  193.97s(wall), 2266.81s(cpu)
        *  Thank you very much for using Q-Chem.  Have a nice day.  *
