 Q-Chem 5.1, Q-Chem, Inc., Pleasanton, CA (2018)
 Q-Chem 5.1.1 for Intel X86 EM64T Linux

User input:
--------------------------------------------------------------

$comment
potential surface scanner
$end

$rem
JOBTYPE  PES_SCAN
UNRESTRICTED TRUE
SYM_IGNORE  TRUE
GEOM_OPT_MAX_CYCLES 400
SCF_MAX_CYCLES 400
METHOD   B3LYP
BASIS   6-31G**
PDB_PRINT 2
SCF_CONVERGENCE 6
THRESH 14
SCF_PRINT 1
$end
$molecule
0 1
Cl -1.372022 1.575618 0.263104
Cl 1.962040 0.031427 0.606710
C -0.564658 -0.308744 -0.535234
C 0.882574 -0.039622 -0.835678
C -0.942597 -1.368153 0.452706
H -1.150342 -0.306610 -1.453621
H 1.251935 -0.863499 -1.458509
H 1.000585 0.895763 -1.380014
H -0.473437 -1.194535 1.421690
H -2.024988 -1.419475 0.574035
H -0.588792 -2.336768 0.069609
$end
$scan
stre 1 3 2.300000 2.301000 0.100000
$end
--------------------------------------------------------------

    9   -1038.3206229116      7.34e-07  Convergence criterion met
 Total energy in the final basis set =    -1038.3206229116
    9   -1038.3121917976      8.49e-07  Convergence criterion met
 Total energy in the final basis set =    -1038.3121917976
    9   -1038.3121498262      8.41e-07  Convergence criterion met
 Total energy in the final basis set =    -1038.3121498262
    9   -1038.3122744279      8.21e-07  Convergence criterion met
 Total energy in the final basis set =    -1038.3122744279
    9   -1038.3122802787      8.21e-07  Convergence criterion met
 Total energy in the final basis set =    -1038.3122802787
    9   -1038.3122823552      8.22e-07  Convergence criterion met
 Total energy in the final basis set =    -1038.3122823552
    9   -1038.3122835774      8.23e-07  Convergence criterion met
 Total energy in the final basis set =    -1038.3122835774
    9   -1038.3122853875      8.24e-07  Convergence criterion met
 Total energy in the final basis set =    -1038.3122853875
    9   -1038.3122865640      8.24e-07  Convergence criterion met
 Total energy in the final basis set =    -1038.3122865640

             Standard Nuclear Orientation (Angstroms)
    I     Atom           X                Y                Z
 ----------------------------------------------------------------
    1      Cl     -1.4024879962     1.6321491590     0.2706991529
    2      Cl      1.9681396837    -0.0012801945     0.6022780128
    3      C      -0.5516767690    -0.3412657944    -0.5489061572
    4      C       0.8875250049    -0.0442640856    -0.8381908722
    5      C      -0.9411903989    -1.3725620964     0.4557854348
    6      H      -1.1502692515    -0.3133190128    -1.4576769798
    7      H       1.2648685641    -0.8469008488    -1.4854480036
    8      H       0.9917775281     0.9055638056    -1.3597290523
    9      H      -0.4780444040    -1.1821649928     1.4244073941
   10      H      -2.0245092263    -1.4210192132     0.5670874225
   11      H      -0.5838347347    -2.3495347262     0.0944916480
 ----------------------------------------------------------------

    9   -1038.3122871244      8.23e-07  Convergence criterion met
 Total energy in the final basis set =    -1038.3122871244

                    Orbital Energies (a.u.)
 --------------------------------------------------------------

 Alpha MOs
 -- Occupied --
*******-101.505 -10.301 -10.279 -10.216  -9.468  -9.418  -7.232
 -7.222  -7.222  -7.182  -7.173  -7.173  -0.887  -0.813  -0.747
 -0.720  -0.604  -0.510  -0.494  -0.457  -0.436  -0.413  -0.396
 -0.323  -0.317  -0.307  -0.277  -0.275

 Beta MOs
 -- Occupied --
*******-101.505 -10.301 -10.279 -10.216  -9.468  -9.418  -7.232
 -7.222  -7.222  -7.182  -7.173  -7.173  -0.887  -0.813  -0.747
 -0.720  -0.604  -0.510  -0.494  -0.457  -0.436  -0.413  -0.396
 -0.323  -0.317  -0.307  -0.277  -0.275

          Ground-State Mulliken Net Atomic Charges

     Atom                 Charge (a.u.)    Spin (a.u.)
  --------------------------------------------------------
      1 Cl                   -0.312303      -0.000000
      2 Cl                   -0.044791      -0.000000
      3 C                    -0.049206       0.000000
      4 C                    -0.282995      -0.000000
      5 C                    -0.317471       0.000000
      6 H                     0.178841      -0.000000
      7 H                     0.171518       0.000000
      8 H                     0.198991       0.000000
      9 H                     0.172973      -0.000000
     10 H                     0.153306       0.000000
     11 H                     0.131136      -0.000000
  --------------------------------------------------------
  Sum of atomic charges =     0.000000

                    Cartesian Multipole Moments
 -----------------------------------------------------------------
    Charge (ESU x 10^10)
                 0.0000
    Dipole Moment (Debye)
         X       0.4969      Y      -3.7670      Z      -2.5427
       Tot       4.5720
    Quadrupole Moments (Debye-Ang)
        XX     -48.9218     XY       4.6391     YY     -46.9617
        XZ      -0.9342     YZ      -0.6052     ZZ     -42.0014

 Final energy is   -1038.31228712436
 **  OPTIMIZATION CONVERGED  **
 Total job time:  35.88s(wall), 379.05s(cpu)
        *  Thank you very much for using Q-Chem.  Have a nice day.  *
