 Q-Chem 5.1, Q-Chem, Inc., Pleasanton, CA (2018)
 Q-Chem 5.1.1 for Intel X86 EM64T Linux

User input:
--------------------------------------------------------------

$comment
potential surface scanner
$end

$rem
JOBTYPE  PES_SCAN
UNRESTRICTED TRUE
SYM_IGNORE  TRUE
GEOM_OPT_MAX_CYCLES 400
SCF_MAX_CYCLES 400
METHOD   B3LYP
BASIS   6-31G**
PDB_PRINT 2
SCF_CONVERGENCE 6
THRESH 14
SCF_PRINT 1
$end
$molecule
0 3
Cl -0.745414 2.973412 0.137644
Cl 1.360961 1.229136 -0.220081
C -0.717587 -0.701241 -0.293812
C 0.205860 -0.094424 -1.206885
C -0.374028 -1.871987 0.556758
H -1.643910 -0.168898 -0.094529
H 0.983262 -0.744462 -1.604207
H -0.222720 0.571081 -1.950388
H -0.127640 -1.543750 1.578528
H -1.224613 -2.556856 0.651401
H 0.486126 -2.426612 0.170373
$end
$scan
stre 1 3 3.600000 3.601000 0.100000
$end
--------------------------------------------------------------

   11   -1038.2364491164      8.42e-07  Convergence criterion met
 Total energy in the final basis set =    -1038.2364491164
   11   -1038.2363847700      8.74e-07  Convergence criterion met
 Total energy in the final basis set =    -1038.2363847700
   11   -1038.2364023715      8.71e-07  Convergence criterion met
 Total energy in the final basis set =    -1038.2364023715
   11   -1038.2364119490      8.69e-07  Convergence criterion met
 Total energy in the final basis set =    -1038.2364119490
   11   -1038.2364157841      8.69e-07  Convergence criterion met
 Total energy in the final basis set =    -1038.2364157841
   11   -1038.2364209645      8.68e-07  Convergence criterion met
 Total energy in the final basis set =    -1038.2364209645
   11   -1038.2364224939      8.66e-07  Convergence criterion met
 Total energy in the final basis set =    -1038.2364224939

             Standard Nuclear Orientation (Angstroms)
    I     Atom           X                Y                Z
 ----------------------------------------------------------------
    1      Cl     -0.7838730932     2.8769700456     0.1991618394
    2      Cl      1.3811662710     1.2283251697    -0.2424938557
    3      C      -0.7126958285    -0.6873066849    -0.3017029436
    4      C       0.2148540242    -0.0984098508    -1.2208685499
    5      C      -0.3783373536    -1.8523574298     0.5602514389
    6      H      -1.6357591415    -0.1473142073    -0.1091418795
    7      H       0.9885229586    -0.7571023857    -1.6109311218
    8      H      -0.2072374365     0.5649783170    -1.9697093597
    9      H      -0.1257161726    -1.5151601403     1.5775474221
   10      H      -1.2357009957    -2.5271800668     0.6648484794
   11      H       0.4750737677    -2.4200437668     0.1778405303
 ----------------------------------------------------------------

   11   -1038.2364228805      8.64e-07  Convergence criterion met
 Total energy in the final basis set =    -1038.2364228805

                    Orbital Energies (a.u.)
 --------------------------------------------------------------

 Alpha MOs
 -- Occupied --
*******-101.526 -10.269 -10.244 -10.212  -9.475  -9.439  -7.239
 -7.234  -7.228  -7.210  -7.192  -7.192  -0.864  -0.808  -0.775
 -0.719  -0.606  -0.509  -0.467  -0.453  -0.412  -0.409  -0.396
 -0.373  -0.327  -0.294  -0.290  -0.285  -0.242

 Beta MOs
 -- Occupied --
*******-101.520 -10.269 -10.233 -10.213  -9.471  -9.433  -7.231
 -7.226  -7.225  -7.192  -7.189  -7.188  -0.845  -0.786  -0.736
 -0.712  -0.591  -0.504  -0.461  -0.435  -0.406  -0.393  -0.388
 -0.326  -0.318  -0.281  -0.277

          Ground-State Mulliken Net Atomic Charges

     Atom                 Charge (a.u.)    Spin (a.u.)
  --------------------------------------------------------
      1 Cl                   -0.223744       0.757366
      2 Cl                   -0.057318       0.474521
      3 C                     0.007552       0.816279
      4 C                    -0.293830      -0.038545
      5 C                    -0.356348      -0.060323
      6 H                     0.147444      -0.035564
      7 H                     0.168291       0.004877
      8 H                     0.191799       0.005617
      9 H                     0.156643       0.050514
     10 H                     0.136432       0.020864
     11 H                     0.123078       0.004394
  --------------------------------------------------------
  Sum of atomic charges =    -0.000000

                    Cartesian Multipole Moments
 -----------------------------------------------------------------
    Charge (ESU x 10^10)
                -0.0000
    Dipole Moment (Debye)
         X      -0.3705      Y      -4.6996      Z      -1.1528
       Tot       4.8531
    Quadrupole Moments (Debye-Ang)
        XX     -44.8492     XY       0.6715     YY     -52.5851
        XZ      -0.4734     YZ      -1.0254     ZZ     -42.6890

 Final energy is   -1038.23642288052
 **  OPTIMIZATION CONVERGED  **
 Total job time:  28.71s(wall), 332.45s(cpu)
        *  Thank you very much for using Q-Chem.  Have a nice day.  *
