 Q-Chem 5.1, Q-Chem, Inc., Pleasanton, CA (2018)
 Q-Chem 5.1.1 for Intel X86 EM64T Linux

User input:
--------------------------------------------------------------

$comment
potential surface scanner
$end

$rem
JOBTYPE  PES_SCAN
UNRESTRICTED TRUE
SYM_IGNORE  TRUE
GEOM_OPT_MAX_CYCLES 400
SCF_MAX_CYCLES 400
METHOD   B3LYP
BASIS   6-31G**
PDB_PRINT 2
SCF_CONVERGENCE 6
THRESH 14
SCF_PRINT 1
$end
$molecule
0 1
Cl -1.271337 1.376813 0.223864
Cl 1.954052 0.118637 0.611689
C -0.615377 -0.179542 -0.477229
C 0.860334 -0.027482 -0.823928
C -0.945393 -1.347408 0.440549
H -1.141317 -0.286818 -1.431387
H 1.187714 -0.914977 -1.371435
H 1.028018 0.858113 -1.436294
H -0.469897 -1.223340 1.415209
H -2.024892 -1.429544 0.581904
H -0.581605 -2.279052 -0.008144
$end
$scan
stre 1 3 2.900000 2.901000 0.100000
$end
--------------------------------------------------------------

    9   -1038.3416009812      3.04e-07  Convergence criterion met
 Total energy in the final basis set =    -1038.3416009812
    9   -1038.3357252310      5.51e-07  Convergence criterion met
 Total energy in the final basis set =    -1038.3357252310
    9   -1038.3239389268      7.49e-07  Convergence criterion met
 Total energy in the final basis set =    -1038.3239389268
    9   -1038.3113299061      8.84e-07  Convergence criterion met
 Total energy in the final basis set =    -1038.3113299061
   10   -1038.2998422022      2.43e-07  Convergence criterion met
 Total energy in the final basis set =    -1038.2998422022
   10   -1038.2894118889      3.71e-07  Convergence criterion met
 Total energy in the final basis set =    -1038.2894118889
   10   -1038.2796783501      7.44e-07  Convergence criterion met
 Total energy in the final basis set =    -1038.2796783501
   11   -1038.2706628390      3.45e-07  Convergence criterion met
   11   -1038.2668792661      6.93e-07  Convergence criterion met
 Total energy in the final basis set =    -1038.2668792661
   11   -1038.2668886726      6.98e-07  Convergence criterion met
 Total energy in the final basis set =    -1038.2668886726
   11   -1038.2668996525      7.02e-07  Convergence criterion met
 Total energy in the final basis set =    -1038.2668996525
   11   -1038.2669087240      7.04e-07  Convergence criterion met
 Total energy in the final basis set =    -1038.2669087240
   11   -1038.2669133364      7.04e-07  Convergence criterion met
 Total energy in the final basis set =    -1038.2669133364
   11   -1038.2669150536      7.04e-07  Convergence criterion met
 Total energy in the final basis set =    -1038.2669150536

             Standard Nuclear Orientation (Angstroms)
    I     Atom           X                Y                Z
 ----------------------------------------------------------------
    1      Cl     -1.6357054356     2.0050741535     0.2632680369
    2      Cl      2.0372075889    -0.2762436892     0.5469669275
    3      C      -0.4816626565    -0.5076636981    -0.6109928196
    4      C       0.9180238954    -0.0855405257    -0.8434228570
    5      C      -0.9270695184    -1.3984232063     0.4697832123
    6      H      -1.1307404090    -0.3621243822    -1.4718000839
    7      H       1.3173019012    -0.7006675535    -1.6648787917
    8      H       0.9399481623     0.9564303742    -1.1666129982
    9      H      -0.4872316278    -1.1186013441     1.4291264900
   10      H      -2.0136999009    -1.4328364133     0.5373571727
   11      H      -0.5560719995    -2.4140037153     0.2360037111
 ----------------------------------------------------------------

   11   -1038.2669158889      7.04e-07  Convergence criterion met
 Total energy in the final basis set =    -1038.2669158889

                    Orbital Energies (a.u.)
 --------------------------------------------------------------

 Alpha MOs
 -- Occupied --
*******-101.469 -10.325 -10.298 -10.237  -9.485  -9.381  -7.249
 -7.239  -7.239  -7.143  -7.136  -7.136  -0.907  -0.829  -0.745
 -0.708  -0.622  -0.533  -0.511  -0.479  -0.456  -0.434  -0.416
 -0.334  -0.330  -0.261  -0.243  -0.242

 Beta MOs
 -- Occupied --
*******-101.469 -10.325 -10.298 -10.237  -9.485  -9.381  -7.249
 -7.239  -7.239  -7.143  -7.136  -7.136  -0.907  -0.829  -0.745
 -0.708  -0.622  -0.533  -0.511  -0.479  -0.456  -0.434  -0.416
 -0.334  -0.330  -0.261  -0.243  -0.242

          Ground-State Mulliken Net Atomic Charges

     Atom                 Charge (a.u.)    Spin (a.u.)
  --------------------------------------------------------
      1 Cl                   -0.501846      -0.000000
      2 Cl                   -0.024369       0.000000
      3 C                     0.060386      -0.000000
      4 C                    -0.325572       0.000000
      5 C                    -0.349533       0.000000
      6 H                     0.194261       0.000000
      7 H                     0.187249      -0.000000
      8 H                     0.236876      -0.000000
      9 H                     0.195187       0.000000
     10 H                     0.173552      -0.000000
     11 H                     0.153810      -0.000000
  --------------------------------------------------------
  Sum of atomic charges =    -0.000000

                    Cartesian Multipole Moments
 -----------------------------------------------------------------
    Charge (ESU x 10^10)
                 0.0000
    Dipole Moment (Debye)
         X       1.9557      Y      -5.9810      Z      -2.8553
       Tot       6.9101
    Quadrupole Moments (Debye-Ang)
        XX     -51.0244     XY       9.2111     YY     -50.7843
        XZ      -0.6113     YZ      -1.2205     ZZ     -41.2903

 Final energy is   -1038.26691588889
 **  OPTIMIZATION CONVERGED  **
 Total job time:  94.84s(wall), 1109.91s(cpu)
        *  Thank you very much for using Q-Chem.  Have a nice day.  *
