 Q-Chem 5.1, Q-Chem, Inc., Pleasanton, CA (2018)
 Q-Chem 5.1.1 for Intel X86 EM64T Linux

User input:
--------------------------------------------------------------

$comment
potential surface scanner
$end

$rem
JOBTYPE  PES_SCAN
UNRESTRICTED TRUE
SYM_IGNORE  TRUE
GEOM_OPT_MAX_CYCLES 400
SCF_MAX_CYCLES 400
METHOD   B3LYP
BASIS   6-31G**
PDB_PRINT 2
SCF_CONVERGENCE 6
THRESH 14
SCF_PRINT 1
$end
$molecule
0 1
Cl -1.271337 1.376813 0.223864
Cl 1.954052 0.118637 0.611689
C -0.615377 -0.179542 -0.477229
C 0.860334 -0.027482 -0.823928
C -0.945393 -1.347408 0.440549
H -1.141317 -0.286818 -1.431387
H 1.187714 -0.914977 -1.371435
H 1.028018 0.858113 -1.436294
H -0.469897 -1.223340 1.415209
H -2.024892 -1.429544 0.581904
H -0.581605 -2.279052 -0.008144
$end
$scan
stre 1 3 1.800000 1.801000 0.100000
$end
--------------------------------------------------------------

    9   -1038.3416009812      3.04e-07  Convergence criterion met
 Total energy in the final basis set =    -1038.3416009812
    9   -1038.3413117460      3.89e-07  Convergence criterion met
 Total energy in the final basis set =    -1038.3413117460
    9   -1038.3413461197      3.77e-07  Convergence criterion met
 Total energy in the final basis set =    -1038.3413461197

             Standard Nuclear Orientation (Angstroms)
    I     Atom           X                Y                Z
 ----------------------------------------------------------------
    1      Cl     -1.2645145419     1.3618519771     0.2189026777
    2      Cl      1.9545611107     0.1207337752     0.6112684381
    3      C      -0.6192790610    -0.1696783365    -0.4725351418
    4      C       0.8586823177    -0.0267696500    -0.8230038432
    5      C      -0.9455740538    -1.3454563243     0.4400944992
    6      H      -1.1400051857    -0.2864044344    -1.4291771144
    7      H       1.1824481395    -0.9165901628    -1.3683654984
    8      H       1.0294722327     0.8567496548    -1.4378567349
    9      H      -0.4711722521    -1.2234447570     1.4156454822
   10      H      -2.0250142007    -1.4311434201     0.5812651693
   11      H      -0.5793045055    -2.2744483219    -0.0114399338
 ----------------------------------------------------------------

    9   -1038.3413544472      3.71e-07  Convergence criterion met
 Total energy in the final basis set =    -1038.3413544472

                    Orbital Energies (a.u.)
 --------------------------------------------------------------

 Alpha MOs
 -- Occupied --
*******-101.536 -10.270 -10.263 -10.199  -9.456  -9.453  -7.220
 -7.217  -7.210  -7.210  -7.208  -7.207  -0.890  -0.839  -0.757
 -0.700  -0.592  -0.496  -0.486  -0.453  -0.418  -0.395  -0.387
 -0.375  -0.310  -0.304  -0.298  -0.296

 Beta MOs
 -- Occupied --
*******-101.536 -10.270 -10.263 -10.199  -9.456  -9.453  -7.220
 -7.217  -7.210  -7.210  -7.208  -7.207  -0.890  -0.839  -0.757
 -0.700  -0.592  -0.496  -0.486  -0.453  -0.418  -0.395  -0.387
 -0.375  -0.310  -0.304  -0.298  -0.296

          Ground-State Mulliken Net Atomic Charges

     Atom                 Charge (a.u.)    Spin (a.u.)
  --------------------------------------------------------
      1 Cl                   -0.064594      -0.000000
      2 Cl                   -0.072314       0.000000
      3 C                    -0.179644      -0.000000
      4 C                    -0.267065       0.000000
      5 C                    -0.304018       0.000000
      6 H                     0.158540      -0.000000
      7 H                     0.159878      -0.000000
      8 H                     0.172462      -0.000000
      9 H                     0.151999      -0.000000
     10 H                     0.130333      -0.000000
     11 H                     0.114421      -0.000000
  --------------------------------------------------------
  Sum of atomic charges =     0.000000

                    Cartesian Multipole Moments
 -----------------------------------------------------------------
    Charge (ESU x 10^10)
                -0.0000
    Dipole Moment (Debye)
         X      -0.5966      Y      -1.9845      Z      -2.0886
       Tot       2.9422
    Quadrupole Moments (Debye-Ang)
        XX     -48.1128     XY       1.8159     YY     -45.1699
        XZ      -1.2898     YZ      -0.1337     ZZ     -42.6207

 Final energy is   -1038.34135444719
 **  OPTIMIZATION CONVERGED  **
 Total job time:  21.61s(wall), 153.33s(cpu)
        *  Thank you very much for using Q-Chem.  Have a nice day.  *
