 Q-Chem 5.1, Q-Chem, Inc., Pleasanton, CA (2018)
 Q-Chem 5.1.1 for Intel X86 EM64T Linux

User input:
--------------------------------------------------------------

$comment
potential surface scanner
$end

$rem
JOBTYPE  PES_SCAN
UNRESTRICTED TRUE
SYM_IGNORE  TRUE
GEOM_OPT_MAX_CYCLES 400
SCF_MAX_CYCLES 400
METHOD   B3LYP
BASIS   6-31G**
PDB_PRINT 2
SCF_CONVERGENCE 6
THRESH 14
SCF_PRINT 1
$end
$molecule
0 3
Cl -0.412513 3.398896 -0.606073
Cl 1.230732 1.258499 0.045146
C -0.751050 -0.766172 -0.184644
C 0.114515 -0.015251 -1.047355
C -0.338719 -2.013786 0.511608
H -1.698115 -0.310458 0.093937
H 0.906144 -0.576240 -1.540164
H -0.367101 0.715271 -1.691408
H -0.074596 -1.802386 1.559685
H -1.159310 -2.739871 0.543026
H 0.530309 -2.483100 0.041044
$end
$scan
stre 1 3 4.100000 4.101000 0.100000
$end
--------------------------------------------------------------

   11   -1038.2359563374      8.80e-07  Convergence criterion met
 Total energy in the final basis set =    -1038.2359563374
   11   -1038.2355850195      8.64e-07  Convergence criterion met
 Total energy in the final basis set =    -1038.2355850195
   11   -1038.2359033725      8.57e-07  Convergence criterion met
 Total energy in the final basis set =    -1038.2359033725
   11   -1038.2360457183      8.45e-07  Convergence criterion met
 Total energy in the final basis set =    -1038.2360457183
   11   -1038.2360608515      8.46e-07  Convergence criterion met
 Total energy in the final basis set =    -1038.2360608515
   11   -1038.2360714913      8.51e-07  Convergence criterion met
 Total energy in the final basis set =    -1038.2360714913
   11   -1038.2360762983      8.57e-07  Convergence criterion met
 Total energy in the final basis set =    -1038.2360762983
   11   -1038.2360805416      8.63e-07  Convergence criterion met
 Total energy in the final basis set =    -1038.2360805416
   11   -1038.2360826277      8.64e-07  Convergence criterion met
 Total energy in the final basis set =    -1038.2360826277
   11   -1038.2360837800      8.62e-07  Convergence criterion met
 Total energy in the final basis set =    -1038.2360837800

             Standard Nuclear Orientation (Angstroms)
    I     Atom           X                Y                Z
 ----------------------------------------------------------------
    1      Cl     -0.4848414707     3.3299965557    -0.5298034091
    2      Cl      1.2646062405     1.2581754919     0.0063508074
    3      C      -0.7395980003    -0.7476926102    -0.1869428047
    4      C       0.1319031512    -0.0235694981    -1.0647557338
    5      C      -0.3460977594    -1.9979721969     0.5155835152
    6      H      -1.6765742802    -0.2722555811     0.0924035773
    7      H       0.9171454964    -0.6018391128    -1.5475583128
    8      H      -0.3433734736     0.7015262833    -1.7191078481
    9      H      -0.0897939488    -1.7883823420     1.5657648748
   10      H      -1.1746738765    -2.7154888047     0.5402386489
   11      H       0.5215939214    -2.4770961851     0.0526286849
 ----------------------------------------------------------------

   11   -1038.2360844691      8.58e-07  Convergence criterion met
 Total energy in the final basis set =    -1038.2360844691

                    Orbital Energies (a.u.)
 --------------------------------------------------------------

 Alpha MOs
 -- Occupied --
*******-101.527 -10.268 -10.247 -10.214  -9.475  -9.439  -7.238
 -7.233  -7.228  -7.210  -7.193  -7.192  -0.864  -0.809  -0.775
 -0.720  -0.607  -0.510  -0.467  -0.455  -0.414  -0.410  -0.397
 -0.370  -0.328  -0.295  -0.290  -0.287  -0.243

 Beta MOs
 -- Occupied --
*******-101.521 -10.268 -10.235 -10.215  -9.471  -9.434  -7.231
 -7.226  -7.225  -7.193  -7.189  -7.189  -0.845  -0.787  -0.736
 -0.713  -0.593  -0.505  -0.462  -0.437  -0.407  -0.395  -0.389
 -0.324  -0.318  -0.282  -0.277

          Ground-State Mulliken Net Atomic Charges

     Atom                 Charge (a.u.)    Spin (a.u.)
  --------------------------------------------------------
      1 Cl                   -0.216618       0.763847
      2 Cl                   -0.058822       0.466355
      3 C                     0.004673       0.822070
      4 C                    -0.295137      -0.044743
      5 C                    -0.355761      -0.060921
      6 H                     0.138718      -0.036248
      7 H                     0.168759       0.004344
      8 H                     0.198893       0.008784
      9 H                     0.152858       0.050347
     10 H                     0.137442       0.022283
     11 H                     0.124994       0.003881
  --------------------------------------------------------
  Sum of atomic charges =    -0.000000

                    Cartesian Multipole Moments
 -----------------------------------------------------------------
    Charge (ESU x 10^10)
                 0.0000
    Dipole Moment (Debye)
         X      -0.6893      Y      -5.1189      Z      -0.4027
       Tot       5.1808
    Quadrupole Moments (Debye-Ang)
        XX     -44.6166     XY       0.0744     YY     -54.5873
        XZ      -0.6211     YZ       0.6642     ZZ     -43.3815

 Final energy is   -1038.23608446905
 **  OPTIMIZATION CONVERGED  **
 Total job time:  40.36s(wall), 462.85s(cpu)
        *  Thank you very much for using Q-Chem.  Have a nice day.  *
