 Q-Chem 5.1, Q-Chem, Inc., Pleasanton, CA (2018)
 Q-Chem 5.1.1 for Intel X86 EM64T Linux

User input:
--------------------------------------------------------------

$comment
potential surface scanner
$end

$rem
JOBTYPE  PES_SCAN
UNRESTRICTED TRUE
SYM_IGNORE  TRUE
GEOM_OPT_MAX_CYCLES 400
SCF_MAX_CYCLES 400
METHOD   B3LYP
BASIS   6-31G**
PDB_PRINT 2
SCF_CONVERGENCE 6
THRESH 14
SCF_PRINT 1
$end
$molecule
0 3
Cl -0.358481 1.690994 1.139920
Cl 1.508650 1.412098 -0.755000
C -0.736419 -0.512715 -0.373630
C 0.141217 -0.242142 -1.436914
C -0.445471 -1.536634 0.669009
H -1.725661 -0.070430 -0.398800
H 0.967630 -0.921910 -1.614767
H -0.229493 0.293123 -2.303050
H -0.881784 -1.260149 1.630885
H -0.889471 -2.498686 0.370391
H 0.629586 -1.688148 0.796759
$end
$scan
stre 1 3 2.600000 2.601000 0.100000
$end
--------------------------------------------------------------

   11   -1038.2299032821      9.16e-07  Convergence criterion met
 Total energy in the final basis set =    -1038.2299032821
   11   -1038.2279628031      8.30e-07  Convergence criterion met
 Total energy in the final basis set =    -1038.2279628031
   11   -1038.2280332606      8.48e-07  Convergence criterion met
 Total energy in the final basis set =    -1038.2280332606
   11   -1038.2281621087      8.94e-07  Convergence criterion met
 Total energy in the final basis set =    -1038.2281621087
   11   -1038.2282088629      9.18e-07  Convergence criterion met
 Total energy in the final basis set =    -1038.2282088629
   11   -1038.2282590375      9.61e-07  Convergence criterion met
 Total energy in the final basis set =    -1038.2282590375
   11   -1038.2282814720      9.95e-07  Convergence criterion met
 Total energy in the final basis set =    -1038.2282814720
   12   -1038.2282949269      6.23e-07  Convergence criterion met
 Total energy in the final basis set =    -1038.2282949269
   12   -1038.2283004962      6.33e-07  Convergence criterion met
 Total energy in the final basis set =    -1038.2283004962
   12   -1038.2283029123      6.39e-07  Convergence criterion met
 Total energy in the final basis set =    -1038.2283029123

             Standard Nuclear Orientation (Angstroms)
    I     Atom           X                Y                Z
 ----------------------------------------------------------------
    1      Cl     -0.3339626914     1.6225660216     1.0978279701
    2      Cl      1.5640311200     1.4718564851    -0.7707766761
    3      C      -0.7391327180    -0.4949385116    -0.3554488239
    4      C       0.1176041481    -0.2579830965    -1.4383270885
    5      C      -0.4511327988    -1.5316347957     0.6782980646
    6      H      -1.7402377843    -0.0807884083    -0.3976860510
    7      H       0.9639252517    -0.9157983781    -1.5994359148
    8      H      -0.2406850837     0.2941083363    -2.2982969648
    9      H      -0.9073170268    -1.2797139365     1.6371123484
   10      H      -0.8764899688    -2.4925790164     0.3512966943
   11      H       0.6237005520    -1.6696936999     0.8202394417
 ----------------------------------------------------------------

   12   -1038.2283037178      6.41e-07  Convergence criterion met
 Total energy in the final basis set =    -1038.2283037178

                    Orbital Energies (a.u.)
 --------------------------------------------------------------

 Alpha MOs
 -- Occupied --
*******-101.526 -10.265 -10.259 -10.212  -9.456  -9.439  -7.220
 -7.217  -7.209  -7.207  -7.195  -7.192  -0.850  -0.803  -0.775
 -0.724  -0.606  -0.512  -0.468  -0.454  -0.408  -0.398  -0.388
 -0.368  -0.318  -0.306  -0.287  -0.273  -0.247

 Beta MOs
 -- Occupied --
*******-101.520 -10.259 -10.255 -10.212  -9.451  -9.434  -7.209
 -7.207  -7.205  -7.192  -7.190  -7.189  -0.831  -0.772  -0.739
 -0.714  -0.597  -0.508  -0.463  -0.441  -0.405  -0.394  -0.347
 -0.318  -0.305  -0.280  -0.275

          Ground-State Mulliken Net Atomic Charges

     Atom                 Charge (a.u.)    Spin (a.u.)
  --------------------------------------------------------
      1 Cl                   -0.222806       0.690348
      2 Cl                   -0.152056       0.694116
      3 C                     0.005651       0.435671
      4 C                    -0.217947       0.203992
      5 C                    -0.341766      -0.027328
      6 H                     0.159004      -0.017437
      7 H                     0.166436      -0.006244
      8 H                     0.170361      -0.008938
      9 H                     0.152881       0.011754
     10 H                     0.135744       0.021154
     11 H                     0.144497       0.002912
  --------------------------------------------------------
  Sum of atomic charges =    -0.000000

                    Cartesian Multipole Moments
 -----------------------------------------------------------------
    Charge (ESU x 10^10)
                -0.0000
    Dipole Moment (Debye)
         X      -1.7404      Y      -4.2750      Z      -1.8282
       Tot       4.9645
    Quadrupole Moments (Debye-Ang)
        XX     -45.0083     XY      -1.2731     YY     -48.5513
        XZ       0.3666     YZ      -1.3957     ZZ     -43.2363

 Final energy is   -1038.22830371776
 **  OPTIMIZATION CONVERGED  **
 Total job time:  43.40s(wall), 492.69s(cpu)
        *  Thank you very much for using Q-Chem.  Have a nice day.  *
