 Q-Chem 5.1, Q-Chem, Inc., Pleasanton, CA (2018)
 Q-Chem 5.1.1 for Intel X86 EM64T Linux

User input:
--------------------------------------------------------------

$comment
potential surface scanner
$end

$rem
JOBTYPE  PES_SCAN
UNRESTRICTED TRUE
SYM_IGNORE  TRUE
GEOM_OPT_MAX_CYCLES 400
SCF_MAX_CYCLES 400
METHOD   B3LYP
BASIS   6-31G**
PDB_PRINT 2
SCF_CONVERGENCE 6
THRESH 14
SCF_PRINT 1
$end
$molecule
0 3
Cl -0.419896 1.533868 0.415221
Cl 2.307088 1.240474 0.365577
C -0.862638 -0.475736 -0.362900
C -0.263842 -0.393115 -1.638489
C -0.306463 -1.395432 0.687917
H -1.937956 -0.314051 -0.328821
H 0.769405 -0.690929 -1.781209
H -0.779990 0.082155 -2.465147
H -0.704413 -1.156492 1.675256
H -0.604741 -2.422181 0.438425
H 0.783749 -1.343164 0.718974
$end
$scan
stre 1 3 2.100000 2.101000 0.100000
$end
--------------------------------------------------------------

   12   -1038.2308873241      4.61e-07  Convergence criterion met
 Total energy in the final basis set =    -1038.2308873241
   11   -1038.2304564591      8.08e-07  Convergence criterion met
 Total energy in the final basis set =    -1038.2304564591
   11   -1038.2309028031      7.48e-07  Convergence criterion met
 Total energy in the final basis set =    -1038.2309028031
   11   -1038.2312764305      6.99e-07  Convergence criterion met
 Total energy in the final basis set =    -1038.2312764305
   11   -1038.2312824188      7.00e-07  Convergence criterion met
 Total energy in the final basis set =    -1038.2312824188
   11   -1038.2312852383      7.01e-07  Convergence criterion met
 Total energy in the final basis set =    -1038.2312852383

             Standard Nuclear Orientation (Angstroms)
    I     Atom           X                Y                Z
 ----------------------------------------------------------------
    1      Cl     -0.4318237890     1.4846977484     0.4234170460
    2      Cl      2.3085250852     1.2542022426     0.3653812821
    3      C      -0.8484724710    -0.4262400020    -0.3412533360
    4      C      -0.2633555578    -0.4007315238    -1.6434487685
    5      C      -0.3059757478    -1.3842394166     0.6891574597
    6      H      -1.9304541308    -0.3042426620    -0.3231924602
    7      H       0.7667781754    -0.7087536724    -1.7862915424
    8      H      -0.7827019821     0.0612941923    -2.4754787565
    9      H      -0.7069976888    -1.1693244108     1.6809476039
   10      H      -0.6096947550    -2.4001877982     0.4071561040
   11      H       0.7844758618    -1.3410776975     0.7284093680
 ----------------------------------------------------------------

   11   -1038.2312862050      7.01e-07  Convergence criterion met
 Total energy in the final basis set =    -1038.2312862050

                    Orbital Energies (a.u.)
 --------------------------------------------------------------

 Alpha MOs
 -- Occupied --
*******-101.524 -10.284 -10.245 -10.210  -9.471  -9.437  -7.234
 -7.230  -7.224  -7.207  -7.190  -7.190  -0.865  -0.799  -0.771
 -0.725  -0.609  -0.510  -0.466  -0.458  -0.408  -0.400  -0.385
 -0.374  -0.327  -0.292  -0.288  -0.282  -0.261

 Beta MOs
 -- Occupied --
*******-101.518 -10.284 -10.234 -10.210  -9.467  -9.431  -7.226
 -7.222  -7.221  -7.190  -7.187  -7.187  -0.850  -0.775  -0.732
 -0.710  -0.600  -0.504  -0.460  -0.451  -0.403  -0.395  -0.363
 -0.325  -0.316  -0.279  -0.275

          Ground-State Mulliken Net Atomic Charges

     Atom                 Charge (a.u.)    Spin (a.u.)
  --------------------------------------------------------
      1 Cl                   -0.080715       0.512716
      2 Cl                   -0.226583       0.751881
      3 C                    -0.148362      -0.058203
      4 C                    -0.133297       0.857972
      5 C                    -0.315835       0.005147
      6 H                     0.171104       0.005661
      7 H                     0.156236      -0.036972
      8 H                     0.141144      -0.037330
      9 H                     0.142329       0.002679
     10 H                     0.131817      -0.002222
     11 H                     0.162163      -0.001329
  --------------------------------------------------------
  Sum of atomic charges =    -0.000000

                    Cartesian Multipole Moments
 -----------------------------------------------------------------
    Charge (ESU x 10^10)
                 0.0000
    Dipole Moment (Debye)
         X      -3.1446      Y      -3.4557      Z      -1.6763
       Tot       4.9639
    Quadrupole Moments (Debye-Ang)
        XX     -47.5704     XY      -2.6444     YY     -47.4586
        XZ      -0.5500     YZ      -1.0699     ZZ     -42.5699

 Final energy is   -1038.23128620496
 **  OPTIMIZATION CONVERGED  **
 Total job time:  26.46s(wall), 302.89s(cpu)
        *  Thank you very much for using Q-Chem.  Have a nice day.  *
