 Q-Chem 5.1, Q-Chem, Inc., Pleasanton, CA (2018)
 Q-Chem 5.1.1 for Intel X86 EM64T Linux

User input:
--------------------------------------------------------------

$comment
potential surface scanner
$end

$rem
JOBTYPE  PES_SCAN
UNRESTRICTED TRUE
SYM_IGNORE  TRUE
GEOM_OPT_MAX_CYCLES 400
SCF_MAX_CYCLES 400
METHOD   B3LYP
BASIS   6-31G**
PDB_PRINT 2
SCF_CONVERGENCE 6
THRESH 14
SCF_PRINT 1
$end
$molecule
0 3
Cl -0.783873 2.876970 0.199162
Cl 1.381166 1.228325 -0.242494
C -0.712696 -0.687307 -0.301703
C 0.214854 -0.098410 -1.220869
C -0.378337 -1.852357 0.560251
H -1.635759 -0.147314 -0.109142
H 0.988523 -0.757102 -1.610931
H -0.207237 0.564978 -1.969709
H -0.125716 -1.515160 1.577547
H -1.235701 -2.527180 0.664848
H 0.475074 -2.420044 0.177841
$end
$scan
stre 1 3 3.500000 3.501000 0.100000
$end
--------------------------------------------------------------

   11   -1038.2364228808      8.64e-07  Convergence criterion met
 Total energy in the final basis set =    -1038.2364228808
   11   -1038.2362299974      8.97e-07  Convergence criterion met
 Total energy in the final basis set =    -1038.2362299974
   11   -1038.2362460026      8.92e-07  Convergence criterion met
 Total energy in the final basis set =    -1038.2362460026
   11   -1038.2362563449      8.89e-07  Convergence criterion met
 Total energy in the final basis set =    -1038.2362563449
   11   -1038.2362610213      8.88e-07  Convergence criterion met
 Total energy in the final basis set =    -1038.2362610213
   11   -1038.2362684722      8.87e-07  Convergence criterion met
 Total energy in the final basis set =    -1038.2362684722
   11   -1038.2362713397      8.84e-07  Convergence criterion met
 Total energy in the final basis set =    -1038.2362713397

             Standard Nuclear Orientation (Angstroms)
    I     Atom           X                Y                Z
 ----------------------------------------------------------------
    1      Cl     -0.8150084764     2.7720560415     0.2845110477
    2      Cl      1.4007896849     1.2292582308    -0.2708013749
    3      C      -0.7089587754    -0.6746538689    -0.3146087993
    4      C       0.2225595130    -0.1051483935    -1.2398076892
    5      C      -0.3827301131    -1.8283838917     0.5653051367
    6      H      -1.6324602286    -0.1315708974    -0.1351960221
    7      H       0.9947621825    -0.7715680769    -1.6191833051
    8      H      -0.1919316481     0.5546565178    -1.9958003627
    9      H      -0.1296483894    -1.4761257546     1.5773200770
   10      H      -1.2447905292    -2.4955774772     0.6793906424
   11      H       0.4677147798    -2.4075434299     0.1936716494
 ----------------------------------------------------------------

   11   -1038.2362721119      8.82e-07  Convergence criterion met
 Total energy in the final basis set =    -1038.2362721119

                    Orbital Energies (a.u.)
 --------------------------------------------------------------

 Alpha MOs
 -- Occupied --
*******-101.526 -10.269 -10.244 -10.212  -9.475  -9.439  -7.238
 -7.234  -7.227  -7.209  -7.192  -7.192  -0.864  -0.808  -0.775
 -0.720  -0.606  -0.509  -0.467  -0.453  -0.411  -0.408  -0.396
 -0.374  -0.327  -0.294  -0.290  -0.285  -0.242

 Beta MOs
 -- Occupied --
*******-101.520 -10.269 -10.233 -10.212  -9.470  -9.433  -7.231
 -7.226  -7.225  -7.192  -7.189  -7.188  -0.844  -0.785  -0.736
 -0.712  -0.591  -0.504  -0.461  -0.434  -0.405  -0.393  -0.387
 -0.326  -0.317  -0.281  -0.277

          Ground-State Mulliken Net Atomic Charges

     Atom                 Charge (a.u.)    Spin (a.u.)
  --------------------------------------------------------
      1 Cl                   -0.225611       0.754571
      2 Cl                   -0.060209       0.482382
      3 C                     0.009924       0.808902
      4 C                    -0.292492      -0.035758
      5 C                    -0.356923      -0.059869
      6 H                     0.148932      -0.035232
      7 H                     0.168282       0.004691
      8 H                     0.191017       0.004981
      9 H                     0.157762       0.050259
     10 H                     0.136317       0.020535
     11 H                     0.123001       0.004538
  --------------------------------------------------------
  Sum of atomic charges =     0.000000

                    Cartesian Multipole Moments
 -----------------------------------------------------------------
    Charge (ESU x 10^10)
                -0.0000
    Dipole Moment (Debye)
         X      -0.3616      Y      -4.6229      Z      -1.2433
       Tot       4.8008
    Quadrupole Moments (Debye-Ang)
        XX     -44.8915     XY       0.6935     YY     -52.1543
        XZ      -0.4277     YZ      -1.1919     ZZ     -42.6530

 Final energy is   -1038.23627211190
 **  OPTIMIZATION CONVERGED  **
 Total job time:  29.44s(wall), 340.77s(cpu)
        *  Thank you very much for using Q-Chem.  Have a nice day.  *
