 Q-Chem 5.1, Q-Chem, Inc., Pleasanton, CA (2018)
 Q-Chem 5.1.1 for Intel X86 EM64T Linux

User input:
--------------------------------------------------------------

$comment
potential surface scanner
$end

$rem
JOBTYPE  PES_SCAN
UNRESTRICTED TRUE
SYM_IGNORE  TRUE
GEOM_OPT_MAX_CYCLES 400
SCF_MAX_CYCLES 400
METHOD   B3LYP
BASIS   6-31G**
PDB_PRINT 2
SCF_CONVERGENCE 6
THRESH 14
SCF_PRINT 1
$end
$molecule
0 3
Cl -0.703153 3.068519 0.066600
Cl 1.341186 1.229942 -0.193299
C -0.722782 -0.715158 -0.284690
C 0.195232 -0.089487 -1.191428
C -0.369244 -1.892289 0.552875
H -1.653468 -0.192836 -0.078572
H 0.976501 -0.729424 -1.597560
H -0.239932 0.580589 -1.927214
H -0.128521 -1.574090 1.579176
H -1.212899 -2.587069 0.637179
H 0.497377 -2.433297 0.161737
$end
$scan
stre 1 3 3.700000 3.701000 0.100000
$end
--------------------------------------------------------------

   11   -1038.2363726192      8.30e-07  Convergence criterion met
 Total energy in the final basis set =    -1038.2363726192
   11   -1038.2364052669      8.60e-07  Convergence criterion met
 Total energy in the final basis set =    -1038.2364052669
   11   -1038.2364250832      8.56e-07  Convergence criterion met
 Total energy in the final basis set =    -1038.2364250832
   11   -1038.2364352659      8.54e-07  Convergence criterion met
 Total energy in the final basis set =    -1038.2364352659
   11   -1038.2364398687      8.52e-07  Convergence criterion met
 Total energy in the final basis set =    -1038.2364398687
   11   -1038.2364464080      8.48e-07  Convergence criterion met
 Total energy in the final basis set =    -1038.2364464080
   11   -1038.2364485174      8.45e-07  Convergence criterion met
 Total energy in the final basis set =    -1038.2364485174

             Standard Nuclear Orientation (Angstroms)
    I     Atom           X                Y                Z
 ----------------------------------------------------------------
    1      Cl     -0.7454141650     2.9734120572     0.1376443894
    2      Cl      1.3609612482     1.2291363862    -0.2200814424
    3      C      -0.7175869802    -0.7012405484    -0.2938115394
    4      C       0.2058600323    -0.0944243392    -1.2068848478
    5      C      -0.3740284012    -1.8719871864     0.5567584839
    6      H      -1.6439104376    -0.1688979160    -0.0945292031
    7      H       0.9832623951    -0.7444624704    -1.6042065795
    8      H      -0.2227198738     0.5710813202    -1.9503878040
    9      H      -0.1276397424    -1.5437498596     1.5785282645
   10      H      -1.2246129399    -2.5568558012     0.6514010084
   11      H       0.4861258645    -2.4266116425     0.1703732699
 ----------------------------------------------------------------

   11   -1038.2364491163      8.42e-07  Convergence criterion met
 Total energy in the final basis set =    -1038.2364491163

                    Orbital Energies (a.u.)
 --------------------------------------------------------------

 Alpha MOs
 -- Occupied --
*******-101.526 -10.269 -10.245 -10.212  -9.475  -9.439  -7.239
 -7.234  -7.228  -7.210  -7.192  -7.192  -0.865  -0.808  -0.775
 -0.720  -0.606  -0.510  -0.467  -0.453  -0.412  -0.409  -0.396
 -0.373  -0.327  -0.294  -0.289  -0.285  -0.242

 Beta MOs
 -- Occupied --
*******-101.520 -10.269 -10.233 -10.213  -9.471  -9.433  -7.232
 -7.226  -7.225  -7.192  -7.189  -7.188  -0.846  -0.786  -0.736
 -0.712  -0.592  -0.505  -0.461  -0.435  -0.406  -0.394  -0.389
 -0.326  -0.318  -0.281  -0.277

          Ground-State Mulliken Net Atomic Charges

     Atom                 Charge (a.u.)    Spin (a.u.)
  --------------------------------------------------------
      1 Cl                   -0.221914       0.760139
      2 Cl                   -0.055836       0.468682
      3 C                     0.005901       0.820900
      4 C                    -0.294670      -0.040593
      5 C                    -0.355948      -0.060588
      6 H                     0.145921      -0.035772
      7 H                     0.168562       0.005169
      8 H                     0.192187       0.006043
      9 H                     0.155983       0.050594
     10 H                     0.136536       0.021162
     11 H                     0.123278       0.004264
  --------------------------------------------------------
  Sum of atomic charges =    -0.000000

                    Cartesian Multipole Moments
 -----------------------------------------------------------------
    Charge (ESU x 10^10)
                 0.0000
    Dipole Moment (Debye)
         X      -0.3989      Y      -4.7818      Z      -1.0889
       Tot       4.9204
    Quadrupole Moments (Debye-Ang)
        XX     -44.8005     XY       0.6181     YY     -53.0036
        XZ      -0.4977     YZ      -0.9048     ZZ     -42.7231

 Final energy is   -1038.23644911632
 **  OPTIMIZATION CONVERGED  **
 Total job time:  29.12s(wall), 336.70s(cpu)
        *  Thank you very much for using Q-Chem.  Have a nice day.  *
