 Q-Chem 5.1, Q-Chem, Inc., Pleasanton, CA (2018)
 Q-Chem 5.1.1 for Intel X86 EM64T Linux

User input:
--------------------------------------------------------------

$comment
potential surface scanner
$end

$rem
JOBTYPE  PES_SCAN
UNRESTRICTED TRUE
SYM_IGNORE  TRUE
GEOM_OPT_MAX_CYCLES 400
SCF_MAX_CYCLES 400
METHOD   B3LYP
BASIS   6-31G**
PDB_PRINT 2
SCF_CONVERGENCE 6
THRESH 14
SCF_PRINT 1
$end
$molecule
0 3
Cl -0.484841 3.329997 -0.529803
Cl 1.264606 1.258175 0.006351
C -0.739598 -0.747693 -0.186943
C 0.131903 -0.023569 -1.064756
C -0.346098 -1.997972 0.515584
H -1.676574 -0.272256 0.092404
H 0.917145 -0.601839 -1.547558
H -0.343373 0.701526 -1.719108
H -0.089794 -1.788382 1.565765
H -1.174674 -2.715489 0.540239
H 0.521594 -2.477096 0.052629
$end
$scan
stre 1 3 4.000000 4.001000 0.100000
$end
--------------------------------------------------------------

   11   -1038.2360844684      8.58e-07  Convergence criterion met
 Total energy in the final basis set =    -1038.2360844684
   11   -1038.2356803237      8.46e-07  Convergence criterion met
 Total energy in the final basis set =    -1038.2356803237
   11   -1038.2359616699      8.41e-07  Convergence criterion met
 Total energy in the final basis set =    -1038.2359616699
   11   -1038.2360925603      8.31e-07  Convergence criterion met
 Total energy in the final basis set =    -1038.2360925603
   11   -1038.2361053787      8.31e-07  Convergence criterion met
 Total energy in the final basis set =    -1038.2361053787
   11   -1038.2361141206      8.36e-07  Convergence criterion met
 Total energy in the final basis set =    -1038.2361141206
   11   -1038.2361188035      8.42e-07  Convergence criterion met
 Total energy in the final basis set =    -1038.2361188035
   11   -1038.2361241750      8.50e-07  Convergence criterion met
 Total energy in the final basis set =    -1038.2361241750
   11   -1038.2361276502      8.54e-07  Convergence criterion met
 Total energy in the final basis set =    -1038.2361276502
   11   -1038.2361296950      8.53e-07  Convergence criterion met
 Total energy in the final basis set =    -1038.2361296950
   11   -1038.2361307022      8.49e-07  Convergence criterion met
 Total energy in the final basis set =    -1038.2361307022

             Standard Nuclear Orientation (Angstroms)
    I     Atom           X                Y                Z
 ----------------------------------------------------------------
    1      Cl     -0.5601048926     3.2591156843    -0.4240360068
    2      Cl      1.2925662686     1.2557512745    -0.0360115634
    3      C      -0.7295266026    -0.7308506030    -0.1971699737
    4      C       0.1502147500    -0.0364645377    -1.0892638260
    5      C      -0.3536267625    -1.9779064774     0.5208509791
    6      H      -1.6553580029    -0.2335097887     0.0809155070
    7      H       0.9314745425    -0.6330444400    -1.5558726493
    8      H      -0.3144980821     0.6800921782    -1.7600905754
    9      H      -0.1010180053    -1.7604441935     1.5702075099
   10      H      -1.1904887616    -2.6858135548     0.5483234402
   11      H       0.5106615485    -2.4715235420     0.0669511583
 ----------------------------------------------------------------

   11   -1038.2361311829      8.44e-07  Convergence criterion met
 Total energy in the final basis set =    -1038.2361311829

                    Orbital Energies (a.u.)
 --------------------------------------------------------------

 Alpha MOs
 -- Occupied --
*******-101.526 -10.268 -10.247 -10.214  -9.475  -9.439  -7.239
 -7.234  -7.228  -7.210  -7.192  -7.192  -0.864  -0.809  -0.775
 -0.720  -0.607  -0.510  -0.467  -0.455  -0.414  -0.409  -0.397
 -0.371  -0.328  -0.294  -0.290  -0.286  -0.243

 Beta MOs
 -- Occupied --
*******-101.520 -10.269 -10.235 -10.215  -9.471  -9.434  -7.231
 -7.226  -7.225  -7.193  -7.189  -7.188  -0.845  -0.787  -0.736
 -0.713  -0.593  -0.505  -0.462  -0.437  -0.407  -0.394  -0.389
 -0.325  -0.318  -0.281  -0.277

          Ground-State Mulliken Net Atomic Charges

     Atom                 Charge (a.u.)    Spin (a.u.)
  --------------------------------------------------------
      1 Cl                   -0.219559       0.760804
      2 Cl                   -0.058609       0.471871
      3 C                     0.005858       0.818864
      4 C                    -0.294551      -0.043568
      5 C                    -0.355955      -0.060669
      6 H                     0.140712      -0.036063
      7 H                     0.168138       0.003946
      8 H                     0.198562       0.008599
      9 H                     0.153073       0.049905
     10 H                     0.137704       0.022774
     11 H                     0.124628       0.003538
  --------------------------------------------------------
  Sum of atomic charges =     0.000000

                    Cartesian Multipole Moments
 -----------------------------------------------------------------
    Charge (ESU x 10^10)
                 0.0000
    Dipole Moment (Debye)
         X      -0.6076      Y      -5.0836      Z      -0.5030
       Tot       5.1445
    Quadrupole Moments (Debye-Ang)
        XX     -44.6775     XY       0.2737     YY     -54.3328
        XZ      -0.6517     YZ       0.4217     ZZ     -43.2279

 Final energy is   -1038.23613118292
 **  OPTIMIZATION CONVERGED  **
 Total job time:  43.62s(wall), 505.56s(cpu)
        *  Thank you very much for using Q-Chem.  Have a nice day.  *
