 Q-Chem 5.1, Q-Chem, Inc., Pleasanton, CA (2018)
 Q-Chem 5.1.1 for Intel X86 EM64T Linux

User input:
--------------------------------------------------------------

$comment
potential surface scanner
$end

$rem
JOBTYPE  PES_SCAN
UNRESTRICTED TRUE
SYM_IGNORE  TRUE
GEOM_OPT_MAX_CYCLES 400
SCF_MAX_CYCLES 400
METHOD   B3LYP
BASIS   6-31G**
PDB_PRINT 2
SCF_CONVERGENCE 6
THRESH 14
SCF_PRINT 1
$end
$molecule
0 3
Cl -0.333963 1.622566 1.097828
Cl 1.564031 1.471856 -0.770777
C -0.739133 -0.494939 -0.355449
C 0.117604 -0.257983 -1.438327
C -0.451133 -1.531635 0.678298
H -1.740238 -0.080788 -0.397686
H 0.963925 -0.915798 -1.599436
H -0.240685 0.294108 -2.298297
H -0.907317 -1.279714 1.637112
H -0.876490 -2.492579 0.351297
H 0.623701 -1.669694 0.820239
$end
$scan
stre 1 3 2.500000 2.501000 0.100000
$end
--------------------------------------------------------------

   12   -1038.2283037249      6.41e-07  Convergence criterion met
 Total energy in the final basis set =    -1038.2283037249
   11   -1038.2265414669      7.39e-07  Convergence criterion met
 Total energy in the final basis set =    -1038.2265414669
   11   -1038.2266726281      7.51e-07  Convergence criterion met
 Total energy in the final basis set =    -1038.2266726281
   11   -1038.2269141762      7.48e-07  Convergence criterion met
 Total energy in the final basis set =    -1038.2269141762
   11   -1038.2269917182      6.74e-07  Convergence criterion met
 Total energy in the final basis set =    -1038.2269917182
   10   -1038.2270873529      9.95e-07  Convergence criterion met
 Total energy in the final basis set =    -1038.2270873529
   10   -1038.2271386156      9.85e-07  Convergence criterion met
 Total energy in the final basis set =    -1038.2271386156
   11   -1038.2271677594      6.39e-07  Convergence criterion met
 Total energy in the final basis set =    -1038.2271677594
   11   -1038.2271787676      7.37e-07  Convergence criterion met
 Total energy in the final basis set =    -1038.2271787676
   11   -1038.2271836720      7.95e-07  Convergence criterion met
 Total energy in the final basis set =    -1038.2271836720
   11   -1038.2271859375      8.32e-07  Convergence criterion met
 Total energy in the final basis set =    -1038.2271859375
   11   -1038.2271869378      8.55e-07  Convergence criterion met
 Total energy in the final basis set =    -1038.2271869378

             Standard Nuclear Orientation (Angstroms)
    I     Atom           X                Y                Z
 ----------------------------------------------------------------
    1      Cl     -0.2949674784     1.5581043470     1.0300371572
    2      Cl      1.6628046284     1.5818619304    -0.7943892272
    3      C      -0.7496087276    -0.4869159733    -0.3342192686
    4      C       0.0803418318    -0.2853739148    -1.4411001085
    5      C      -0.4636096697    -1.5375015537     0.6903736715
    6      H      -1.7613488278    -0.0986140452    -0.3885663924
    7      H       0.9619870641    -0.8991435950    -1.5801349126
    8      H      -0.2576471937     0.3000717113    -2.2863297442
    9      H      -0.9455017499    -1.3128650567     1.6431287199
   10      H      -0.8625713427    -2.4984002538     0.3333804295
   11      H       0.6104234657    -1.6558235962     0.8526216753
 ----------------------------------------------------------------

   11   -1038.2271876254      8.73e-07  Convergence criterion met
 Total energy in the final basis set =    -1038.2271876254

                    Orbital Energies (a.u.)
 --------------------------------------------------------------

 Alpha MOs
 -- Occupied --
*******-101.533 -10.272 -10.258 -10.215  -9.446  -9.446  -7.212
 -7.211  -7.205  -7.205  -7.199  -7.199  -0.849  -0.799  -0.775
 -0.727  -0.608  -0.514  -0.469  -0.455  -0.409  -0.399  -0.385
 -0.360  -0.315  -0.309  -0.287  -0.272  -0.254

 Beta MOs
 -- Occupied --
*******-101.527 -10.268 -10.252 -10.215  -9.441  -9.441  -7.199
 -7.198  -7.198  -7.198  -7.196  -7.196  -0.833  -0.766  -0.739
 -0.716  -0.599  -0.509  -0.464  -0.446  -0.407  -0.396  -0.339
 -0.314  -0.303  -0.279  -0.275

          Ground-State Mulliken Net Atomic Charges

     Atom                 Charge (a.u.)    Spin (a.u.)
  --------------------------------------------------------
      1 Cl                   -0.199940       0.687766
      2 Cl                   -0.195077       0.709961
      3 C                    -0.023817       0.271801
      4 C                    -0.173363       0.362837
      5 C                    -0.337211      -0.014913
      6 H                     0.163759      -0.009850
      7 H                     0.162837      -0.013568
      8 H                     0.167022      -0.015648
      9 H                     0.150852       0.008124
     10 H                     0.136519       0.012002
     11 H                     0.148417       0.001488
  --------------------------------------------------------
  Sum of atomic charges =     0.000000

                    Cartesian Multipole Moments
 -----------------------------------------------------------------
    Charge (ESU x 10^10)
                 0.0000
    Dipole Moment (Debye)
         X      -2.1465      Y      -4.4080      Z      -1.5497
       Tot       5.1419
    Quadrupole Moments (Debye-Ang)
        XX     -45.5672     XY      -1.9774     YY     -48.6218
        XZ       0.5768     YZ      -0.7817     ZZ     -43.0475

 Final energy is   -1038.22718762538
 **  OPTIMIZATION CONVERGED  **
 Total job time:  48.20s(wall), 554.18s(cpu)
        *  Thank you very much for using Q-Chem.  Have a nice day.  *
