 Q-Chem 5.1, Q-Chem, Inc., Pleasanton, CA (2018)
 Q-Chem 5.1.1 for Intel X86 EM64T Linux

User input:
--------------------------------------------------------------

$comment
potential surface scanner
$end

$rem
JOBTYPE  PES_SCAN
UNRESTRICTED TRUE
SYM_IGNORE  TRUE
GEOM_OPT_MAX_CYCLES 400
SCF_MAX_CYCLES 400
METHOD   B3LYP
BASIS   6-31G**
PDB_PRINT 2
SCF_CONVERGENCE 6
THRESH 14
SCF_PRINT 1
$end
$molecule
0 1
Cl -1.264515 1.361852 0.218903
Cl 1.954561 0.120734 0.611268
C -0.619279 -0.169678 -0.472535
C 0.858682 -0.026770 -0.823004
C -0.945574 -1.345456 0.440094
H -1.140005 -0.286404 -1.429177
H 1.182448 -0.916590 -1.368365
H 1.029472 0.856750 -1.437857
H -0.471172 -1.223445 1.415645
H -2.025014 -1.431143 0.581265
H -0.579305 -2.274448 -0.011440
$end
$scan
stre 1 3 1.900000 1.901000 0.100000
$end
--------------------------------------------------------------

    9   -1038.3413544470      3.71e-07  Convergence criterion met
 Total energy in the final basis set =    -1038.3413544470
    9   -1038.3399133716      2.90e-07  Convergence criterion met
 Total energy in the final basis set =    -1038.3399133716
    9   -1038.3402137134      2.53e-07  Convergence criterion met
 Total energy in the final basis set =    -1038.3402137134
    9   -1038.3403220553      2.40e-07  Convergence criterion met
 Total energy in the final basis set =    -1038.3403220553
    9   -1038.3403244955      2.42e-07  Convergence criterion met
 Total energy in the final basis set =    -1038.3403244955

             Standard Nuclear Orientation (Angstroms)
    I     Atom           X                Y                Z
 ----------------------------------------------------------------
    1      Cl     -1.2882469079     1.4139365108     0.2358861706
    2      Cl      1.9531103866     0.1137404220     0.6122366866
    3      C      -0.6052953569    -0.2043274879    -0.4885432943
    4      C       0.8650746320    -0.0294660526    -0.8259129477
    5      C      -0.9453053639    -1.3523883868     0.4417285922
    6      H      -1.1445347392    -0.2875111845    -1.4359205331
    7      H       1.2022690947    -0.9097529537    -1.3805262925
    8      H       1.0239550082     0.8613502745    -1.4325905499
    9      H      -0.4674814933    -1.2232948876     1.4143083270
   10      H      -2.0251543479    -1.4256655663     0.5830246054
   11      H      -0.5880919124    -2.2912186881     0.0011062357
 ----------------------------------------------------------------

    9   -1038.3403248898      2.43e-07  Convergence criterion met
 Total energy in the final basis set =    -1038.3403248898

                    Orbital Energies (a.u.)
 --------------------------------------------------------------

 Alpha MOs
 -- Occupied --
*******-101.531 -10.277 -10.266 -10.202  -9.458  -9.447  -7.222
 -7.212  -7.212  -7.211  -7.201  -7.201  -0.883  -0.830  -0.759
 -0.704  -0.594  -0.496  -0.487  -0.451  -0.421  -0.397  -0.386
 -0.367  -0.308  -0.305  -0.298  -0.295

 Beta MOs
 -- Occupied --
*******-101.531 -10.277 -10.266 -10.202  -9.458  -9.447  -7.222
 -7.212  -7.212  -7.211  -7.201  -7.201  -0.883  -0.830  -0.759
 -0.704  -0.594  -0.496  -0.487  -0.451  -0.421  -0.397  -0.386
 -0.367  -0.308  -0.305  -0.298  -0.295

          Ground-State Mulliken Net Atomic Charges

     Atom                 Charge (a.u.)    Spin (a.u.)
  --------------------------------------------------------
      1 Cl                   -0.113193      -0.000000
      2 Cl                   -0.066564      -0.000000
      3 C                    -0.159580       0.000000
      4 C                    -0.266854      -0.000000
      5 C                    -0.303676      -0.000000
      6 H                     0.163498      -0.000000
      7 H                     0.161899       0.000000
      8 H                     0.176827       0.000000
      9 H                     0.155637      -0.000000
     10 H                     0.134896       0.000000
     11 H                     0.117109       0.000000
  --------------------------------------------------------
  Sum of atomic charges =    -0.000000

                    Cartesian Multipole Moments
 -----------------------------------------------------------------
    Charge (ESU x 10^10)
                 0.0000
    Dipole Moment (Debye)
         X      -0.4056      Y      -2.2981      Z      -2.1756
       Tot       3.1905
    Quadrupole Moments (Debye-Ang)
        XX     -48.2165     XY       2.2478     YY     -45.4279
        XZ      -1.2276     YZ      -0.2053     ZZ     -42.5206

 Final energy is   -1038.34032488978
 **  OPTIMIZATION CONVERGED  **
 Total job time:  19.45s(wall), 224.67s(cpu)
        *  Thank you very much for using Q-Chem.  Have a nice day.  *
