 Q-Chem 5.1, Q-Chem, Inc., Pleasanton, CA (2018)
 Q-Chem 5.1.1 for Intel X86 EM64T Linux

User input:
--------------------------------------------------------------

$comment
potential surface scanner
$end

$rem
JOBTYPE  PES_SCAN
UNRESTRICTED TRUE
SYM_IGNORE  TRUE
GEOM_OPT_MAX_CYCLES 400
SCF_MAX_CYCLES 400
METHOD   B3LYP
BASIS   6-31G**
PDB_PRINT 2
SCF_CONVERGENCE 6
THRESH 14
SCF_PRINT 1
$end
$molecule
0 3
Cl 0.997104 2.874188 -1.729296
Cl 0.676675 1.448662 0.554539
C -0.902782 -0.834756 -0.031012
C -0.283543 0.220593 -0.756944
C -0.195627 -2.075944 0.383261
H -1.900363 -0.661353 0.366852
H 0.563365 -0.042157 -1.385047
H -0.940513 0.952347 -1.214529
H 0.120613 -2.006242 1.436036
H -0.854782 -2.948985 0.317588
H 0.700148 -2.260952 -0.216647
$end
$scan
stre 1 3 4.400000 4.401000 0.100000
$end
--------------------------------------------------------------

   11   -1038.2337032947      9.20e-07  Convergence criterion met
 Total energy in the final basis set =    -1038.2337032947
   11   -1038.2299660980      8.88e-07  Convergence criterion met
 Total energy in the final basis set =    -1038.2299660980
   11   -1038.2316536452      8.70e-07  Convergence criterion met
 Total energy in the final basis set =    -1038.2316536452
   11   -1038.2321146688      8.36e-07  Convergence criterion met
 Total energy in the final basis set =    -1038.2321146688
   11   -1038.2321423769      8.33e-07  Convergence criterion met
 Total energy in the final basis set =    -1038.2321423769
   11   -1038.2321590260      8.37e-07  Convergence criterion met
 Total energy in the final basis set =    -1038.2321590260
   11   -1038.2321679944      8.45e-07  Convergence criterion met
 Total energy in the final basis set =    -1038.2321679944
   11   -1038.2321719333      8.52e-07  Convergence criterion met
   11   -1038.2321893610      8.28e-07  Convergence criterion met
 Total energy in the final basis set =    -1038.2321893610
   11   -1038.2321909440      8.25e-07  Convergence criterion met
 Total energy in the final basis set =    -1038.2321909440
   11   -1038.2321934813      8.24e-07  Convergence criterion met
 Total energy in the final basis set =    -1038.2321934813
   11   -1038.2321969940      8.26e-07  Convergence criterion met
 Total energy in the final basis set =    -1038.2321969940
   11   -1038.2321999069      8.31e-07  Convergence criterion met
 Total energy in the final basis set =    -1038.2321999069
   11   -1038.2322015050      8.36e-07  Convergence criterion met
 Total energy in the final basis set =    -1038.2322015050

             Standard Nuclear Orientation (Angstroms)
    I     Atom           X                Y                Z
 ----------------------------------------------------------------
    1      Cl      0.9721266593     2.7619147132    -1.7702649466
    2      Cl      0.7143547996     1.4572306855     0.5686349673
    3      C      -0.8923030049    -0.8155254805    -0.0136136395
    4      C      -0.2998142922     0.2234585474    -0.7627775246
    5      C      -0.1877473225    -2.0649343861     0.3793967016
    6      H      -1.8811102372    -0.6421127447     0.4065062624
    7      H       0.5437641512    -0.0277652704    -1.3983438588
    8      H      -0.9581733832     0.9722311266    -1.1873405279
    9      H       0.0281741923    -2.0628707408     1.4582664715
   10      H      -0.8177189476    -2.9446221879     0.1972105265
   11      H       0.7587423852    -2.1916032625    -0.1528734321
 ----------------------------------------------------------------

   11   -1038.2322020322      8.38e-07  Convergence criterion met
 Total energy in the final basis set =    -1038.2322020322

                    Orbital Energies (a.u.)
 --------------------------------------------------------------

 Alpha MOs
 -- Occupied --
*******-101.522 -10.264 -10.251 -10.217  -9.472  -9.435  -7.236
 -7.232  -7.225  -7.206  -7.189  -7.188  -0.863  -0.813  -0.772
 -0.724  -0.608  -0.513  -0.470  -0.457  -0.415  -0.406  -0.397
 -0.378  -0.323  -0.292  -0.289  -0.282  -0.249

 Beta MOs
 -- Occupied --
*******-101.516 -10.264 -10.241 -10.218  -9.468  -9.430  -7.228
 -7.223  -7.222  -7.189  -7.186  -7.185  -0.843  -0.789  -0.734
 -0.717  -0.595  -0.508  -0.464  -0.440  -0.409  -0.395  -0.381
 -0.328  -0.313  -0.279  -0.276

          Ground-State Mulliken Net Atomic Charges

     Atom                 Charge (a.u.)    Spin (a.u.)
  --------------------------------------------------------
      1 Cl                   -0.228336       0.739847
      2 Cl                   -0.080239       0.535708
      3 C                     0.003404       0.774014
      4 C                    -0.279342      -0.038964
      5 C                    -0.356113      -0.056423
      6 H                     0.129752      -0.034172
      7 H                     0.190180       0.004676
      8 H                     0.197418       0.003575
      9 H                     0.151247       0.043969
     10 H                     0.139238       0.025820
     11 H                     0.132791       0.001951
  --------------------------------------------------------
  Sum of atomic charges =     0.000000

                    Cartesian Multipole Moments
 -----------------------------------------------------------------
    Charge (ESU x 10^10)
                 0.0000
    Dipole Moment (Debye)
         X      -2.3515      Y      -4.8420      Z       0.8605
       Tot       5.4511
    Quadrupole Moments (Debye-Ang)
        XX     -45.1153     XY      -3.3762     YY     -51.9563
        XZ       1.3429     YZ       3.0712     ZZ     -46.3917

 Final energy is   -1038.23220203217
 **  OPTIMIZATION CONVERGED  **
 Total job time:  84.17s(wall), 872.20s(cpu)
        *  Thank you very much for using Q-Chem.  Have a nice day.  *
