 Q-Chem 5.1, Q-Chem, Inc., Pleasanton, CA (2018)
 Q-Chem 5.1.1 for Intel X86 EM64T Linux

User input:
--------------------------------------------------------------

$comment
potential surface scanner
$end

$rem
JOBTYPE  PES_SCAN
UNRESTRICTED TRUE
SYM_IGNORE  TRUE
GEOM_OPT_MAX_CYCLES 400
SCF_MAX_CYCLES 400
METHOD   B3LYP
BASIS   6-31G**
PDB_PRINT 2
SCF_CONVERGENCE 6
THRESH 14
SCF_PRINT 1
$end
$molecule
0 1
Cl -1.271337 1.376813 0.223864
Cl 1.954052 0.118637 0.611689
C -0.615377 -0.179542 -0.477229
C 0.860334 -0.027482 -0.823928
C -0.945393 -1.347408 0.440549
H -1.141317 -0.286818 -1.431387
H 1.187714 -0.914977 -1.371435
H 1.028018 0.858113 -1.436294
H -0.469897 -1.223340 1.415209
H -2.024892 -1.429544 0.581904
H -0.581605 -2.279052 -0.008144
$end
$scan
stre 1 3 1.400000 1.401000 0.100000
$end
--------------------------------------------------------------

    9   -1038.3416009812      3.04e-07  Convergence criterion met
 Total energy in the final basis set =    -1038.3416009812
    9   -1038.3321207240      4.78e-07  Convergence criterion met
 Total energy in the final basis set =    -1038.3321207240
    9   -1038.2933894752      4.57e-07  Convergence criterion met
 Total energy in the final basis set =    -1038.2933894752
    9   -1038.2269778747      4.70e-07  Convergence criterion met
 Total energy in the final basis set =    -1038.2269778747
    9   -1038.2213937555      4.87e-07  Convergence criterion met
 Total energy in the final basis set =    -1038.2213937555
    9   -1038.2224940327      5.17e-07  Convergence criterion met
 Total energy in the final basis set =    -1038.2224940327
    9   -1038.2225246398      5.19e-07  Convergence criterion met
 Total energy in the final basis set =    -1038.2225246398
    9   -1038.2225497871      5.22e-07  Convergence criterion met
    9   -1038.2225555701      5.23e-07  Convergence criterion met
 Total energy in the final basis set =    -1038.2225555701
    9   -1038.2225740523      5.24e-07  Convergence criterion met
 Total energy in the final basis set =    -1038.2225740523
    9   -1038.2225837886      5.24e-07  Convergence criterion met
 Total energy in the final basis set =    -1038.2225837886
    9   -1038.2225934807      5.23e-07  Convergence criterion met
 Total energy in the final basis set =    -1038.2225934807
    9   -1038.2225981896      5.22e-07  Convergence criterion met
 Total energy in the final basis set =    -1038.2225981896
    9   -1038.2226003375      5.22e-07  Convergence criterion met
 Total energy in the final basis set =    -1038.2226003375

             Standard Nuclear Orientation (Angstroms)
    I     Atom           X                Y                Z
 ----------------------------------------------------------------
    1      Cl     -1.1713723391     1.1577890537     0.1631313121
    2      Cl      1.9610246426     0.2043221285     0.6074741369
    3      C      -0.6764554859    -0.0244529066    -0.4002169411
    4      C       0.8393316972    -0.0200935344    -0.8046795583
    5      C      -0.9492514802    -1.3264858250     0.4256161714
    6      H      -1.1107961267    -0.2715100454    -1.3963832409
    7      H       1.1147400229    -0.9609068097    -1.2811381779
    8      H       1.0415950831     0.8125364233    -1.4817144365
    9      H      -0.4628820209    -1.2546795255     1.4024263403
   10      H      -2.0264319572    -1.4360525583     0.5829602571
   11      H      -0.5792020357    -2.2150664008    -0.0926778632
 ----------------------------------------------------------------

    9   -1038.2226011680      5.22e-07  Convergence criterion met
 Total energy in the final basis set =    -1038.2226011680

                    Orbital Energies (a.u.)
 --------------------------------------------------------------

 Alpha MOs
 -- Occupied --
*******-101.533 -10.252 -10.248 -10.189  -9.474  -9.450  -7.237
 -7.227  -7.227  -7.214  -7.204  -7.204  -0.996  -0.846  -0.742
 -0.690  -0.587  -0.518  -0.484  -0.482  -0.428  -0.406  -0.389
 -0.384  -0.312  -0.296  -0.281  -0.278

 Beta MOs
 -- Occupied --
*******-101.533 -10.252 -10.248 -10.189  -9.474  -9.450  -7.237
 -7.227  -7.227  -7.214  -7.204  -7.204  -0.996  -0.846  -0.742
 -0.690  -0.587  -0.518  -0.484  -0.482  -0.428  -0.406  -0.389
 -0.384  -0.312  -0.296  -0.281  -0.278

          Ground-State Mulliken Net Atomic Charges

     Atom                 Charge (a.u.)    Spin (a.u.)
  --------------------------------------------------------
      1 Cl                    0.083247       0.000000
      2 Cl                   -0.093140       0.000000
      3 C                    -0.184968      -0.000000
      4 C                    -0.281695      -0.000000
      5 C                    -0.320562      -0.000000
      6 H                     0.125047       0.000000
      7 H                     0.154143      -0.000000
      8 H                     0.156663       0.000000
      9 H                     0.139123      -0.000000
     10 H                     0.115092       0.000000
     11 H                     0.107050      -0.000000
  --------------------------------------------------------
  Sum of atomic charges =    -0.000000

                    Cartesian Multipole Moments
 -----------------------------------------------------------------
    Charge (ESU x 10^10)
                -0.0000
    Dipole Moment (Debye)
         X      -1.2138      Y      -1.0902      Z      -1.7959
       Tot       2.4264
    Quadrupole Moments (Debye-Ang)
        XX     -47.7034     XY       0.4176     YY     -44.5014
        XZ      -1.4414     YZ      -0.0923     ZZ     -42.9826

 Final energy is   -1038.22260116805
 **  OPTIMIZATION CONVERGED  **
 Total job time:  48.27s(wall), 565.22s(cpu)
        *  Thank you very much for using Q-Chem.  Have a nice day.  *
