 Q-Chem 5.1, Q-Chem, Inc., Pleasanton, CA (2018)
 Q-Chem 5.1.1 for Intel X86 EM64T Linux

User input:
--------------------------------------------------------------

$comment
potential surface scanner
$end

$rem
JOBTYPE  PES_SCAN
UNRESTRICTED TRUE
SYM_IGNORE  TRUE
GEOM_OPT_MAX_CYCLES 400
SCF_MAX_CYCLES 400
METHOD   B3LYP
BASIS   6-31G**
PDB_PRINT 2
SCF_CONVERGENCE 6
THRESH 14
SCF_PRINT 1
$end
$molecule
0 1
Cl -1.271337 1.376813 0.223864
Cl 1.954052 0.118637 0.611689
C -0.615377 -0.179542 -0.477229
C 0.860334 -0.027482 -0.823928
C -0.945393 -1.347408 0.440549
H -1.141317 -0.286818 -1.431387
H 1.187714 -0.914977 -1.371435
H 1.028018 0.858113 -1.436294
H -0.469897 -1.223340 1.415209
H -2.024892 -1.429544 0.581904
H -0.581605 -2.279052 -0.008144
$end
$scan
stre 1 3 1.300000 1.301000 0.100000
$end
--------------------------------------------------------------

    9   -1038.3416009812      3.04e-07  Convergence criterion met
 Total energy in the final basis set =    -1038.3416009812
    9   -1038.3321207240      4.78e-07  Convergence criterion met
 Total energy in the final basis set =    -1038.3321207240
    9   -1038.2933894752      4.57e-07  Convergence criterion met
 Total energy in the final basis set =    -1038.2933894752
    9   -1038.2221940509      4.68e-07  Convergence criterion met
 Total energy in the final basis set =    -1038.2221940509
    9   -1038.1348632897      5.06e-07  Convergence criterion met
 Total energy in the final basis set =    -1038.1348632897
    9   -1038.1153215625      5.32e-07  Convergence criterion met
 Total energy in the final basis set =    -1038.1153215625
    9   -1038.1147571703      5.52e-07  Convergence criterion met
 Total energy in the final basis set =    -1038.1147571703
    9   -1038.1148451754      5.65e-07  Convergence criterion met
    9   -1038.1149010372      5.73e-07  Convergence criterion met
 Total energy in the final basis set =    -1038.1149010372
    9   -1038.1149221411      5.74e-07  Convergence criterion met
 Total energy in the final basis set =    -1038.1149221411
    9   -1038.1149389425      5.73e-07  Convergence criterion met
 Total energy in the final basis set =    -1038.1149389425
    9   -1038.1149509871      5.71e-07  Convergence criterion met
 Total energy in the final basis set =    -1038.1149509871
    9   -1038.1149562500      5.71e-07  Convergence criterion met
 Total energy in the final basis set =    -1038.1149562500
    9   -1038.1149583059      5.70e-07  Convergence criterion met
 Total energy in the final basis set =    -1038.1149583059

             Standard Nuclear Orientation (Angstroms)
    I     Atom           X                Y                Z
 ----------------------------------------------------------------
    1      Cl     -1.1473922826     1.1106784537     0.1529192578
    2      Cl      1.9649624783     0.2325027076     0.6042709181
    3      C      -0.6935082937     0.0149231478    -0.3793499206
    4      C       0.8390766443    -0.0200842763    -0.8003355318
    5      C      -0.9521866455    -1.3254424812     0.4221188360
    6      H      -1.1021774353    -0.2658066121    -1.3887026542
    7      H       1.1015383588    -0.9737339874    -1.2569738557
    8      H       1.0426412501     0.7981728695    -1.4953786047
    9      H      -0.4617631070    -1.2653831285     1.3984700565
   10      H      -2.0292838595    -1.4381261696     0.5820730881
   11      H      -0.5816071080    -2.2023005234    -0.1143135895
 ----------------------------------------------------------------

    9   -1038.1149592536      5.70e-07  Convergence criterion met
 Total energy in the final basis set =    -1038.1149592536

                    Orbital Energies (a.u.)
 --------------------------------------------------------------

 Alpha MOs
 -- Occupied --
*******-101.532 -10.248 -10.246 -10.187  -9.482  -9.449  -7.245
 -7.234  -7.234  -7.212  -7.203  -7.203  -1.037  -0.845  -0.737
 -0.688  -0.586  -0.531  -0.496  -0.486  -0.436  -0.405  -0.393
 -0.385  -0.312  -0.294  -0.270  -0.268

 Beta MOs
 -- Occupied --
*******-101.532 -10.248 -10.246 -10.187  -9.482  -9.449  -7.245
 -7.234  -7.234  -7.212  -7.203  -7.203  -1.037  -0.845  -0.737
 -0.688  -0.586  -0.531  -0.496  -0.486  -0.436  -0.405  -0.393
 -0.385  -0.312  -0.294  -0.270  -0.268

          Ground-State Mulliken Net Atomic Charges

     Atom                 Charge (a.u.)    Spin (a.u.)
  --------------------------------------------------------
      1 Cl                    0.117923       0.000000
      2 Cl                   -0.098404       0.000000
      3 C                    -0.166956       0.000000
      4 C                    -0.290566       0.000000
      5 C                    -0.329425       0.000000
      6 H                     0.108360       0.000000
      7 H                     0.153222      -0.000000
      8 H                     0.152562      -0.000000
      9 H                     0.135749      -0.000000
     10 H                     0.111145      -0.000000
     11 H                     0.106391      -0.000000
  --------------------------------------------------------
  Sum of atomic charges =     0.000000

                    Cartesian Multipole Moments
 -----------------------------------------------------------------
    Charge (ESU x 10^10)
                -0.0000
    Dipole Moment (Debye)
         X      -1.3615      Y      -0.8939      Z      -1.7055
       Tot       2.3583
    Quadrupole Moments (Debye-Ang)
        XX     -47.5848     XY       0.0816     YY     -44.3757
        XZ      -1.4745     YZ      -0.1346     ZZ     -43.1003

 Final energy is   -1038.11495925360
 **  OPTIMIZATION CONVERGED  **
 Total job time:  54.83s(wall), 639.75s(cpu)
        *  Thank you very much for using Q-Chem.  Have a nice day.  *
