 Q-Chem 5.1, Q-Chem, Inc., Pleasanton, CA (2018)
 Q-Chem 5.1.1 for Intel X86 EM64T Linux

User input:
--------------------------------------------------------------

$comment
potential surface scanner
$end

$rem
JOBTYPE  PES_SCAN
UNRESTRICTED TRUE
SYM_IGNORE  TRUE
GEOM_OPT_MAX_CYCLES 400
SCF_MAX_CYCLES 400
METHOD   B3LYP
BASIS   6-31G**
PDB_PRINT 2
SCF_CONVERGENCE 6
THRESH 14
SCF_PRINT 1
$end
$molecule
0 1
Cl -1.434805 1.690322 0.277556
Cl 1.974614 -0.033095 0.597574
C -0.539255 -0.372131 -0.561658
C 0.892358 -0.049865 -0.840279
C -0.939399 -1.377272 0.458059
H -1.149776 -0.318745 -1.460707
H 1.277125 -0.831136 -1.510574
H 0.983103 0.913225 -1.339716
H -0.481376 -1.170876 1.425876
H -2.023472 -1.423105 0.560491
H -0.578816 -2.361920 0.118175
$end
$scan
stre 1 3 2.500000 2.501000 0.100000
$end
--------------------------------------------------------------

    9   -1038.3039768213      9.85e-07  Convergence criterion met
 Total energy in the final basis set =    -1038.3039768213
   10   -1038.2958290638      3.34e-07  Convergence criterion met
 Total energy in the final basis set =    -1038.2958290638
   10   -1038.2957178457      3.37e-07  Convergence criterion met
 Total energy in the final basis set =    -1038.2957178457
   10   -1038.2958367306      3.40e-07  Convergence criterion met
 Total energy in the final basis set =    -1038.2958367306
   10   -1038.2958418263      3.41e-07  Convergence criterion met
 Total energy in the final basis set =    -1038.2958418263
   10   -1038.2958448690      3.42e-07  Convergence criterion met
 Total energy in the final basis set =    -1038.2958448690
   10   -1038.2958461824      3.42e-07  Convergence criterion met
 Total energy in the final basis set =    -1038.2958461824
   10   -1038.2958478905      3.42e-07  Convergence criterion met
 Total energy in the final basis set =    -1038.2958478905
   10   -1038.2958489918      3.42e-07  Convergence criterion met
 Total energy in the final basis set =    -1038.2958489918

             Standard Nuclear Orientation (Angstroms)
    I     Atom           X                Y                Z
 ----------------------------------------------------------------
    1      Cl     -1.4693061811     1.7505800180     0.2815089958
    2      Cl      1.9822966547    -0.0675332442     0.5920541866
    3      C      -0.5273494205    -0.4016026451    -0.5733738705
    4      C       0.8969960855    -0.0560904163    -0.8418979239
    5      C      -0.9372457326    -1.3819769650     0.4601719250
    6      H      -1.1484798652    -0.3246777034    -1.4630334922
    7      H       1.2881482120    -0.8141845026    -1.5361027776
    8      H       0.9742973523     0.9204212932    -1.3173933222
    9      H      -0.4839299128    -1.1600046978     1.4269171979
   10      H      -2.0219470825    -1.4259560375     0.5543396416
   11      H      -0.5731791100    -2.3735730992     0.1416064396
 ----------------------------------------------------------------

   10   -1038.2958498525      3.42e-07  Convergence criterion met
 Total energy in the final basis set =    -1038.2958498525

                    Orbital Energies (a.u.)
 --------------------------------------------------------------

 Alpha MOs
 -- Occupied --
*******-101.492 -10.311 -10.286 -10.224  -9.474  -9.404  -7.238
 -7.228  -7.227  -7.167  -7.159  -7.159  -0.893  -0.817  -0.734
 -0.728  -0.610  -0.518  -0.500  -0.464  -0.443  -0.420  -0.403
 -0.323  -0.320  -0.293  -0.264  -0.263

 Beta MOs
 -- Occupied --
*******-101.492 -10.311 -10.286 -10.224  -9.474  -9.404  -7.238
 -7.228  -7.227  -7.167  -7.159  -7.159  -0.893  -0.817  -0.734
 -0.728  -0.610  -0.518  -0.500  -0.464  -0.443  -0.420  -0.403
 -0.323  -0.320  -0.293  -0.264  -0.263

          Ground-State Mulliken Net Atomic Charges

     Atom                 Charge (a.u.)    Spin (a.u.)
  --------------------------------------------------------
      1 Cl                   -0.393033       0.000000
      2 Cl                   -0.035655       0.000000
      3 C                     0.001608       0.000000
      4 C                    -0.297260      -0.000000
      5 C                    -0.329480      -0.000000
      6 H                     0.184500      -0.000000
      7 H                     0.176738       0.000000
      8 H                     0.210944       0.000000
      9 H                     0.181657       0.000000
     10 H                     0.161334       0.000000
     11 H                     0.138646       0.000000
  --------------------------------------------------------
  Sum of atomic charges =     0.000000

                    Cartesian Multipole Moments
 -----------------------------------------------------------------
    Charge (ESU x 10^10)
                -0.0000
    Dipole Moment (Debye)
         X       0.9853      Y      -4.5600      Z      -2.7087
       Tot       5.3946
    Quadrupole Moments (Debye-Ang)
        XX     -49.4463     XY       6.0323     YY     -48.0376
        XZ      -0.7784     YZ      -0.8491     ZZ     -41.7365

 Final energy is   -1038.29584985247
 **  OPTIMIZATION CONVERGED  **
 Total job time:  33.51s(wall), 391.80s(cpu)
        *  Thank you very much for using Q-Chem.  Have a nice day.  *
