 Q-Chem 5.1, Q-Chem, Inc., Pleasanton, CA (2018)
 Q-Chem 5.1.1 for Intel X86 EM64T Linux

User input:
--------------------------------------------------------------

$comment
potential surface scanner
$end

$rem
JOBTYPE  PES_SCAN
UNRESTRICTED TRUE
SYM_IGNORE  TRUE
GEOM_OPT_MAX_CYCLES 400
SCF_MAX_CYCLES 400
METHOD   B3LYP
BASIS   6-31G**
PDB_PRINT 2
SCF_CONVERGENCE 6
THRESH 14
SCF_PRINT 1
$end
$molecule
0 3
Cl -0.560105 3.259116 -0.424036
Cl 1.292566 1.255751 -0.036012
C -0.729527 -0.730851 -0.197170
C 0.150215 -0.036465 -1.089264
C -0.353627 -1.977906 0.520851
H -1.655358 -0.233510 0.080916
H 0.931475 -0.633044 -1.555873
H -0.314498 0.680092 -1.760091
H -0.101018 -1.760444 1.570208
H -1.190489 -2.685814 0.548323
H 0.510662 -2.471524 0.066951
$end
$scan
stre 1 3 3.900000 3.901000 0.100000
$end
--------------------------------------------------------------

   11   -1038.2361311828      8.44e-07  Convergence criterion met
 Total energy in the final basis set =    -1038.2361311828
   11   -1038.2357469470      8.39e-07  Convergence criterion met
 Total energy in the final basis set =    -1038.2357469470
   11   -1038.2359878030      8.36e-07  Convergence criterion met
 Total energy in the final basis set =    -1038.2359878030
   11   -1038.2361070895      8.31e-07  Convergence criterion met
 Total energy in the final basis set =    -1038.2361070895
   11   -1038.2361197470      8.35e-07  Convergence criterion met
 Total energy in the final basis set =    -1038.2361197470
   11   -1038.2361307891      8.46e-07  Convergence criterion met
 Total energy in the final basis set =    -1038.2361307891
   11   -1038.2361385591      8.57e-07  Convergence criterion met
 Total energy in the final basis set =    -1038.2361385591
   11   -1038.2361514112      8.76e-07  Convergence criterion met
   11   -1038.2361850223      9.04e-07  Convergence criterion met
 Total energy in the final basis set =    -1038.2361850223
   11   -1038.2362021375      8.92e-07  Convergence criterion met
 Total energy in the final basis set =    -1038.2362021375
   11   -1038.2362202994      8.59e-07  Convergence criterion met
 Total energy in the final basis set =    -1038.2362202994
   11   -1038.2362293477      8.35e-07  Convergence criterion met
 Total energy in the final basis set =    -1038.2362293477
   11   -1038.2362327825      8.25e-07  Convergence criterion met
 Total energy in the final basis set =    -1038.2362327825
   11   -1038.2362341200      8.25e-07  Convergence criterion met
 Total energy in the final basis set =    -1038.2362341200

             Standard Nuclear Orientation (Angstroms)
    I     Atom           X                Y                Z
 ----------------------------------------------------------------
    1      Cl     -0.6532201541     3.1652484920    -0.0476415875
    2      Cl      1.3211225766     1.2310364743    -0.1530453107
    3      C      -0.7288903830    -0.7277881001    -0.2679656267
    4      C       0.1813974416    -0.0788855845    -1.1667712293
    5      C      -0.3634364876    -1.9177416964     0.5461032142
    6      H      -1.6633771055    -0.2176174902    -0.0487073998
    7      H       0.9647201857    -0.7068933699    -1.5873420979
    8      H      -0.2611945074     0.6011672052    -1.8889322891
    9      H      -0.1247770545    -1.6182637160     1.5785384147
   10      H      -1.2000621082    -2.6225108406     0.6170541706
   11      H       0.5080135963    -2.4423503740     0.1435127416
 ----------------------------------------------------------------

   11   -1038.2362350547      8.29e-07  Convergence criterion met
 Total energy in the final basis set =    -1038.2362350547

                    Orbital Energies (a.u.)
 --------------------------------------------------------------

 Alpha MOs
 -- Occupied --
*******-101.526 -10.269 -10.245 -10.213  -9.475  -9.439  -7.239
 -7.234  -7.228  -7.210  -7.192  -7.192  -0.865  -0.808  -0.775
 -0.720  -0.607  -0.510  -0.467  -0.454  -0.413  -0.410  -0.396
 -0.372  -0.328  -0.294  -0.289  -0.286  -0.242

 Beta MOs
 -- Occupied --
*******-101.520 -10.270 -10.234 -10.214  -9.471  -9.434  -7.232
 -7.226  -7.225  -7.192  -7.189  -7.188  -0.846  -0.787  -0.736
 -0.712  -0.592  -0.505  -0.461  -0.436  -0.407  -0.395  -0.389
 -0.325  -0.318  -0.281  -0.277

          Ground-State Mulliken Net Atomic Charges

     Atom                 Charge (a.u.)    Spin (a.u.)
  --------------------------------------------------------
      1 Cl                   -0.217704       0.765462
      2 Cl                   -0.055678       0.460209
      3 C                     0.003878       0.826030
      4 C                    -0.295648      -0.043490
      5 C                    -0.355453      -0.060933
      6 H                     0.142699      -0.036060
      7 H                     0.169031       0.005492
      8 H                     0.193656       0.006949
      9 H                     0.154697       0.050603
     10 H                     0.136718       0.021657
     11 H                     0.123804       0.004081
  --------------------------------------------------------
  Sum of atomic charges =    -0.000000

                    Cartesian Multipole Moments
 -----------------------------------------------------------------
    Charge (ESU x 10^10)
                -0.0000
    Dipole Moment (Debye)
         X      -0.4960      Y      -4.9427      Z      -0.8997
       Tot       5.0483
    Quadrupole Moments (Debye-Ang)
        XX     -44.7120     XY       0.4386     YY     -53.8273
        XZ      -0.5505     YZ      -0.5045     ZZ     -42.8510

 Final energy is   -1038.23623505473
 **  OPTIMIZATION CONVERGED  **
 Total job time:  58.09s(wall), 672.84s(cpu)
        *  Thank you very much for using Q-Chem.  Have a nice day.  *
