 Q-Chem 5.1, Q-Chem, Inc., Pleasanton, CA (2018)
 Q-Chem 5.1.1 for Intel X86 EM64T Linux

User input:
--------------------------------------------------------------

$comment
potential surface scanner
$end

$rem
JOBTYPE  PES_SCAN
UNRESTRICTED TRUE
SYM_IGNORE  TRUE
GEOM_OPT_MAX_CYCLES 400
SCF_MAX_CYCLES 400
METHOD   B3LYP
BASIS   6-31G**
PDB_PRINT 2
SCF_CONVERGENCE 6
THRESH 14
SCF_PRINT 1
$end
$molecule
0 3
Cl -0.885528 4.611144 -1.003496
Cl 1.972877 0.350767 -0.253015
C -0.601534 -0.674511 0.064775
C 0.262758 -0.114284 -0.966632
C -0.528496 -2.099747 0.489792
H -1.156363 0.022349 0.688738
H 0.513524 -0.816154 -1.761924
H -0.094126 0.828292 -1.378625
H 0.212393 -2.234893 1.294499
H -1.488597 -2.450189 0.883439
H -0.226607 -2.757373 -0.332753
$end
$scan
stre 1 3 5.300000 5.301000 0.100000
$end
--------------------------------------------------------------

   31   -1038.2229481037      8.16e-07  Convergence criterion met
 Total energy in the final basis set =    -1038.2229481037
   36   -1038.2228051911      5.12e-07  Convergence criterion met
 Total energy in the final basis set =    -1038.2228051911
   27   -1038.2229702452      5.96e-07  Convergence criterion met
 Total energy in the final basis set =    -1038.2229702452
   31   -1038.2230415905      5.13e-07  Convergence criterion met
 Total energy in the final basis set =    -1038.2230415905
   31   -1038.2230439193      4.41e-07  Convergence criterion met
 Total energy in the final basis set =    -1038.2230439193
   28   -1038.2230572465      3.76e-07  Convergence criterion met
 Total energy in the final basis set =    -1038.2230572465
   27   -1038.2230684360      8.52e-07  Convergence criterion met
 Total energy in the final basis set =    -1038.2230684360
   27   -1038.2230867899      7.38e-07  Convergence criterion met
   12   -1038.2328029312      9.21e-07  Convergence criterion met
 Total energy in the final basis set =    -1038.2328029312
   12   -1038.2328045269      9.16e-07  Convergence criterion met
 Total energy in the final basis set =    -1038.2328045269
   12   -1038.2328078288      9.16e-07  Convergence criterion met
 Total energy in the final basis set =    -1038.2328078288
   12   -1038.2328134449      9.13e-07  Convergence criterion met
 Total energy in the final basis set =    -1038.2328134449
   12   -1038.2328193546      9.17e-07  Convergence criterion met
 Total energy in the final basis set =    -1038.2328193546
   12   -1038.2328234561      9.25e-07  Convergence criterion met
 Total energy in the final basis set =    -1038.2328234561

             Standard Nuclear Orientation (Angstroms)
    I     Atom           X                Y                Z
 ----------------------------------------------------------------
    1      Cl      1.4059932795     3.5875540018    -1.4896923138
    2      Cl      0.6078793732     1.4204922672     0.2909908297
    3      C      -0.9561239045    -0.9266586441    -0.0294563282
    4      C      -0.3571455517     0.1261070438    -0.8306933300
    5      C      -0.1923593126    -2.1100281496     0.4480777328
    6      H      -1.9424853475    -0.7426818790     0.3892674760
    7      H       0.4398622604    -0.2026896957    -1.4953715108
    8      H      -1.0653790858     0.7782317109    -1.3361232073
    9      H       0.2343898241    -1.9191397297     1.4462166935
   10      H      -0.8368879931    -2.9897515921     0.5473035237
   11      H       0.6425574580    -2.3560343336    -0.2157215656
 ----------------------------------------------------------------

   12   -1038.2328243898      9.27e-07  Convergence criterion met
 Total energy in the final basis set =    -1038.2328243898

                    Orbital Energies (a.u.)
 --------------------------------------------------------------

 Alpha MOs
 -- Occupied --
*******-101.536 -10.268 -10.244 -10.212  -9.471  -9.449  -7.235
 -7.228  -7.224  -7.221  -7.202  -7.201  -0.864  -0.804  -0.784
 -0.716  -0.606  -0.507  -0.465  -0.452  -0.415  -0.408  -0.394
 -0.366  -0.319  -0.302  -0.300  -0.296  -0.238

 Beta MOs
 -- Occupied --
*******-101.530 -10.269 -10.231 -10.212  -9.467  -9.443  -7.229
 -7.222  -7.222  -7.202  -7.198  -7.198  -0.847  -0.784  -0.741
 -0.709  -0.591  -0.502  -0.458  -0.435  -0.405  -0.399  -0.389
 -0.320  -0.312  -0.286  -0.283

          Ground-State Mulliken Net Atomic Charges

     Atom                 Charge (a.u.)    Spin (a.u.)
  --------------------------------------------------------
      1 Cl                   -0.167024       0.824782
      2 Cl                   -0.065911       0.358586
      3 C                    -0.014778       0.881921
      4 C                    -0.297227      -0.056644
      5 C                    -0.351043      -0.065168
      6 H                     0.125170      -0.038601
      7 H                     0.176977       0.007204
      8 H                     0.183619       0.006307
      9 H                     0.150044       0.056432
     10 H                     0.132921       0.016753
     11 H                     0.127252       0.008429
  --------------------------------------------------------
  Sum of atomic charges =     0.000000

                    Cartesian Multipole Moments
 -----------------------------------------------------------------
    Charge (ESU x 10^10)
                -0.0000
    Dipole Moment (Debye)
         X      -2.2781      Y      -4.6926      Z       0.2924
       Tot       5.2246
    Quadrupole Moments (Debye-Ang)
        XX     -45.6044     XY      -4.1812     YY     -53.7164
        XZ       1.1958     YZ       2.1085     ZZ     -44.9704

 Final energy is   -1038.23282438977
 **  OPTIMIZATION CONVERGED  **
 Total job time:  173.25s(wall), 2034.66s(cpu)
        *  Thank you very much for using Q-Chem.  Have a nice day.  *
