 Q-Chem 5.1, Q-Chem, Inc., Pleasanton, CA (2018)
 Q-Chem 5.1.1 for Intel X86 EM64T Linux

User input:
--------------------------------------------------------------

$comment
potential surface scanner
$end

$rem
JOBTYPE  PES_SCAN
UNRESTRICTED TRUE
SYM_IGNORE  TRUE
GEOM_OPT_MAX_CYCLES 400
SCF_MAX_CYCLES 400
METHOD   B3LYP
BASIS   6-31G**
PDB_PRINT 2
SCF_CONVERGENCE 6
THRESH 14
SCF_PRINT 1
$end
$molecule
0 3
Cl -0.332557 3.465553 -0.685521
Cl 1.186543 1.268340 0.080946
C -0.762082 -0.782798 -0.178543
C 0.096066 -0.006549 -1.028579
C -0.331273 -2.030658 0.506014
H -1.714796 -0.343112 0.106908
H 0.896671 -0.551023 -1.525551
H -0.392899 0.722238 -1.669779
H -0.062559 -1.823447 1.553929
H -1.143079 -2.766402 0.537841
H 0.540261 -2.486740 0.027137
$end
$scan
stre 1 3 4.200000 4.201000 0.100000
$end
--------------------------------------------------------------

   11   -1038.2357464374      8.83e-07  Convergence criterion met
 Total energy in the final basis set =    -1038.2357464374
   11   -1038.2353871623      8.67e-07  Convergence criterion met
 Total energy in the final basis set =    -1038.2353871623
   11   -1038.2357462447      8.60e-07  Convergence criterion met
 Total energy in the final basis set =    -1038.2357462447
   11   -1038.2359111591      8.51e-07  Convergence criterion met
 Total energy in the final basis set =    -1038.2359111591
   11   -1038.2359302998      8.55e-07  Convergence criterion met
 Total energy in the final basis set =    -1038.2359302998
   11   -1038.2359442507      8.65e-07  Convergence criterion met
 Total energy in the final basis set =    -1038.2359442507
   11   -1038.2359497828      8.73e-07  Convergence criterion met
 Total energy in the final basis set =    -1038.2359497828
   11   -1038.2359537517      8.81e-07  Convergence criterion met
 Total energy in the final basis set =    -1038.2359537517
   11   -1038.2359553963      8.82e-07  Convergence criterion met
 Total energy in the final basis set =    -1038.2359553963

             Standard Nuclear Orientation (Angstroms)
    I     Atom           X                Y                Z
 ----------------------------------------------------------------
    1      Cl     -0.4125129936     3.3988960990    -0.6060726840
    2      Cl      1.2307316697     1.2584990547     0.0451456375
    3      C      -0.7510496625    -0.7661722163    -0.1846436993
    4      C       0.1145151652    -0.0152508482    -1.0473548794
    5      C      -0.3387186651    -2.0137862751     0.5116080641
    6      H      -1.6981149262    -0.3104579817     0.0939371876
    7      H       0.9061439521    -0.5762401388    -1.5401639899
    8      H      -0.3671010834     0.7152713841    -1.6914081315
    9      H      -0.0745958719    -1.8023860546     1.5596848135
   10      H      -1.1593101016    -2.7398708991     0.5430258698
   11      H       0.5303085174    -2.4831001239     0.0410438117
 ----------------------------------------------------------------

   11   -1038.2359563370      8.80e-07  Convergence criterion met
 Total energy in the final basis set =    -1038.2359563370

                    Orbital Energies (a.u.)
 --------------------------------------------------------------

 Alpha MOs
 -- Occupied --
*******-101.527 -10.268 -10.247 -10.214  -9.475  -9.440  -7.238
 -7.233  -7.227  -7.211  -7.193  -7.193  -0.864  -0.809  -0.776
 -0.720  -0.607  -0.510  -0.467  -0.455  -0.414  -0.410  -0.397
 -0.370  -0.328  -0.295  -0.290  -0.288  -0.243

 Beta MOs
 -- Occupied --
*******-101.522 -10.268 -10.235 -10.215  -9.471  -9.435  -7.231
 -7.226  -7.225  -7.194  -7.190  -7.190  -0.845  -0.787  -0.736
 -0.713  -0.593  -0.505  -0.462  -0.437  -0.407  -0.395  -0.389
 -0.323  -0.318  -0.282  -0.278

          Ground-State Mulliken Net Atomic Charges

     Atom                 Charge (a.u.)    Spin (a.u.)
  --------------------------------------------------------
      1 Cl                   -0.213017       0.768004
      2 Cl                   -0.059659       0.459662
      3 C                     0.003167       0.825405
      4 C                    -0.295522      -0.045983
      5 C                    -0.355513      -0.061129
      6 H                     0.137046      -0.036381
      7 H                     0.169439       0.004736
      8 H                     0.198840       0.008892
      9 H                     0.152857       0.050988
     10 H                     0.137068       0.021454
     11 H                     0.125294       0.004350
  --------------------------------------------------------
  Sum of atomic charges =     0.000000

                    Cartesian Multipole Moments
 -----------------------------------------------------------------
    Charge (ESU x 10^10)
                -0.0000
    Dipole Moment (Debye)
         X      -0.7615      Y      -5.1412      Z      -0.3420
       Tot       5.2085
    Quadrupole Moments (Debye-Ang)
        XX     -44.5741     XY      -0.1285     YY     -54.8041
        XZ      -0.5824     YZ       0.8171     ZZ     -43.4911

 Final energy is   -1038.23595633698
 **  OPTIMIZATION CONVERGED  **
 Total job time:  36.73s(wall), 424.07s(cpu)
        *  Thank you very much for using Q-Chem.  Have a nice day.  *
