 Q-Chem 5.1, Q-Chem, Inc., Pleasanton, CA (2018)
 Q-Chem 5.1.1 for Intel X86 EM64T Linux

User input:
--------------------------------------------------------------

$comment
potential surface scanner
$end

$rem
JOBTYPE  PES_SCAN
UNRESTRICTED TRUE
SYM_IGNORE  TRUE
GEOM_OPT_MAX_CYCLES 400
SCF_MAX_CYCLES 400
METHOD   B3LYP
BASIS   6-31G**
PDB_PRINT 2
SCF_CONVERGENCE 6
THRESH 14
SCF_PRINT 1
$end
$molecule
0 3
Cl -0.479226 1.843252 1.173202
Cl 1.418574 1.392239 -0.687247
C -0.725506 -0.570646 -0.415018
C 0.192258 -0.219992 -1.429091
C -0.433615 -1.570922 0.645669
H -1.704655 -0.105167 -0.423907
H 1.021447 -0.895178 -1.617780
H -0.185025 0.301111 -2.302135
H -0.667369 -1.161313 1.633829
H -1.068524 -2.459038 0.512139
H 0.611942 -1.888944 0.635140
$end
$scan
stre 1 3 2.800000 2.801000 0.100000
$end
--------------------------------------------------------------

   11   -1038.2329620128      7.01e-07  Convergence criterion met
 Total energy in the final basis set =    -1038.2329620128
   11   -1038.2313830449      6.39e-07  Convergence criterion met
 Total energy in the final basis set =    -1038.2313830449
   11   -1038.2314069064      6.40e-07  Convergence criterion met
 Total energy in the final basis set =    -1038.2314069064
   11   -1038.2314396472      6.56e-07  Convergence criterion met
 Total energy in the final basis set =    -1038.2314396472
   11   -1038.2314549007      6.66e-07  Convergence criterion met
 Total energy in the final basis set =    -1038.2314549007
   11   -1038.2314726524      6.76e-07  Convergence criterion met
 Total energy in the final basis set =    -1038.2314726524
   11   -1038.2314804637      6.80e-07  Convergence criterion met
 Total energy in the final basis set =    -1038.2314804637
   11   -1038.2314863836      6.83e-07  Convergence criterion met
   11   -1038.2315064583      7.13e-07  Convergence criterion met
 Total energy in the final basis set =    -1038.2315064583
   11   -1038.2315111655      7.10e-07  Convergence criterion met
 Total energy in the final basis set =    -1038.2315111655
   11   -1038.2315168511      7.06e-07  Convergence criterion met
 Total energy in the final basis set =    -1038.2315168511
   11   -1038.2315217523      7.04e-07  Convergence criterion met
 Total energy in the final basis set =    -1038.2315217523
   11   -1038.2315245689      7.06e-07  Convergence criterion met
 Total energy in the final basis set =    -1038.2315245689
   11   -1038.2315263614      7.10e-07  Convergence criterion met
 Total energy in the final basis set =    -1038.2315263614

             Standard Nuclear Orientation (Angstroms)
    I     Atom           X                Y                Z
 ----------------------------------------------------------------
    1      Cl     -0.4061107842     1.7706962524     1.1583372862
    2      Cl      1.4662510548     1.3899033096    -0.7274334579
    3      C      -0.7323412309    -0.5382011577    -0.3916843772
    4      C       0.1649384416    -0.2295605676    -1.4329320546
    5      C      -0.4397468800    -1.5513511522     0.6587381340
    6      H      -1.7147852839    -0.0803817891    -0.4054196089
    7      H       0.9863328848    -0.9139045472    -1.6201460260
    8      H      -0.2118791802     0.2961915797    -2.3029192231
    9      H      -0.8057739665    -1.2222908715     1.6345772038
   10      H      -0.9567326006    -2.4932522486     0.4195344058
   11      H       0.6301485450    -1.7624468078     0.7341487179
 ----------------------------------------------------------------

   11   -1038.2315271817      7.14e-07  Convergence criterion met
 Total energy in the final basis set =    -1038.2315271817

                    Orbital Energies (a.u.)
 --------------------------------------------------------------

 Alpha MOs
 -- Occupied --
*******-101.521 -10.264 -10.256 -10.210  -9.465  -9.434  -7.228
 -7.225  -7.217  -7.204  -7.189  -7.188  -0.853  -0.807  -0.773
 -0.722  -0.606  -0.512  -0.468  -0.452  -0.407  -0.398  -0.392
 -0.375  -0.321  -0.297  -0.286  -0.276  -0.243

 Beta MOs
 -- Occupied --
*******-101.516 -10.262 -10.247 -10.210  -9.460  -9.429  -7.218
 -7.216  -7.214  -7.188  -7.185  -7.184  -0.833  -0.779  -0.737
 -0.713  -0.594  -0.507  -0.462  -0.437  -0.403  -0.393  -0.363
 -0.323  -0.310  -0.279  -0.274

          Ground-State Mulliken Net Atomic Charges

     Atom                 Charge (a.u.)    Spin (a.u.)
  --------------------------------------------------------
      1 Cl                   -0.238820       0.707152
      2 Cl                   -0.109754       0.632720
      3 C                     0.027527       0.615604
      4 C                    -0.259221       0.062097
      5 C                    -0.350638      -0.043239
      6 H                     0.153427      -0.025816
      7 H                     0.170627       0.000107
      8 H                     0.175641      -0.002768
      9 H                     0.158869       0.020061
     10 H                     0.135794       0.031193
     11 H                     0.136549       0.002889
  --------------------------------------------------------
  Sum of atomic charges =    -0.000000

                    Cartesian Multipole Moments
 -----------------------------------------------------------------
    Charge (ESU x 10^10)
                 0.0000
    Dipole Moment (Debye)
         X      -1.3022      Y      -4.2363      Z      -2.0944
       Tot       4.9019
    Quadrupole Moments (Debye-Ang)
        XX     -44.6550     XY      -0.6733     YY     -48.8707
        XZ       0.1527     YZ      -1.9537     ZZ     -43.2462

 Final energy is   -1038.23152718171
 **  OPTIMIZATION CONVERGED  **
 Total job time:  74.04s(wall), 858.26s(cpu)
        *  Thank you very much for using Q-Chem.  Have a nice day.  *
