 Q-Chem 5.1, Q-Chem, Inc., Pleasanton, CA (2018)
 Q-Chem 5.1.1 for Intel X86 EM64T Linux

User input:
--------------------------------------------------------------

$comment
potential surface scanner
$end

$rem
JOBTYPE  PES_SCAN
UNRESTRICTED TRUE
SYM_IGNORE  TRUE
GEOM_OPT_MAX_CYCLES 400
SCF_MAX_CYCLES 400
METHOD   B3LYP
BASIS   6-31G**
PDB_PRINT 2
SCF_CONVERGENCE 6
THRESH 14
SCF_PRINT 1
$end
$molecule
0 1
Cl -1.402488 1.632149 0.270699
Cl 1.968140 -0.001280 0.602278
C -0.551677 -0.341266 -0.548906
C 0.887525 -0.044264 -0.838191
C -0.941190 -1.372562 0.455785
H -1.150269 -0.313319 -1.457677
H 1.264869 -0.846901 -1.485448
H 0.991778 0.905564 -1.359729
H -0.478044 -1.182165 1.424407
H -2.024509 -1.421019 0.567087
H -0.583835 -2.349535 0.094492
$end
$scan
stre 1 3 2.400000 2.401000 0.100000
$end
--------------------------------------------------------------

    9   -1038.3122871373      8.23e-07  Convergence criterion met
 Total energy in the final basis set =    -1038.3122871373
   10   -1038.3039239101      2.45e-07  Convergence criterion met
 Total energy in the final basis set =    -1038.3039239101
    9   -1038.3038417569      9.99e-07  Convergence criterion met
 Total energy in the final basis set =    -1038.3038417569
    9   -1038.3039648496      9.81e-07  Convergence criterion met
 Total energy in the final basis set =    -1038.3039648496
    9   -1038.3039702047      9.82e-07  Convergence criterion met
 Total energy in the final basis set =    -1038.3039702047
    9   -1038.3039724658      9.84e-07  Convergence criterion met
 Total energy in the final basis set =    -1038.3039724658
    9   -1038.3039735555      9.85e-07  Convergence criterion met
 Total energy in the final basis set =    -1038.3039735555
    9   -1038.3039751276      9.86e-07  Convergence criterion met
 Total energy in the final basis set =    -1038.3039751276
    9   -1038.3039761863      9.86e-07  Convergence criterion met
 Total energy in the final basis set =    -1038.3039761863

             Standard Nuclear Orientation (Angstroms)
    I     Atom           X                Y                Z
 ----------------------------------------------------------------
    1      Cl     -1.4348050714     1.6903216543     0.2775557343
    2      Cl      1.9746140231    -0.0330948361     0.5975742581
    3      C      -0.5392546388    -0.3721306241    -0.5616577392
    4      C       0.8923575526    -0.0498653464    -0.8402793526
    5      C      -0.9393993382    -1.3772719902     0.4580591842
    6      H      -1.1497763681    -0.3187448377    -1.4607072329
    7      H       1.2771252007    -0.8311362152    -1.5105735010
    8      H       0.9831027864     0.9132246758    -1.3397159964
    9      H      -0.4813759925    -1.1708761710     1.4258755252
   10      H      -2.0234720688    -1.4231046285     0.5604910563
   11      H      -0.5788160849    -2.3619196809     0.1181750638
 ----------------------------------------------------------------

    9   -1038.3039768740      9.85e-07  Convergence criterion met
 Total energy in the final basis set =    -1038.3039768740

                    Orbital Energies (a.u.)
 --------------------------------------------------------------

 Alpha MOs
 -- Occupied --
*******-101.498 -10.306 -10.282 -10.220  -9.471  -9.411  -7.235
 -7.225  -7.225  -7.174  -7.166  -7.166  -0.890  -0.814  -0.740
 -0.725  -0.607  -0.514  -0.497  -0.461  -0.440  -0.417  -0.400
 -0.321  -0.319  -0.302  -0.270  -0.269

 Beta MOs
 -- Occupied --
*******-101.498 -10.306 -10.282 -10.220  -9.471  -9.411  -7.235
 -7.225  -7.225  -7.174  -7.166  -7.166  -0.890  -0.814  -0.740
 -0.725  -0.607  -0.514  -0.497  -0.461  -0.440  -0.417  -0.400
 -0.321  -0.319  -0.302  -0.270  -0.269

          Ground-State Mulliken Net Atomic Charges

     Atom                 Charge (a.u.)    Spin (a.u.)
  --------------------------------------------------------
      1 Cl                   -0.354937      -0.000000
      2 Cl                   -0.039986      -0.000000
      3 C                    -0.022259       0.000000
      4 C                    -0.289966       0.000000
      5 C                    -0.323412      -0.000000
      6 H                     0.181763      -0.000000
      7 H                     0.174112       0.000000
      8 H                     0.204932      -0.000000
      9 H                     0.177406       0.000000
     10 H                     0.157476       0.000000
     11 H                     0.134872       0.000000
  --------------------------------------------------------
  Sum of atomic charges =    -0.000000

                    Cartesian Multipole Moments
 -----------------------------------------------------------------
    Charge (ESU x 10^10)
                -0.0000
    Dipole Moment (Debye)
         X       0.7404      Y      -4.1648      Z      -2.6309
       Tot       4.9815
    Quadrupole Moments (Debye-Ang)
        XX     -49.1673     XY       5.3225     YY     -47.4748
        XZ      -0.8528     YZ      -0.7282     ZZ     -41.8666

 Final energy is   -1038.30397687397
 **  OPTIMIZATION CONVERGED  **
 Total job time:  32.29s(wall), 375.66s(cpu)
        *  Thank you very much for using Q-Chem.  Have a nice day.  *
