 Q-Chem 5.1, Q-Chem, Inc., Pleasanton, CA (2018)
 Q-Chem 5.1.1 for Intel X86 EM64T Linux

User input:
--------------------------------------------------------------

$comment
potential surface scanner
$end

$rem
JOBTYPE  PES_SCAN
UNRESTRICTED TRUE
SYM_IGNORE  TRUE
GEOM_OPT_MAX_CYCLES 400
SCF_MAX_CYCLES 400
METHOD   B3LYP
BASIS   6-31G**
PDB_PRINT 2
SCF_CONVERGENCE 6
THRESH 14
SCF_PRINT 1
$end
$molecule
0 3
Cl 1.311569 3.526780 -1.522748
Cl 0.636082 1.420901 0.324361
C -0.945532 -0.913639 -0.030039
C -0.332992 0.134581 -0.821230
C -0.200060 -2.110730 0.441647
H -1.934417 -0.724029 0.380174
H 0.472049 -0.192048 -1.476744
H -1.027434 0.801989 -1.325139
H 0.219738 -1.935133 1.445474
H -0.856209 -2.983352 0.526526
H 0.637506 -2.359919 -0.217483
$end
$scan
stre 1 3 5.100000 5.101000 0.100000
$end
--------------------------------------------------------------

   12   -1038.2334830233      8.77e-07  Convergence criterion met
 Total energy in the final basis set =    -1038.2334830233
   12   -1038.2339208474      9.08e-07  Convergence criterion met
 Total energy in the final basis set =    -1038.2339208474
   12   -1038.2340278214      8.83e-07  Convergence criterion met
 Total energy in the final basis set =    -1038.2340278214
   12   -1038.2340546586      8.58e-07  Convergence criterion met
 Total energy in the final basis set =    -1038.2340546586

             Standard Nuclear Orientation (Angstroms)
    I     Atom           X                Y                Z
 ----------------------------------------------------------------
    1      Cl      1.2427502711     3.4472029081    -1.5583173198
    2      Cl      0.6470939295     1.4177912549     0.3620151581
    3      C      -0.9385898821    -0.9029759486    -0.0326369928
    4      C      -0.3150712170     0.1493088295    -0.8083680561
    5      C      -0.2032785780    -2.1084847764     0.4338542844
    6      H      -1.9295393557    -0.7123371486     0.3721543788
    7      H       0.4951754031    -0.1725858357    -1.4597520267
    8      H      -1.0004035042     0.8266113042    -1.3113924625
    9      H       0.2082547692    -1.9451000457     1.4431530816
   10      H      -0.8648868977    -2.9782674423     0.5042954338
   11      H       0.6387950617    -2.3557620992    -0.2202064787
 ----------------------------------------------------------------

   12   -1038.2340555879      8.53e-07  Convergence criterion met
 Total energy in the final basis set =    -1038.2340555879

                    Orbital Energies (a.u.)
 --------------------------------------------------------------

 Alpha MOs
 -- Occupied --
*******-101.533 -10.269 -10.245 -10.213  -9.473  -9.446  -7.237
 -7.231  -7.226  -7.217  -7.198  -7.198  -0.865  -0.806  -0.781
 -0.717  -0.607  -0.508  -0.466  -0.454  -0.415  -0.409  -0.395
 -0.369  -0.321  -0.299  -0.297  -0.294  -0.240

 Beta MOs
 -- Occupied --
*******-101.527 -10.269 -10.233 -10.214  -9.469  -9.440  -7.231
 -7.224  -7.223  -7.199  -7.195  -7.195  -0.848  -0.786  -0.739
 -0.710  -0.592  -0.503  -0.459  -0.436  -0.406  -0.398  -0.390
 -0.323  -0.313  -0.284  -0.281

          Ground-State Mulliken Net Atomic Charges

     Atom                 Charge (a.u.)    Spin (a.u.)
  --------------------------------------------------------
      1 Cl                   -0.183824       0.804735
      2 Cl                   -0.060857       0.388670
      3 C                    -0.012965       0.871463
      4 C                    -0.295286      -0.056637
      5 C                    -0.351813      -0.064470
      6 H                     0.126222      -0.038270
      7 H                     0.178908       0.006877
      8 H                     0.187433       0.006708
      9 H                     0.150373       0.055836
     10 H                     0.133759       0.016888
     11 H                     0.128049       0.008199
  --------------------------------------------------------
  Sum of atomic charges =    -0.000000

                    Cartesian Multipole Moments
 -----------------------------------------------------------------
    Charge (ESU x 10^10)
                 0.0000
    Dipole Moment (Debye)
         X      -2.2245      Y      -4.7750      Z       0.4323
       Tot       5.2855
    Quadrupole Moments (Debye-Ang)
        XX     -45.4632     XY      -4.0054     YY     -53.7962
        XZ       1.1939     YZ       2.4442     ZZ     -45.2624

 Final energy is   -1038.23405558791
 **  OPTIMIZATION CONVERGED  **
 Total job time:  19.02s(wall), 217.55s(cpu)
        *  Thank you very much for using Q-Chem.  Have a nice day.  *
