 Q-Chem 5.1, Q-Chem, Inc., Pleasanton, CA (2018)
 Q-Chem 5.1.1 for Intel X86 EM64T Linux

User input:
--------------------------------------------------------------

$comment
potential surface scanner
$end

$rem
JOBTYPE  PES_SCAN
UNRESTRICTED TRUE
SYM_IGNORE  TRUE
GEOM_OPT_MAX_CYCLES 400
SCF_MAX_CYCLES 400
METHOD   B3LYP
BASIS   6-31G**
PDB_PRINT 2
SCF_CONVERGENCE 6
THRESH 14
SCF_PRINT 1
$end
$molecule
0 3
Cl 0.972127 2.761915 -1.770265
Cl 0.714355 1.457231 0.568635
C -0.892303 -0.815525 -0.013614
C -0.299814 0.223459 -0.762778
C -0.187747 -2.064934 0.379397
H -1.881110 -0.642113 0.406506
H 0.543764 -0.027765 -1.398344
H -0.958173 0.972231 -1.187341
H 0.028174 -2.062871 1.458266
H -0.817719 -2.944622 0.197211
H 0.758742 -2.191603 -0.152873
$end
$scan
stre 1 3 4.300000 4.301000 0.100000
$end
--------------------------------------------------------------

   11   -1038.2322020295      8.38e-07  Convergence criterion met
 Total energy in the final basis set =    -1038.2322020295
   11   -1038.2292113332      6.22e-07  Convergence criterion met
 Total energy in the final basis set =    -1038.2292113332
   11   -1038.2297288600      8.60e-07  Convergence criterion met
 Total energy in the final basis set =    -1038.2297288600
   11   -1038.2298824303      7.92e-07  Convergence criterion met
 Total energy in the final basis set =    -1038.2298824303
   11   -1038.2298946971      7.84e-07  Convergence criterion met
 Total energy in the final basis set =    -1038.2298946971
   11   -1038.2299055666      7.78e-07  Convergence criterion met
 Total energy in the final basis set =    -1038.2299055666
   11   -1038.2299226132      7.72e-07  Convergence criterion met
 Total energy in the final basis set =    -1038.2299226132
   11   -1038.2299479401      7.68e-07  Convergence criterion met
   11   -1038.2357203744      8.70e-07  Convergence criterion met
 Total energy in the final basis set =    -1038.2357203744
   11   -1038.2357293500      8.69e-07  Convergence criterion met
 Total energy in the final basis set =    -1038.2357293500
   11   -1038.2357375043      8.71e-07  Convergence criterion met
 Total energy in the final basis set =    -1038.2357375043
   11   -1038.2357416854      8.75e-07  Convergence criterion met
 Total energy in the final basis set =    -1038.2357416854
   11   -1038.2357446001      8.80e-07  Convergence criterion met
 Total energy in the final basis set =    -1038.2357446001
   11   -1038.2357458008      8.82e-07  Convergence criterion met
 Total energy in the final basis set =    -1038.2357458008

             Standard Nuclear Orientation (Angstroms)
    I     Atom           X                Y                Z
 ----------------------------------------------------------------
    1      Cl     -0.3325574658     3.4655525360    -0.6855212478
    2      Cl      1.1865429407     1.2683396512     0.0809458781
    3      C      -0.7620824970    -0.7827977278    -0.1785434359
    4      C       0.0960655650    -0.0065487430    -1.0285788912
    5      C      -0.3312725523    -2.0306577741     0.5060137640
    6      H      -1.7147960468    -0.3431118947     0.1069076686
    7      H       0.8966712027    -0.5510229457    -1.5255510798
    8      H      -0.3928985429     0.7222381667    -1.6697794994
    9      H      -0.0625590087    -1.8234471665     1.5539288312
   10      H      -1.1430785882    -2.7664016007     0.5378407931
   11      H       0.5402609931    -2.4867395013     0.0271372191
 ----------------------------------------------------------------

   11   -1038.2357464392      8.83e-07  Convergence criterion met
 Total energy in the final basis set =    -1038.2357464392

                    Orbital Energies (a.u.)
 --------------------------------------------------------------

 Alpha MOs
 -- Occupied --
*******-101.527 -10.268 -10.247 -10.214  -9.475  -9.440  -7.238
 -7.233  -7.227  -7.211  -7.193  -7.193  -0.864  -0.809  -0.776
 -0.720  -0.607  -0.510  -0.467  -0.455  -0.415  -0.410  -0.397
 -0.369  -0.328  -0.295  -0.290  -0.288  -0.243

 Beta MOs
 -- Occupied --
*******-101.522 -10.269 -10.235 -10.215  -9.471  -9.435  -7.231
 -7.226  -7.225  -7.194  -7.190  -7.190  -0.846  -0.787  -0.737
 -0.713  -0.593  -0.505  -0.462  -0.437  -0.408  -0.395  -0.389
 -0.323  -0.318  -0.282  -0.278

          Ground-State Mulliken Net Atomic Charges

     Atom                 Charge (a.u.)    Spin (a.u.)
  --------------------------------------------------------
      1 Cl                   -0.210684       0.770759
      2 Cl                   -0.058760       0.453480
      3 C                     0.001623       0.829660
      4 C                    -0.296142      -0.047271
      5 C                    -0.355315      -0.061416
      6 H                     0.135591      -0.036543
      7 H                     0.169926       0.004742
      8 H                     0.198836       0.009377
      9 H                     0.152558       0.051570
     10 H                     0.136915       0.021082
     11 H                     0.125452       0.004562
  --------------------------------------------------------
  Sum of atomic charges =     0.000000

                    Cartesian Multipole Moments
 -----------------------------------------------------------------
    Charge (ESU x 10^10)
                 0.0000
    Dipole Moment (Debye)
         X      -0.8209      Y      -5.1767      Z      -0.2729
       Tot       5.2485
    Quadrupole Moments (Debye-Ang)
        XX     -44.5372     XY      -0.3250     YY     -55.0810
        XZ      -0.5410     YZ       1.0010     ZZ     -43.6091

 Final energy is   -1038.23574643923
 **  OPTIMIZATION CONVERGED  **
 Total job time:  147.26s(wall), 1716.40s(cpu)
        *  Thank you very much for using Q-Chem.  Have a nice day.  *
