 Q-Chem 5.1, Q-Chem, Inc., Pleasanton, CA (2018)
 Q-Chem 5.1.1 for Intel X86 EM64T Linux

User input:
--------------------------------------------------------------

$comment
potential surface scanner
$end

$rem
JOBTYPE  PES_SCAN
UNRESTRICTED TRUE
SYM_IGNORE  TRUE
GEOM_OPT_MAX_CYCLES 400
SCF_MAX_CYCLES 400
METHOD   B3LYP
BASIS   6-31G**
PDB_PRINT 2
SCF_CONVERGENCE 6
THRESH 14
SCF_PRINT 1
$end
$molecule
0 1
Cl -1.469306 1.750580 0.281509
Cl 1.982297 -0.067533 0.592054
C -0.527349 -0.401603 -0.573374
C 0.896996 -0.056090 -0.841898
C -0.937246 -1.381977 0.460172
H -1.148480 -0.324678 -1.463033
H 1.288148 -0.814185 -1.536103
H 0.974297 0.920421 -1.317393
H -0.483930 -1.160005 1.426917
H -2.021947 -1.425956 0.554340
H -0.573179 -2.373573 0.141606
$end
$scan
stre 1 3 2.600000 2.601000 0.100000
$end
--------------------------------------------------------------

   10   -1038.2958498183      3.42e-07  Convergence criterion met
 Total energy in the final basis set =    -1038.2958498183
   10   -1038.2878497039      5.23e-07  Convergence criterion met
 Total energy in the final basis set =    -1038.2878497039
   10   -1038.2878212063      5.31e-07  Convergence criterion met
 Total energy in the final basis set =    -1038.2878212063
   10   -1038.2879737987      5.38e-07  Convergence criterion met
 Total energy in the final basis set =    -1038.2879737987
   10   -1038.2879885280      5.41e-07  Convergence criterion met
 Total energy in the final basis set =    -1038.2879885280
   10   -1038.2879972371      5.44e-07  Convergence criterion met
 Total energy in the final basis set =    -1038.2879972371
   10   -1038.2879988477      5.45e-07  Convergence criterion met
 Total energy in the final basis set =    -1038.2879988477
   10   -1038.2880010932      5.46e-07  Convergence criterion met
 Total energy in the final basis set =    -1038.2880010932
   10   -1038.2880034150      5.46e-07  Convergence criterion met
 Total energy in the final basis set =    -1038.2880034150
   10   -1038.2880051641      5.46e-07  Convergence criterion met
 Total energy in the final basis set =    -1038.2880051641

             Standard Nuclear Orientation (Angstroms)
    I     Atom           X                Y                Z
 ----------------------------------------------------------------
    1      Cl     -1.5068569706     1.8107279626     0.2829371243
    2      Cl      1.9921555325    -0.1108631595     0.5842570989
    3      C      -0.5158347514    -0.4306736461    -0.5853903035
    4      C       0.9018583216    -0.0629194275    -0.8434967486
    5      C      -0.9349099074    -1.3857071883     0.4628757488
    6      H      -1.1453269786    -0.3346064396    -1.4669678505
    7      H       1.2980646959    -0.7919352629    -1.5664147290
    8      H       0.9650312585     0.9293220671    -1.2883363967
    9      H      -0.4879550096    -1.1445303918     1.4281888904
   10      H      -2.0202464234    -1.4293684585     0.5477838470
   11      H      -0.5656787675    -2.3840450554     0.1693603190
 ----------------------------------------------------------------

   10   -1038.2880056705      5.46e-07  Convergence criterion met
 Total energy in the final basis set =    -1038.2880056705

                    Orbital Energies (a.u.)
 --------------------------------------------------------------

 Alpha MOs
 -- Occupied --
*******-101.485 -10.315 -10.289 -10.227  -9.477  -9.398  -7.241
 -7.230  -7.230  -7.161  -7.153  -7.153  -0.897  -0.820  -0.734
 -0.725  -0.613  -0.522  -0.502  -0.468  -0.447  -0.424  -0.407
 -0.325  -0.322  -0.284  -0.258  -0.257

 Beta MOs
 -- Occupied --
*******-101.485 -10.315 -10.289 -10.227  -9.477  -9.398  -7.241
 -7.230  -7.230  -7.161  -7.153  -7.153  -0.897  -0.820  -0.734
 -0.725  -0.613  -0.522  -0.502  -0.468  -0.447  -0.424  -0.407
 -0.325  -0.322  -0.284  -0.258  -0.257

          Ground-State Mulliken Net Atomic Charges

     Atom                 Charge (a.u.)    Spin (a.u.)
  --------------------------------------------------------
      1 Cl                   -0.426615      -0.000000
      2 Cl                   -0.031865       0.000000
      3 C                     0.021827      -0.000000
      4 C                    -0.304674      -0.000000
      5 C                    -0.335192       0.000000
      6 H                     0.186960       0.000000
      7 H                     0.179366       0.000000
      8 H                     0.217251      -0.000000
      9 H                     0.185812      -0.000000
     10 H                     0.164717       0.000000
     11 H                     0.142413      -0.000000
  --------------------------------------------------------
  Sum of atomic charges =    -0.000000

                    Cartesian Multipole Moments
 -----------------------------------------------------------------
    Charge (ESU x 10^10)
                -0.0000
    Dipole Moment (Debye)
         X       1.2325      Y      -4.9372      Z      -2.7741
       Tot       5.7957
    Quadrupole Moments (Debye-Ang)
        XX     -49.7729     XY       6.7755     YY     -48.6452
        XZ      -0.7128     YZ      -0.9595     ZZ     -41.6048

 Final energy is   -1038.28800567054
 **  OPTIMIZATION CONVERGED  **
 Total job time:  46.72s(wall), 463.21s(cpu)
        *  Thank you very much for using Q-Chem.  Have a nice day.  *
