 Q-Chem 5.1, Q-Chem, Inc., Pleasanton, CA (2018)
 Q-Chem 5.1.1 for Intel X86 EM64T Linux

User input:
--------------------------------------------------------------

$comment
potential surface scanner
$end

$rem
JOBTYPE  PES_SCAN
UNRESTRICTED TRUE
SYM_IGNORE  TRUE
GEOM_OPT_MAX_CYCLES 400
SCF_MAX_CYCLES 400
METHOD   B3LYP
BASIS   6-31G**
PDB_PRINT 2
SCF_CONVERGENCE 6
THRESH 14
SCF_PRINT 1
$end
$molecule
0 3
Cl -0.815008 2.772056 0.284511
Cl 1.400790 1.229258 -0.270801
C -0.708959 -0.674654 -0.314609
C 0.222560 -0.105148 -1.239808
C -0.382730 -1.828384 0.565305
H -1.632460 -0.131571 -0.135196
H 0.994762 -0.771568 -1.619183
H -0.191932 0.554657 -1.995800
H -0.129648 -1.476126 1.577320
H -1.244791 -2.495577 0.679391
H 0.467715 -2.407543 0.193672
$end
$scan
stre 1 3 3.400000 3.401000 0.100000
$end
--------------------------------------------------------------

   11   -1038.2362721122      8.82e-07  Convergence criterion met
 Total energy in the final basis set =    -1038.2362721122
   11   -1038.2359134109      9.17e-07  Convergence criterion met
 Total energy in the final basis set =    -1038.2359134109
   11   -1038.2359285190      9.08e-07  Convergence criterion met
 Total energy in the final basis set =    -1038.2359285190
   11   -1038.2359438944      8.98e-07  Convergence criterion met
 Total energy in the final basis set =    -1038.2359438944
   11   -1038.2359542639      8.92e-07  Convergence criterion met
 Total energy in the final basis set =    -1038.2359542639
   11   -1038.2359743039      8.80e-07  Convergence criterion met
 Total energy in the final basis set =    -1038.2359743039
   11   -1038.2359856713      8.74e-07  Convergence criterion met
 Total energy in the final basis set =    -1038.2359856713
   11   -1038.2359914572      8.70e-07  Convergence criterion met
 Total energy in the final basis set =    -1038.2359914572
   11   -1038.2359934450      8.68e-07  Convergence criterion met
 Total energy in the final basis set =    -1038.2359934450
   11   -1038.2359949707      8.65e-07  Convergence criterion met
 Total energy in the final basis set =    -1038.2359949707
   11   -1038.2359961945      8.62e-07  Convergence criterion met
 Total energy in the final basis set =    -1038.2359961945

             Standard Nuclear Orientation (Angstroms)
    I     Atom           X                Y                Z
 ----------------------------------------------------------------
    1      Cl     -0.8171114087     2.6120114731     0.5215040530
    2      Cl      1.4058227465     1.2346228018    -0.3372085728
    3      C      -0.7111072423    -0.6700141272    -0.3600125067
    4      C       0.2322868877    -0.1264419634    -1.2875909449
    5      C      -0.3900901776    -1.7777513797     0.5781393623
    6      H      -1.6445415560    -0.1328670559    -0.2212654496
    7      H       1.0126856403    -0.7998471011    -1.6365446644
    8      H      -0.1717472353     0.5111078212    -2.0681313890
    9      H      -0.1661927636    -1.3732822748     1.5773047963
   10      H      -1.2462675996    -2.4503731740     0.7037421026
   11      H       0.4765617086    -2.3617650201     0.2548652131
 ----------------------------------------------------------------

   11   -1038.2359967423      8.61e-07  Convergence criterion met
 Total energy in the final basis set =    -1038.2359967423

                    Orbital Energies (a.u.)
 --------------------------------------------------------------

 Alpha MOs
 -- Occupied --
*******-101.525 -10.269 -10.245 -10.211  -9.474  -9.438  -7.238
 -7.233  -7.227  -7.209  -7.191  -7.191  -0.863  -0.807  -0.775
 -0.720  -0.605  -0.509  -0.467  -0.452  -0.410  -0.408  -0.395
 -0.374  -0.326  -0.294  -0.289  -0.284  -0.241

 Beta MOs
 -- Occupied --
*******-101.520 -10.269 -10.233 -10.212  -9.470  -9.433  -7.230
 -7.225  -7.224  -7.192  -7.188  -7.188  -0.843  -0.785  -0.736
 -0.712  -0.591  -0.504  -0.461  -0.434  -0.405  -0.392  -0.387
 -0.326  -0.316  -0.281  -0.277

          Ground-State Mulliken Net Atomic Charges

     Atom                 Charge (a.u.)    Spin (a.u.)
  --------------------------------------------------------
      1 Cl                   -0.227245       0.752276
      2 Cl                   -0.062192       0.489175
      3 C                     0.011876       0.801104
      4 C                    -0.290978      -0.032264
      5 C                    -0.357570      -0.059232
      6 H                     0.149624      -0.034637
      7 H                     0.169352       0.005190
      8 H                     0.187784       0.003679
      9 H                     0.160622       0.049838
     10 H                     0.135846       0.020328
     11 H                     0.122880       0.004544
  --------------------------------------------------------
  Sum of atomic charges =    -0.000000

                    Cartesian Multipole Moments
 -----------------------------------------------------------------
    Charge (ESU x 10^10)
                -0.0000
    Dipole Moment (Debye)
         X      -0.3733      Y      -4.4956      Z      -1.4985
       Tot       4.7534
    Quadrupole Moments (Debye-Ang)
        XX     -44.8724     XY       0.6224     YY     -51.5381
        XZ      -0.2964     YZ      -1.6450     ZZ     -42.6297

 Final energy is   -1038.23599674228
 **  OPTIMIZATION CONVERGED  **
 Total job time:  44.02s(wall), 510.60s(cpu)
        *  Thank you very much for using Q-Chem.  Have a nice day.  *
