 Q-Chem 5.1, Q-Chem, Inc., Pleasanton, CA (2018)
 Q-Chem 5.1.1 for Intel X86 EM64T Linux

User input:
--------------------------------------------------------------

$comment
potential surface scanner
$end

$rem
JOBTYPE  PES_SCAN
UNRESTRICTED TRUE
SYM_IGNORE  TRUE
GEOM_OPT_MAX_CYCLES 400
SCF_MAX_CYCLES 400
METHOD   B3LYP
BASIS   6-31G**
PDB_PRINT 2
SCF_CONVERGENCE 6
THRESH 14
SCF_PRINT 1
$end
$molecule
0 1
Cl -1.271337 1.376813 0.223864
Cl 1.954052 0.118637 0.611689
C -0.615377 -0.179542 -0.477229
C 0.860334 -0.027482 -0.823928
C -0.945393 -1.347408 0.440549
H -1.141317 -0.286818 -1.431387
H 1.187714 -0.914977 -1.371435
H 1.028018 0.858113 -1.436294
H -0.469897 -1.223340 1.415209
H -2.024892 -1.429544 0.581904
H -0.581605 -2.279052 -0.008144
$end
$scan
stre 1 3 1.100000 1.101000 0.100000
$end
--------------------------------------------------------------

    9   -1038.3416009812      3.04e-07  Convergence criterion met
 Total energy in the final basis set =    -1038.3416009812
    9   -1038.3321207240      4.78e-07  Convergence criterion met
 Total energy in the final basis set =    -1038.3321207240
    9   -1038.2933894752      4.57e-07  Convergence criterion met
 Total energy in the final basis set =    -1038.2933894752
    9   -1038.2221940509      4.68e-07  Convergence criterion met
 Total energy in the final basis set =    -1038.2221940509
    9   -1038.1186120753      5.04e-07  Convergence criterion met
 Total energy in the final basis set =    -1038.1186120753
    9   -1037.9545888058      5.80e-07  Convergence criterion met
 Total energy in the final basis set =    -1037.9545888058
    9   -1037.7240828806      7.43e-07  Convergence criterion met
 Total energy in the final basis set =    -1037.7240828806
    9   -1037.6629082695      8.19e-07  Convergence criterion met
   10   -1037.6425234858      2.76e-07  Convergence criterion met
 Total energy in the final basis set =    -1037.6425234858
   10   -1037.6425243115      2.77e-07  Convergence criterion met
 Total energy in the final basis set =    -1037.6425243115
   10   -1037.6425253483      2.77e-07  Convergence criterion met
 Total energy in the final basis set =    -1037.6425253483
   10   -1037.6425269413      2.78e-07  Convergence criterion met
 Total energy in the final basis set =    -1037.6425269413
   10   -1037.6425286457      2.78e-07  Convergence criterion met
 Total energy in the final basis set =    -1037.6425286457
   10   -1037.6425298437      2.79e-07  Convergence criterion met
 Total energy in the final basis set =    -1037.6425298437

             Standard Nuclear Orientation (Angstroms)
    I     Atom           X                Y                Z
 ----------------------------------------------------------------
    1      Cl     -1.1074861905     1.0217479728     0.1381057772
    2      Cl      1.9733930843     0.3259712314     0.5984571661
    3      C      -0.7366819840     0.1000042724    -0.3340095683
    4      C       0.8570007614    -0.0208667281    -0.7925199502
    5      C      -0.9658172858    -1.3368638958     0.4145262491
    6      H      -1.0882085680    -0.2454057770    -1.3786968551
    7      H       1.1003323968    -1.0060973917    -1.1862513690
    8      H       1.0522428024     0.7574410659    -1.5360081370
    9      H      -0.4388232789    -1.3096579910     1.3745665906
   10      H      -2.0410039547    -1.4330087502     0.6044459169
   11      H      -0.6246477830    -2.1878640087    -0.1778178203
 ----------------------------------------------------------------

   10   -1037.6425305996      2.79e-07  Convergence criterion met
 Total energy in the final basis set =    -1037.6425305996

                    Orbital Energies (a.u.)
 --------------------------------------------------------------

 Alpha MOs
 -- Occupied --
*******-101.530 -10.263 -10.239 -10.182  -9.513  -9.446  -7.278
 -7.260  -7.259  -7.210  -7.201  -7.200  -1.116  -0.841  -0.726
 -0.684  -0.595  -0.565  -0.540  -0.488  -0.445  -0.403  -0.396
 -0.386  -0.311  -0.292  -0.242  -0.239

 Beta MOs
 -- Occupied --
*******-101.530 -10.263 -10.239 -10.182  -9.513  -9.446  -7.278
 -7.260  -7.259  -7.210  -7.201  -7.200  -1.116  -0.841  -0.726
 -0.684  -0.595  -0.565  -0.540  -0.488  -0.445  -0.403  -0.396
 -0.386  -0.311  -0.292  -0.242  -0.239

          Ground-State Mulliken Net Atomic Charges

     Atom                 Charge (a.u.)    Spin (a.u.)
  --------------------------------------------------------
      1 Cl                    0.273422       0.000000
      2 Cl                   -0.110812      -0.000000
      3 C                    -0.173063      -0.000000
      4 C                    -0.321773       0.000000
      5 C                    -0.358144      -0.000000
      6 H                     0.059203       0.000000
      7 H                     0.151871      -0.000000
      8 H                     0.143144      -0.000000
      9 H                     0.128270       0.000000
     10 H                     0.101051       0.000000
     11 H                     0.106831       0.000000
  --------------------------------------------------------
  Sum of atomic charges =    -0.000000

                    Cartesian Multipole Moments
 -----------------------------------------------------------------
    Charge (ESU x 10^10)
                -0.0000
    Dipole Moment (Debye)
         X      -1.7161      Y      -0.4403      Z      -1.4550
       Tot       2.2925
    Quadrupole Moments (Debye-Ang)
        XX     -47.2553     XY      -0.7940     YY     -44.1358
        XZ      -1.5609     YZ      -0.2844     ZZ     -43.4566

 Final energy is   -1037.64253059962
 **  OPTIMIZATION CONVERGED  **
 Total job time:  115.07s(wall), 1335.72s(cpu)
        *  Thank you very much for using Q-Chem.  Have a nice day.  *
