 Q-Chem 5.1, Q-Chem, Inc., Pleasanton, CA (2018)
 Q-Chem 5.1.1 for Intel X86 EM64T Linux

User input:
--------------------------------------------------------------

$comment
potential surface scanner
$end

$rem
JOBTYPE  PES_SCAN
UNRESTRICTED TRUE
SYM_IGNORE  TRUE
GEOM_OPT_MAX_CYCLES 400
SCF_MAX_CYCLES 400
METHOD   B3LYP
BASIS   6-31G**
PDB_PRINT 2
SCF_CONVERGENCE 6
THRESH 14
SCF_PRINT 1
$end
$molecule
0 3
Cl -0.257816 1.509127 0.681443
Cl 2.151330 1.896987 -0.607725
C -0.843488 -0.580267 -0.343945
C -0.059769 -0.348366 -1.463646
C -0.478835 -1.575918 0.712993
H -1.882917 -0.264125 -0.384440
H 0.956189 -0.721981 -1.523636
H -0.409826 0.282181 -2.272627
H -0.895900 -1.297626 1.682587
H -0.902639 -2.551429 0.437453
H 0.603973 -1.683185 0.806346
$end
$scan
stre 1 3 2.300000 2.301000 0.100000
$end
--------------------------------------------------------------

   12   -1038.2293400168      6.70e-07  Convergence criterion met
 Total energy in the final basis set =    -1038.2293400168
   12   -1038.2288605919      5.83e-07  Convergence criterion met
 Total energy in the final basis set =    -1038.2288605919
   12   -1038.2291327760      5.75e-07  Convergence criterion met
 Total energy in the final basis set =    -1038.2291327760
   12   -1038.2294461337      5.56e-07  Convergence criterion met
 Total energy in the final basis set =    -1038.2294461337
   12   -1038.2294924717      5.52e-07  Convergence criterion met
 Total energy in the final basis set =    -1038.2294924717
   12   -1038.2295264101      5.47e-07  Convergence criterion met
 Total energy in the final basis set =    -1038.2295264101
   12   -1038.2295515671      5.44e-07  Convergence criterion met
 Total energy in the final basis set =    -1038.2295515671
   12   -1038.2295953658      5.42e-07  Convergence criterion met
   12   -1038.2305690174      5.81e-07  Convergence criterion met
 Total energy in the final basis set =    -1038.2305690174
   12   -1038.2305870704      5.78e-07  Convergence criterion met
 Total energy in the final basis set =    -1038.2305870704
   12   -1038.2305970413      5.78e-07  Convergence criterion met
 Total energy in the final basis set =    -1038.2305970413
   12   -1038.2306141949      5.78e-07  Convergence criterion met
 Total energy in the final basis set =    -1038.2306141949
   12   -1038.2306219060      5.80e-07  Convergence criterion met
 Total energy in the final basis set =    -1038.2306219060
   12   -1038.2306250707      5.81e-07  Convergence criterion met
 Total energy in the final basis set =    -1038.2306250707

             Standard Nuclear Orientation (Angstroms)
    I     Atom           X                Y                Z
 ----------------------------------------------------------------
    1      Cl     -0.3983174973     1.5903121811     0.3755155491
    2      Cl      2.3123460037     1.2205229286     0.4036436051
    3      C      -0.8783557490    -0.5267526128    -0.3844844737
    4      C      -0.2721423341    -0.3855636314    -1.6352498939
    5      C      -0.3039175726    -1.4057246722     0.6852827446
    6      H      -1.9473895546    -0.3340726787    -0.3309402335
    7      H       0.7677268270    -0.6594472206    -1.7794449695
    8      H      -0.7922882405     0.0963188107    -2.4556766299
    9      H      -0.6930329362    -1.1391848322     1.6691871979
   10      H      -0.6006363182    -2.4421780706     0.4742831173
   11      H       0.7863093719    -1.3488322019     0.7026869865
 ----------------------------------------------------------------

   12   -1038.2306256007      5.81e-07  Convergence criterion met
 Total energy in the final basis set =    -1038.2306256007

                    Orbital Energies (a.u.)
 --------------------------------------------------------------

 Alpha MOs
 -- Occupied --
*******-101.518 -10.282 -10.254 -10.213  -9.465  -9.431  -7.229
 -7.224  -7.218  -7.201  -7.184  -7.184  -0.858  -0.802  -0.766
 -0.732  -0.611  -0.517  -0.469  -0.458  -0.411  -0.400  -0.380
 -0.372  -0.323  -0.288  -0.282  -0.276  -0.270

 Beta MOs
 -- Occupied --
*******-101.513 -10.281 -10.245 -10.213  -9.460  -9.426  -7.218
 -7.215  -7.214  -7.184  -7.181  -7.181  -0.843  -0.770  -0.727
 -0.719  -0.604  -0.512  -0.465  -0.451  -0.408  -0.397  -0.344
 -0.320  -0.311  -0.275  -0.270

          Ground-State Mulliken Net Atomic Charges

     Atom                 Charge (a.u.)    Spin (a.u.)
  --------------------------------------------------------
      1 Cl                   -0.133200       0.667227
      2 Cl                   -0.243151       0.734903
      3 C                    -0.100090      -0.025443
      4 C                    -0.123990       0.677224
      5 C                    -0.327980       0.003567
      6 H                     0.166852       0.002121
      7 H                     0.162769      -0.029555
      8 H                     0.148365      -0.029473
      9 H                     0.148868       0.002612
     10 H                     0.135865      -0.001952
     11 H                     0.165693      -0.001231
  --------------------------------------------------------
  Sum of atomic charges =    -0.000000

                    Cartesian Multipole Moments
 -----------------------------------------------------------------
    Charge (ESU x 10^10)
                -0.0000
    Dipole Moment (Debye)
         X      -3.3635      Y      -3.9047      Z      -1.9649
       Tot       5.5155
    Quadrupole Moments (Debye-Ang)
        XX     -47.9674     XY      -2.7026     YY     -47.7013
        XZ      -0.6683     YZ      -1.1695     ZZ     -41.9897

 Final energy is   -1038.23062560068
 **  OPTIMIZATION CONVERGED  **
 Total job time:  101.35s(wall), 1177.76s(cpu)
        *  Thank you very much for using Q-Chem.  Have a nice day.  *
