 Q-Chem 5.1, Q-Chem, Inc., Pleasanton, CA (2018)
 Q-Chem 5.1.1 for Intel X86 EM64T Linux

User input:
--------------------------------------------------------------

$comment
potential surface scanner
$end

$rem
JOBTYPE  PES_SCAN
UNRESTRICTED TRUE
SYM_IGNORE  TRUE
GEOM_OPT_MAX_CYCLES 400
SCF_MAX_CYCLES 400
METHOD   B3LYP
BASIS   6-31G**
PDB_PRINT 2
SCF_CONVERGENCE 6
THRESH 14
SCF_PRINT 1
$end
$molecule
0 3
Cl -1.635705 2.005074 0.263268
Cl 2.037208 -0.276244 0.546967
C -0.481663 -0.507664 -0.610993
C 0.918024 -0.085541 -0.843423
C -0.927070 -1.398423 0.469783
H -1.130740 -0.362124 -1.471800
H 1.317302 -0.700668 -1.664879
H 0.939948 0.956430 -1.166613
H -0.487232 -1.118601 1.429126
H -2.013700 -1.432836 0.537357
H -0.556072 -2.414004 0.236004
$end
$scan
stre 1 3 5.400000 5.401000 0.100000
$end
--------------------------------------------------------------

   42   -1038.2077840516      7.25e-07  Convergence criterion met
 Total energy in the final basis set =    -1038.2077840516
   44   -1038.2108058261      1.57e-07  Convergence criterion met
 Total energy in the final basis set =    -1038.2108058261
   48   -1038.2130020722      9.30e-07  Convergence criterion met
 Total energy in the final basis set =    -1038.2130020722
   62   -1038.2131469261      5.63e-07  Convergence criterion met
 Total energy in the final basis set =    -1038.2131469261
   59   -1038.2138792585      5.24e-07  Convergence criterion met
 Total energy in the final basis set =    -1038.2138792585
   65   -1038.2143036855      1.85e-07  Convergence criterion met
 Total energy in the final basis set =    -1038.2143036855
   48   -1038.2145401695      6.58e-08  Convergence criterion met
 Total energy in the final basis set =    -1038.2145401695
   58   -1038.2146049490      5.92e-07  Convergence criterion met
   32   -1038.2229248325      5.36e-07  Convergence criterion met
 Total energy in the final basis set =    -1038.2229248325
   32   -1038.2229305974      5.51e-07  Convergence criterion met
 Total energy in the final basis set =    -1038.2229305974
   28   -1038.2229360430      8.57e-07  Convergence criterion met
 Total energy in the final basis set =    -1038.2229360430
   26   -1038.2229404180      9.03e-07  Convergence criterion met
 Total energy in the final basis set =    -1038.2229404180
   31   -1038.2229449698      9.20e-07  Convergence criterion met
 Total energy in the final basis set =    -1038.2229449698
   31   -1038.2229473317      9.46e-07  Convergence criterion met
 Total energy in the final basis set =    -1038.2229473317

             Standard Nuclear Orientation (Angstroms)
    I     Atom           X                Y                Z
 ----------------------------------------------------------------
    1      Cl     -0.8855283153     4.6111436402    -1.0034957005
    2      Cl      1.9728765976     0.3507665101    -0.2530150664
    3      C      -0.6015336509    -0.6745109100     0.0647751378
    4      C       0.2627578429    -0.1142842347    -0.9666321449
    5      C      -0.5284957362    -2.0997474043     0.4897915749
    6      H      -1.1563634278     0.0223486159     0.6887383011
    7      H       0.5135243453    -0.8161537681    -1.7619235276
    8      H      -0.0941261128     0.8282920333    -1.3786254816
    9      H       0.2123931195    -2.2348931996     1.2944986364
   10      H      -1.4885971973    -2.4501889967     0.8834386717
   11      H      -0.2266074650    -2.7573732861    -0.3327534009
 ----------------------------------------------------------------

   31   -1038.2229481039      8.16e-07  Convergence criterion met
 Total energy in the final basis set =    -1038.2229481039

                    Orbital Energies (a.u.)
 --------------------------------------------------------------

 Alpha MOs
 -- Occupied --
*******-101.519 -10.247 -10.220 -10.195  -9.512  -9.435  -7.287
 -7.264  -7.263  -7.200  -7.190  -7.189  -0.846  -0.842  -0.776
 -0.693  -0.586  -0.487  -0.446  -0.433  -0.408  -0.395  -0.389
 -0.375  -0.354  -0.353  -0.292  -0.287  -0.215

 Beta MOs
 -- Occupied --
*******-101.518 -10.248 -10.207 -10.196  -9.506  -9.434  -7.265
 -7.260  -7.259  -7.196  -7.188  -7.188  -0.831  -0.793  -0.762
 -0.688  -0.571  -0.482  -0.439  -0.418  -0.389  -0.382  -0.370
 -0.337  -0.337  -0.288  -0.284

          Ground-State Mulliken Net Atomic Charges

     Atom                 Charge (a.u.)    Spin (a.u.)
  --------------------------------------------------------
      1 Cl                    0.000383       0.999390
      2 Cl                   -0.156355       0.157700
      3 C                    -0.024270       0.918213
      4 C                    -0.294844      -0.061995
      5 C                    -0.344594      -0.069535
      6 H                     0.113344      -0.040560
      7 H                     0.157465       0.007414
      8 H                     0.164819       0.005938
      9 H                     0.143501       0.058317
     10 H                     0.122799       0.015212
     11 H                     0.117753       0.009906
  --------------------------------------------------------
  Sum of atomic charges =    -0.000000

                    Cartesian Multipole Moments
 -----------------------------------------------------------------
    Charge (ESU x 10^10)
                -0.0000
    Dipole Moment (Debye)
         X      -2.4331      Y      -1.0754      Z      -0.3726
       Tot       2.6861
    Quadrupole Moments (Debye-Ang)
        XX     -48.4693     XY      -1.4195     YY     -43.2568
        XZ       0.7527     YZ      -0.5754     ZZ     -43.1732

 Final energy is   -1038.22294810390
 **  OPTIMIZATION CONVERGED  **
 Total job time:  865.18s(wall), 10098.76s(cpu)
        *  Thank you very much for using Q-Chem.  Have a nice day.  *
