 Q-Chem 5.1, Q-Chem, Inc., Pleasanton, CA (2018)
 Q-Chem 5.1.1 for Intel X86 EM64T Linux

User input:
--------------------------------------------------------------

$comment
potential surface scanner
$end

$rem
JOBTYPE  PES_SCAN
UNRESTRICTED TRUE
SYM_IGNORE  TRUE
GEOM_OPT_MAX_CYCLES 400
SCF_MAX_CYCLES 400
METHOD   B3LYP
BASIS   6-31G**
PDB_PRINT 2
SCF_CONVERGENCE 6
THRESH 14
SCF_PRINT 1
$end
$molecule
0 1
Cl -1.271337 1.376813 0.223864
Cl 1.954052 0.118637 0.611689
C -0.615377 -0.179542 -0.477229
C 0.860334 -0.027482 -0.823928
C -0.945393 -1.347408 0.440549
H -1.141317 -0.286818 -1.431387
H 1.187714 -0.914977 -1.371435
H 1.028018 0.858113 -1.436294
H -0.469897 -1.223340 1.415209
H -2.024892 -1.429544 0.581904
H -0.581605 -2.279052 -0.008144
$end
$scan
stre 1 3 1.500000 1.501000 0.100000
$end
--------------------------------------------------------------

    9   -1038.3416009812      3.04e-07  Convergence criterion met
 Total energy in the final basis set =    -1038.3416009812
    9   -1038.3321207240      4.78e-07  Convergence criterion met
 Total energy in the final basis set =    -1038.3321207240
    9   -1038.2933894752      4.57e-07  Convergence criterion met
 Total energy in the final basis set =    -1038.2933894752
    9   -1038.2831712017      4.69e-07  Convergence criterion met
 Total energy in the final basis set =    -1038.2831712017
    9   -1038.2848345342      4.93e-07  Convergence criterion met
 Total energy in the final basis set =    -1038.2848345342
    9   -1038.2850281350      5.02e-07  Convergence criterion met
 Total energy in the final basis set =    -1038.2850281350
    9   -1038.2850515262      5.03e-07  Convergence criterion met
 Total energy in the final basis set =    -1038.2850515262
    9   -1038.2850642285      5.04e-07  Convergence criterion met
    9   -1038.2850671987      5.04e-07  Convergence criterion met
 Total energy in the final basis set =    -1038.2850671987
    9   -1038.2850772290      5.04e-07  Convergence criterion met
 Total energy in the final basis set =    -1038.2850772290
    9   -1038.2850825756      5.04e-07  Convergence criterion met
 Total energy in the final basis set =    -1038.2850825756
    9   -1038.2850873515      5.04e-07  Convergence criterion met
 Total energy in the final basis set =    -1038.2850873515
    9   -1038.2850894741      5.04e-07  Convergence criterion met
 Total energy in the final basis set =    -1038.2850894741
    9   -1038.2850905087      5.04e-07  Convergence criterion met
 Total energy in the final basis set =    -1038.2850905087

             Standard Nuclear Orientation (Angstroms)
    I     Atom           X                Y                Z
 ----------------------------------------------------------------
    1      Cl     -1.1932408649     1.2077384525     0.1760070650
    2      Cl      1.9581529421     0.1816599675     0.6093749356
    3      C      -0.6612632587    -0.0621177081    -0.4193634201
    4      C       0.8423636390    -0.0211334375    -0.8094482077
    5      C      -0.9478702881    -1.3297753064     0.4293086080
    6      H      -1.1195833197    -0.2757010714    -1.4044172660
    7      H       1.1305661782    -0.9494765350    -1.3036956243
    8      H       1.0395537467     0.8247157539    -1.4704468368
    9      H      -0.4653177884    -1.2463030560     1.4064913880
   10      H      -2.0253933264    -1.4355213361     0.5829606252
   11      H      -0.5776676597    -2.2286857234    -0.0719732669
 ----------------------------------------------------------------

    9   -1038.2850909882      5.04e-07  Convergence criterion met
 Total energy in the final basis set =    -1038.2850909882

                    Orbital Energies (a.u.)
 --------------------------------------------------------------

 Alpha MOs
 -- Occupied --
*******-101.535 -10.254 -10.252 -10.191  -9.469  -9.451  -7.232
 -7.222  -7.222  -7.215  -7.205  -7.205  -0.959  -0.847  -0.746
 -0.692  -0.588  -0.509  -0.484  -0.471  -0.420  -0.408  -0.387
 -0.383  -0.312  -0.297  -0.289  -0.286

 Beta MOs
 -- Occupied --
*******-101.535 -10.254 -10.252 -10.191  -9.469  -9.451  -7.232
 -7.222  -7.222  -7.215  -7.205  -7.205  -0.959  -0.847  -0.746
 -0.692  -0.588  -0.509  -0.484  -0.471  -0.420  -0.408  -0.387
 -0.383  -0.312  -0.297  -0.289  -0.286

          Ground-State Mulliken Net Atomic Charges

     Atom                 Charge (a.u.)    Spin (a.u.)
  --------------------------------------------------------
      1 Cl                    0.053132      -0.000000
      2 Cl                   -0.088059      -0.000000
      3 C                    -0.197645      -0.000000
      4 C                    -0.275611      -0.000000
      5 C                    -0.313916       0.000000
      6 H                     0.137185      -0.000000
      7 H                     0.155207       0.000000
      8 H                     0.160504       0.000000
      9 H                     0.142181      -0.000000
     10 H                     0.118785      -0.000000
     11 H                     0.108237       0.000000
  --------------------------------------------------------
  Sum of atomic charges =    -0.000000

                    Cartesian Multipole Moments
 -----------------------------------------------------------------
    Charge (ESU x 10^10)
                 0.0000
    Dipole Moment (Debye)
         X      -1.0729      Y      -1.2840      Z      -1.8711
       Tot       2.5101
    Quadrupole Moments (Debye-Ang)
        XX     -47.8095     XY       0.7325     YY     -44.6329
        XZ      -1.4100     YZ      -0.0700     ZZ     -42.8878

 Final energy is   -1038.28509098820
 **  OPTIMIZATION CONVERGED  **
 Total job time:  48.88s(wall), 565.06s(cpu)
        *  Thank you very much for using Q-Chem.  Have a nice day.  *
