 Q-Chem 5.1, Q-Chem, Inc., Pleasanton, CA (2018)
 Q-Chem 5.1.1 for Intel X86 EM64T Linux

User input:
--------------------------------------------------------------

$comment
potential surface scanner
$end

$rem
JOBTYPE  PES_SCAN
UNRESTRICTED TRUE
SYM_IGNORE  TRUE
GEOM_OPT_MAX_CYCLES 400
SCF_MAX_CYCLES 400
METHOD   B3LYP
BASIS   6-31G**
PDB_PRINT 2
SCF_CONVERGENCE 6
THRESH 14
SCF_PRINT 1
$end
$molecule
0 1
Cl -1.343049 1.520545 0.254672
Cl 1.957884 0.059474 0.609462
C -0.578001 -0.274889 -0.520646
C 0.877095 -0.035549 -0.832907
C -0.943734 -1.363023 0.449535
H -1.149278 -0.300797 -1.448880
H 1.236495 -0.878885 -1.433206
H 1.009155 0.885722 -1.398012
H -0.471201 -1.204390 1.419659
H -2.025285 -1.420505 0.578322
H -0.589781 -2.322301 0.046799
$end
$scan
stre 1 3 2.200000 2.201000 0.100000
$end
--------------------------------------------------------------

    9   -1038.3285648806      6.60e-07  Convergence criterion met
 Total energy in the final basis set =    -1038.3285648806
    9   -1038.3204750829      7.61e-07  Convergence criterion met
 Total energy in the final basis set =    -1038.3204750829
    9   -1038.3204878090      7.49e-07  Convergence criterion met
 Total energy in the final basis set =    -1038.3204878090
    9   -1038.3206121977      7.32e-07  Convergence criterion met
 Total energy in the final basis set =    -1038.3206121977
    9   -1038.3206174523      7.32e-07  Convergence criterion met
 Total energy in the final basis set =    -1038.3206174523
    9   -1038.3206190728      7.32e-07  Convergence criterion met
 Total energy in the final basis set =    -1038.3206190728
    9   -1038.3206203102      7.33e-07  Convergence criterion met
 Total energy in the final basis set =    -1038.3206203102
    9   -1038.3206219751      7.34e-07  Convergence criterion met
 Total energy in the final basis set =    -1038.3206219751

             Standard Nuclear Orientation (Angstroms)
    I     Atom           X                Y                Z
 ----------------------------------------------------------------
    1      Cl     -1.3720220969     1.5756181568     0.2631039791
    2      Cl      1.9620402336     0.0314265412     0.6067103891
    3      C      -0.5646578334    -0.3087436322    -0.5352335082
    4      C       0.8825744835    -0.0396221669    -0.8356782049
    5      C      -0.9425971365    -1.3681530576     0.4527055515
    6      H      -1.1503416096    -0.3066098621    -1.4536209979
    7      H       1.2519351824    -0.8634992753    -1.4585088625
    8      H       1.0005850746     0.8957629431    -1.3800139031
    9      H      -0.4734368180    -1.1945347876     1.4216898623
   10      H      -2.0249877272    -1.4194753017     0.5740345892
   11      H      -0.5887917525    -2.3367675576     0.0696091055
 ----------------------------------------------------------------

    9   -1038.3206229337      7.34e-07  Convergence criterion met
 Total energy in the final basis set =    -1038.3206229337

                    Orbital Energies (a.u.)
 --------------------------------------------------------------

 Alpha MOs
 -- Occupied --
*******-101.512 -10.295 -10.276 -10.212  -9.465  -9.426  -7.230
 -7.219  -7.219  -7.189  -7.180  -7.180  -0.884  -0.813  -0.753
 -0.716  -0.601  -0.506  -0.492  -0.454  -0.432  -0.408  -0.393
 -0.332  -0.314  -0.308  -0.283  -0.281

 Beta MOs
 -- Occupied --
*******-101.512 -10.295 -10.276 -10.212  -9.465  -9.426  -7.230
 -7.219  -7.219  -7.189  -7.180  -7.180  -0.884  -0.813  -0.753
 -0.716  -0.601  -0.506  -0.492  -0.454  -0.432  -0.408  -0.393
 -0.332  -0.314  -0.308  -0.283  -0.281

          Ground-State Mulliken Net Atomic Charges

     Atom                 Charge (a.u.)    Spin (a.u.)
  --------------------------------------------------------
      1 Cl                   -0.265498       0.000000
      2 Cl                   -0.049915      -0.000000
      3 C                    -0.078130      -0.000000
      4 C                    -0.276782       0.000000
      5 C                    -0.312138      -0.000000
      6 H                     0.175662       0.000000
      7 H                     0.168996      -0.000000
      8 H                     0.193037      -0.000000
      9 H                     0.168438      -0.000000
     10 H                     0.148896       0.000000
     11 H                     0.127434      -0.000000
  --------------------------------------------------------
  Sum of atomic charges =    -0.000000

                    Cartesian Multipole Moments
 -----------------------------------------------------------------
    Charge (ESU x 10^10)
                -0.0000
    Dipole Moment (Debye)
         X       0.2576      Y      -3.3744      Z      -2.4506
       Tot       4.1783
    Quadrupole Moments (Debye-Ang)
        XX     -48.7026     XY       3.9762     YY     -46.4982
        XZ      -1.0156     YZ      -0.4884     ZZ     -42.1399

 Final energy is   -1038.32062293366
 **  OPTIMIZATION CONVERGED  **
 Total job time:  29.09s(wall), 337.01s(cpu)
        *  Thank you very much for using Q-Chem.  Have a nice day.  *
