 Q-Chem 5.1, Q-Chem, Inc., Pleasanton, CA (2018)
 Q-Chem 5.1.1 for Intel X86 EM64T Linux

User input:
--------------------------------------------------------------

$comment
potential surface scanner
$end

$rem
JOBTYPE  PES_SCAN
UNRESTRICTED TRUE
SYM_IGNORE  TRUE
GEOM_OPT_MAX_CYCLES 400
SCF_MAX_CYCLES 400
METHOD   B3LYP
BASIS   6-31G**
PDB_PRINT 2
SCF_CONVERGENCE 6
THRESH 14
SCF_PRINT 1
$end
$molecule
0 3
Cl -0.406111 1.770696 1.158337
Cl 1.466251 1.389903 -0.727433
C -0.732341 -0.538201 -0.391684
C 0.164938 -0.229561 -1.432932
C -0.439747 -1.551351 0.658738
H -1.714785 -0.080382 -0.405420
H 0.986333 -0.913905 -1.620146
H -0.211879 0.296192 -2.302919
H -0.805774 -1.222291 1.634577
H -0.956733 -2.493252 0.419534
H 0.630149 -1.762447 0.734149
$end
$scan
stre 1 3 2.700000 2.701000 0.100000
$end
--------------------------------------------------------------

   11   -1038.2315271703      7.14e-07  Convergence criterion met
 Total energy in the final basis set =    -1038.2315271703
   11   -1038.2297043740      7.78e-07  Convergence criterion met
 Total energy in the final basis set =    -1038.2297043740
   11   -1038.2297392481      8.17e-07  Convergence criterion met
 Total energy in the final basis set =    -1038.2297392481
   11   -1038.2298042420      8.65e-07  Convergence criterion met
 Total energy in the final basis set =    -1038.2298042420
   11   -1038.2298300570      8.83e-07  Convergence criterion met
 Total energy in the final basis set =    -1038.2298300570
   11   -1038.2298581382      8.97e-07  Convergence criterion met
 Total energy in the final basis set =    -1038.2298581382
   11   -1038.2298694791      8.98e-07  Convergence criterion met
 Total energy in the final basis set =    -1038.2298694791
   11   -1038.2298774527      8.98e-07  Convergence criterion met
   11   -1038.2298904545      9.18e-07  Convergence criterion met
 Total energy in the final basis set =    -1038.2298904545
   11   -1038.2298930413      9.22e-07  Convergence criterion met
 Total energy in the final basis set =    -1038.2298930413
   11   -1038.2298964502      9.23e-07  Convergence criterion met
 Total energy in the final basis set =    -1038.2298964502
   11   -1038.2298996683      9.21e-07  Convergence criterion met
 Total energy in the final basis set =    -1038.2298996683
   11   -1038.2299017260      9.17e-07  Convergence criterion met
 Total energy in the final basis set =    -1038.2299017260
   11   -1038.2299027275      9.16e-07  Convergence criterion met
 Total energy in the final basis set =    -1038.2299027275

             Standard Nuclear Orientation (Angstroms)
    I     Atom           X                Y                Z
 ----------------------------------------------------------------
    1      Cl     -0.3584811967     1.6909939212     1.1399196981
    2      Cl      1.5086497528     1.4120984305    -0.7549999502
    3      C      -0.7364192387    -0.5127146182    -0.3736299314
    4      C       0.1412167444    -0.2421419757    -1.4369139511
    5      C      -0.4454714323    -1.5366338771     0.6690086374
    6      H      -1.7256609252    -0.0704303638    -0.3988000055
    7      H       0.9676295053    -0.9219103695    -1.6147674247
    8      H      -0.2294930588     0.2931234680    -2.3030503426
    9      H      -0.8817841301    -1.2601486938     1.6308848644
   10      H      -0.8894706870    -2.4986864706     0.3703905332
   11      H       0.6295856664    -1.6881484510     0.7967588723
 ----------------------------------------------------------------

   11   -1038.2299032726      9.16e-07  Convergence criterion met
 Total energy in the final basis set =    -1038.2299032726

                    Orbital Energies (a.u.)
 --------------------------------------------------------------

 Alpha MOs
 -- Occupied --
*******-101.522 -10.261 -10.260 -10.211  -9.462  -9.436  -7.224
 -7.223  -7.214  -7.205  -7.191  -7.189  -0.851  -0.806  -0.774
 -0.723  -0.606  -0.512  -0.468  -0.453  -0.407  -0.397  -0.391
 -0.373  -0.320  -0.301  -0.286  -0.275  -0.244

 Beta MOs
 -- Occupied --
*******-101.517 -10.259 -10.252 -10.211  -9.456  -9.431  -7.215
 -7.213  -7.211  -7.189  -7.187  -7.186  -0.831  -0.776  -0.738
 -0.713  -0.595  -0.507  -0.462  -0.439  -0.404  -0.393  -0.356
 -0.321  -0.308  -0.279  -0.274

          Ground-State Mulliken Net Atomic Charges

     Atom                 Charge (a.u.)    Spin (a.u.)
  --------------------------------------------------------
      1 Cl                   -0.233502       0.698825
      2 Cl                   -0.126143       0.662679
      3 C                     0.019301       0.544651
      4 C                    -0.243680       0.114082
      5 C                    -0.346090      -0.036468
      6 H                     0.155820      -0.022483
      7 H                     0.169143      -0.002230
      8 H                     0.173418      -0.005126
      9 H                     0.154689       0.014649
     10 H                     0.135515       0.027581
     11 H                     0.141529       0.003839
  --------------------------------------------------------
  Sum of atomic charges =     0.000000

                    Cartesian Multipole Moments
 -----------------------------------------------------------------
    Charge (ESU x 10^10)
                 0.0000
    Dipole Moment (Debye)
         X      -1.5003      Y      -4.2265      Z      -1.9986
       Tot       4.9101
    Quadrupole Moments (Debye-Ang)
        XX     -44.7788     XY      -0.9485     YY     -48.6485
        XZ       0.2374     YZ      -1.7264     ZZ     -43.2757

 Final energy is   -1038.22990327257
 **  OPTIMIZATION CONVERGED  **
 Total job time:  67.17s(wall), 781.77s(cpu)
        *  Thank you very much for using Q-Chem.  Have a nice day.  *
