 Q-Chem 5.1, Q-Chem, Inc., Pleasanton, CA (2018)
 Q-Chem 5.1.1 for Intel X86 EM64T Linux

User input:
--------------------------------------------------------------

$comment
potential surface scanner
$end

$rem
JOBTYPE  PES_SCAN
UNRESTRICTED TRUE
SYM_IGNORE  TRUE
GEOM_OPT_MAX_CYCLES 400
SCF_MAX_CYCLES 400
METHOD   B3LYP
BASIS   6-31G**
PDB_PRINT 2
SCF_CONVERGENCE 6
THRESH 14
SCF_PRINT 1
$end
$molecule
0 3
Cl -0.817111 2.612011 0.521504
Cl 1.405823 1.234623 -0.337209
C -0.711107 -0.670014 -0.360013
C 0.232287 -0.126442 -1.287591
C -0.390090 -1.777751 0.578139
H -1.644542 -0.132867 -0.221265
H 1.012686 -0.799847 -1.636545
H -0.171747 0.511108 -2.068131
H -0.166193 -1.373282 1.577305
H -1.246268 -2.450373 0.703742
H 0.476562 -2.361765 0.254865
$end
$scan
stre 1 3 3.300000 3.301000 0.100000
$end
--------------------------------------------------------------

   11   -1038.2359967408      8.61e-07  Convergence criterion met
 Total energy in the final basis set =    -1038.2359967408
   11   -1038.2351476207      8.71e-07  Convergence criterion met
 Total energy in the final basis set =    -1038.2351476207
   11   -1038.2354760109      8.62e-07  Convergence criterion met
 Total energy in the final basis set =    -1038.2354760109
   11   -1038.2355958344      8.64e-07  Convergence criterion met
 Total energy in the final basis set =    -1038.2355958344
   11   -1038.2356153386      8.70e-07  Convergence criterion met
 Total energy in the final basis set =    -1038.2356153386
   11   -1038.2356443636      8.82e-07  Convergence criterion met
 Total energy in the final basis set =    -1038.2356443636
   11   -1038.2356656638      8.87e-07  Convergence criterion met
 Total energy in the final basis set =    -1038.2356656638
   11   -1038.2356946922      8.84e-07  Convergence criterion met
   11   -1038.2357240910      8.15e-07  Convergence criterion met
 Total energy in the final basis set =    -1038.2357240910
   11   -1038.2357823232      8.16e-07  Convergence criterion met
 Total energy in the final basis set =    -1038.2357823232
   11   -1038.2357893493      8.18e-07  Convergence criterion met
 Total energy in the final basis set =    -1038.2357893493
   11   -1038.2357905249      8.15e-07  Convergence criterion met
 Total energy in the final basis set =    -1038.2357905249
   11   -1038.2357933561      8.06e-07  Convergence criterion met
 Total energy in the final basis set =    -1038.2357933561
   11   -1038.2357967573      7.92e-07  Convergence criterion met
 Total energy in the final basis set =    -1038.2357967573

             Standard Nuclear Orientation (Angstroms)
    I     Atom           X                Y                Z
 ----------------------------------------------------------------
    1      Cl     -0.6510979732     2.1952681933     1.1646750346
    2      Cl      1.3319696405     1.3276981451    -0.5445563407
    3      C      -0.7252389681    -0.6694419611    -0.4717662953
    4      C       0.2425418937    -0.1913384305    -1.4040822473
    5      C      -0.4172255168    -1.6418724810     0.6081930165
    6      H      -1.6954289371    -0.1817542259    -0.4562552438
    7      H       1.0732591646    -0.8563855531    -1.6293272006
    8      H      -0.1374341149     0.3425898633    -2.2696190781
    9      H      -0.3432755241    -1.1132097897     1.5701581806
   10      H      -1.2233061954    -2.3768507568     0.7187909750
   11      H       0.5255365308    -2.1693020036     0.4385901990
 ----------------------------------------------------------------

   11   -1038.2357976848      7.87e-07  Convergence criterion met
 Total energy in the final basis set =    -1038.2357976848

                    Orbital Energies (a.u.)
 --------------------------------------------------------------

 Alpha MOs
 -- Occupied --
*******-101.525 -10.269 -10.247 -10.209  -9.472  -9.438  -7.235
 -7.231  -7.224  -7.208  -7.191  -7.191  -0.860  -0.807  -0.775
 -0.720  -0.605  -0.510  -0.467  -0.451  -0.409  -0.405  -0.394
 -0.375  -0.323  -0.293  -0.289  -0.284  -0.242

 Beta MOs
 -- Occupied --
*******-101.519 -10.269 -10.236 -10.209  -9.467  -9.432  -7.227
 -7.223  -7.221  -7.191  -7.188  -7.187  -0.840  -0.784  -0.736
 -0.712  -0.591  -0.505  -0.461  -0.432  -0.404  -0.391  -0.383
 -0.325  -0.314  -0.280  -0.276

          Ground-State Mulliken Net Atomic Charges

     Atom                 Charge (a.u.)    Spin (a.u.)
  --------------------------------------------------------
      1 Cl                   -0.225669       0.750665
      2 Cl                   -0.072703       0.508374
      3 C                     0.017376       0.776374
      4 C                    -0.286873      -0.025275
      5 C                    -0.358717      -0.057088
      6 H                     0.145850      -0.033182
      7 H                     0.172106       0.005698
      8 H                     0.180332       0.001806
      9 H                     0.171207       0.047279
     10 H                     0.134412       0.022192
     11 H                     0.122677       0.003158
  --------------------------------------------------------
  Sum of atomic charges =    -0.000000

                    Cartesian Multipole Moments
 -----------------------------------------------------------------
    Charge (ESU x 10^10)
                 0.0000
    Dipole Moment (Debye)
         X      -0.6049      Y      -4.2147      Z      -2.1400
       Tot       4.7654
    Quadrupole Moments (Debye-Ang)
        XX     -44.5981     XY       0.0827     YY     -50.1081
        XZ      -0.0234     YZ      -2.4644     ZZ     -43.0274

 Final energy is   -1038.23579768476
 **  OPTIMIZATION CONVERGED  **
 Total job time:  104.50s(wall), 1199.14s(cpu)
        *  Thank you very much for using Q-Chem.  Have a nice day.  *
