 Q-Chem 5.1, Q-Chem, Inc., Pleasanton, CA (2018)
 Q-Chem 5.1.1 for Intel X86 EM64T Linux

User input:
--------------------------------------------------------------

$comment
potential surface scanner
$end

$rem
JOBTYPE  PES_SCAN
UNRESTRICTED TRUE
SYM_IGNORE  TRUE
GEOM_OPT_MAX_CYCLES 400
SCF_MAX_CYCLES 400
METHOD   B3LYP
BASIS   6-31G**
PDB_PRINT 2
SCF_CONVERGENCE 6
THRESH 14
SCF_PRINT 1
$end
$molecule
0 3
Cl 1.405993 3.587554 -1.489692
Cl 0.607879 1.420492 0.290991
C -0.956124 -0.926659 -0.029456
C -0.357146 0.126107 -0.830693
C -0.192359 -2.110028 0.448078
H -1.942485 -0.742682 0.389267
H 0.439862 -0.202690 -1.495372
H -1.065379 0.778232 -1.336123
H 0.234390 -1.919140 1.446217
H -0.836888 -2.989752 0.547304
H 0.642557 -2.356034 -0.215722
$end
$scan
stre 1 3 5.200000 5.201000 0.100000
$end
--------------------------------------------------------------

   12   -1038.2328243882      9.27e-07  Convergence criterion met
 Total energy in the final basis set =    -1038.2328243882
   12   -1038.2333030297      9.61e-07  Convergence criterion met
 Total energy in the final basis set =    -1038.2333030297
   12   -1038.2334320358      9.32e-07  Convergence criterion met
 Total energy in the final basis set =    -1038.2334320358
   12   -1038.2334746300      8.97e-07  Convergence criterion met
 Total energy in the final basis set =    -1038.2334746300
   12   -1038.2334766763      8.92e-07  Convergence criterion met
 Total energy in the final basis set =    -1038.2334766763
   12   -1038.2334808083      8.79e-07  Convergence criterion met
 Total energy in the final basis set =    -1038.2334808083
   12   -1038.2334822232      8.76e-07  Convergence criterion met
 Total energy in the final basis set =    -1038.2334822232

             Standard Nuclear Orientation (Angstroms)
    I     Atom           X                Y                Z
 ----------------------------------------------------------------
    1      Cl      1.3115691649     3.5267799612    -1.5227478792
    2      Cl      0.6360815459     1.4209007043     0.3243606856
    3      C      -0.9455317632    -0.9136386722    -0.0300391148
    4      C      -0.3329924029     0.1345811452    -0.8212302730
    5      C      -0.2000596430    -2.1107302115     0.4416468060
    6      H      -1.9344169945    -0.7240293926     0.3801738590
    7      H       0.4720491958    -0.1920482138    -1.4767435024
    8      H      -1.0274336559     0.8019890776    -1.3251386106
    9      H       0.2197379232    -1.9351330835     1.4454742540
   10      H      -0.8562088782    -2.9833521014     0.5265261864
   11      H       0.6375055080    -2.3599192134    -0.2174834110
 ----------------------------------------------------------------

   12   -1038.2334830257      8.77e-07  Convergence criterion met
 Total energy in the final basis set =    -1038.2334830257

                    Orbital Energies (a.u.)
 --------------------------------------------------------------

 Alpha MOs
 -- Occupied --
*******-101.534 -10.269 -10.245 -10.213  -9.471  -9.447  -7.236
 -7.229  -7.224  -7.219  -7.199  -7.199  -0.864  -0.806  -0.782
 -0.717  -0.607  -0.508  -0.466  -0.453  -0.415  -0.409  -0.395
 -0.367  -0.320  -0.300  -0.298  -0.294  -0.239

 Beta MOs
 -- Occupied --
*******-101.528 -10.269 -10.233 -10.213  -9.468  -9.441  -7.229
 -7.223  -7.222  -7.200  -7.196  -7.196  -0.847  -0.785  -0.740
 -0.710  -0.592  -0.503  -0.459  -0.435  -0.406  -0.398  -0.389
 -0.321  -0.313  -0.285  -0.282

          Ground-State Mulliken Net Atomic Charges

     Atom                 Charge (a.u.)    Spin (a.u.)
  --------------------------------------------------------
      1 Cl                   -0.176861       0.813383
      2 Cl                   -0.065179       0.378717
      3 C                    -0.012788       0.872881
      4 C                    -0.295558      -0.056680
      5 C                    -0.351695      -0.064548
      6 H                     0.126076      -0.038313
      7 H                     0.178107       0.006948
      8 H                     0.185886       0.006555
      9 H                     0.150568       0.055949
     10 H                     0.133568       0.016822
     11 H                     0.127875       0.008285
  --------------------------------------------------------
  Sum of atomic charges =     0.000000

                    Cartesian Multipole Moments
 -----------------------------------------------------------------
    Charge (ESU x 10^10)
                 0.0000
    Dipole Moment (Debye)
         X      -2.2674      Y      -4.7904      Z       0.3677
       Tot       5.3126
    Quadrupole Moments (Debye-Ang)
        XX     -45.5283     XY      -4.1220     YY     -53.8913
        XZ       1.1969     YZ       2.3138     ZZ     -45.1237

 Final energy is   -1038.23348302569
 **  OPTIMIZATION CONVERGED  **
 Total job time:  30.56s(wall), 344.56s(cpu)
        *  Thank you very much for using Q-Chem.  Have a nice day.  *
