 Q-Chem 5.1, Q-Chem, Inc., Pleasanton, CA (2018)
 Q-Chem 5.1.1 for Intel X86 EM64T Linux

User input:
--------------------------------------------------------------

$comment
potential surface scanner
$end

$rem
JOBTYPE  PES_SCAN
UNRESTRICTED TRUE
SYM_IGNORE  TRUE
GEOM_OPT_MAX_CYCLES 400
SCF_MAX_CYCLES 400
METHOD   B3LYP
BASIS   6-31G**
PDB_PRINT 2
SCF_CONVERGENCE 6
THRESH 14
SCF_PRINT 1
$end
$molecule
0 3
Cl -0.605598 1.906557 1.174597
Cl 1.362705 1.402828 -0.616586
C -0.719051 -0.613764 -0.448705
C 0.225900 -0.208113 -1.420931
C -0.425580 -1.595111 0.627406
H -1.696825 -0.144558 -0.457917
H 1.071106 -0.865307 -1.604888
H -0.143192 0.314252 -2.297053
H -0.418812 -1.084714 1.599493
H -1.211077 -2.359571 0.679871
H 0.540724 -2.087097 0.489513
$end
$scan
stre 1 3 2.900000 2.901000 0.100000
$end
--------------------------------------------------------------

   11   -1038.2341127335      7.34e-07  Convergence criterion met
 Total energy in the final basis set =    -1038.2341127335
   11   -1038.2326900542      7.89e-07  Convergence criterion met
 Total energy in the final basis set =    -1038.2326900542
   11   -1038.2328003221      7.44e-07  Convergence criterion met
 Total energy in the final basis set =    -1038.2328003221
   11   -1038.2328403596      7.34e-07  Convergence criterion met
 Total energy in the final basis set =    -1038.2328403596
   11   -1038.2328487527      7.37e-07  Convergence criterion met
 Total energy in the final basis set =    -1038.2328487527
   11   -1038.2328577936      7.42e-07  Convergence criterion met
 Total energy in the final basis set =    -1038.2328577936
   11   -1038.2328641904      7.42e-07  Convergence criterion met
 Total energy in the final basis set =    -1038.2328641904
   11   -1038.2328733368      7.38e-07  Convergence criterion met
   11   -1038.2329020903      7.13e-07  Convergence criterion met
 Total energy in the final basis set =    -1038.2329020903
   11   -1038.2329180444      7.08e-07  Convergence criterion met
 Total energy in the final basis set =    -1038.2329180444
   11   -1038.2329294342      7.02e-07  Convergence criterion met
 Total energy in the final basis set =    -1038.2329294342
   11   -1038.2329469270      7.02e-07  Convergence criterion met
 Total energy in the final basis set =    -1038.2329469270
   11   -1038.2329592295      7.03e-07  Convergence criterion met
 Total energy in the final basis set =    -1038.2329592295
   11   -1038.2329615830      7.02e-07  Convergence criterion met
 Total energy in the final basis set =    -1038.2329615830

             Standard Nuclear Orientation (Angstroms)
    I     Atom           X                Y                Z
 ----------------------------------------------------------------
    1      Cl     -0.4792263577     1.8432518453     1.1732020603
    2      Cl      1.4185741141     1.3922387453    -0.6872473547
    3      C      -0.7255064640    -0.5706461288    -0.4150184237
    4      C       0.1922575811    -0.2199916985    -1.4290912078
    5      C      -0.4336150519    -1.5709221385     0.6456685338
    6      H      -1.7046545269    -0.1051667538    -0.4239067081
    7      H       1.0214468415    -0.8951775048    -1.6177797573
    8      H      -0.1850248012     0.3011113608    -2.3021348921
    9      H      -0.6673694342    -1.1613129276     1.6338287144
   10      H      -1.0685238271    -2.4590384609     0.5121389030
   11      H       0.6119419262    -1.8889443386     0.6351401321
 ----------------------------------------------------------------

   11   -1038.2329620157      7.01e-07  Convergence criterion met
 Total energy in the final basis set =    -1038.2329620157

                    Orbital Energies (a.u.)
 --------------------------------------------------------------

 Alpha MOs
 -- Occupied --
*******-101.521 -10.265 -10.254 -10.209  -9.467  -9.434  -7.230
 -7.227  -7.219  -7.204  -7.188  -7.187  -0.855  -0.807  -0.772
 -0.722  -0.606  -0.512  -0.468  -0.451  -0.408  -0.399  -0.394
 -0.376  -0.322  -0.294  -0.286  -0.277  -0.244

 Beta MOs
 -- Occupied --
*******-101.515 -10.264 -10.244 -10.210  -9.462  -9.429  -7.221
 -7.218  -7.216  -7.187  -7.184  -7.184  -0.834  -0.781  -0.736
 -0.713  -0.594  -0.507  -0.462  -0.435  -0.404  -0.393  -0.369
 -0.324  -0.311  -0.278  -0.273

          Ground-State Mulliken Net Atomic Charges

     Atom                 Charge (a.u.)    Spin (a.u.)
  --------------------------------------------------------
      1 Cl                   -0.241239       0.713971
      2 Cl                   -0.098532       0.608705
      3 C                     0.031858       0.662567
      4 C                    -0.269300       0.029685
      5 C                    -0.355011      -0.048242
      6 H                     0.151685      -0.028036
      7 H                     0.171375       0.001482
      8 H                     0.177508      -0.001050
      9 H                     0.165600       0.028908
     10 H                     0.135852       0.030839
     11 H                     0.130205       0.001170
  --------------------------------------------------------
  Sum of atomic charges =     0.000000

                    Cartesian Multipole Moments
 -----------------------------------------------------------------
    Charge (ESU x 10^10)
                -0.0000
    Dipole Moment (Debye)
         X      -1.0924      Y      -4.2500      Z      -2.1566
       Tot       4.8895
    Quadrupole Moments (Debye-Ang)
        XX     -44.5761     XY      -0.3849     YY     -49.1543
        XZ       0.1006     YZ      -2.1523     ZZ     -43.1979

 Final energy is   -1038.23296201575
 **  OPTIMIZATION CONVERGED  **
 Total job time:  69.91s(wall), 811.15s(cpu)
        *  Thank you very much for using Q-Chem.  Have a nice day.  *
