 Q-Chem 5.1, Q-Chem, Inc., Pleasanton, CA (2018)
 Q-Chem 5.1.1 for Intel X86 EM64T Linux

User input:
--------------------------------------------------------------

$comment
potential surface scanner
$end

$rem
JOBTYPE  PES_SCAN
UNRESTRICTED TRUE
SYM_IGNORE  TRUE
GEOM_OPT_MAX_CYCLES 400
SCF_MAX_CYCLES 400
METHOD   B3LYP
BASIS   6-31G**
PDB_PRINT 2
SCF_CONVERGENCE 6
THRESH 14
SCF_PRINT 1
$end
$molecule
0 1
Cl -1.288247 1.413937 0.235886
Cl 1.953110 0.113740 0.612237
C -0.605295 -0.204327 -0.488543
C 0.865075 -0.029466 -0.825913
C -0.945305 -1.352388 0.441729
H -1.144535 -0.287511 -1.435921
H 1.202269 -0.909753 -1.380526
H 1.023955 0.861350 -1.432591
H -0.467481 -1.223295 1.414308
H -2.025154 -1.425666 0.583025
H -0.588092 -2.291219 0.001106
$end
$scan
stre 1 3 2.000000 2.001000 0.100000
$end
--------------------------------------------------------------

    9   -1038.3403248902      2.43e-07  Convergence criterion met
 Total energy in the final basis set =    -1038.3403248902
    9   -1038.3351420473      5.60e-07  Convergence criterion met
 Total energy in the final basis set =    -1038.3351420473
    9   -1038.3353198923      5.44e-07  Convergence criterion met
 Total energy in the final basis set =    -1038.3353198923
    9   -1038.3354405404      5.34e-07  Convergence criterion met
 Total energy in the final basis set =    -1038.3354405404
    9   -1038.3354445966      5.35e-07  Convergence criterion met
 Total energy in the final basis set =    -1038.3354445966
    9   -1038.3354461288      5.36e-07  Convergence criterion met
 Total energy in the final basis set =    -1038.3354461288
    9   -1038.3354480252      5.37e-07  Convergence criterion met
 Total energy in the final basis set =    -1038.3354480252
    9   -1038.3354495635      5.36e-07  Convergence criterion met
 Total energy in the final basis set =    -1038.3354495635

             Standard Nuclear Orientation (Angstroms)
    I     Atom           X                Y                Z
 ----------------------------------------------------------------
    1      Cl     -1.3154117104     1.4667362900     0.2447574748
    2      Cl      1.9550831975     0.0846410040     0.6112264630
    3      C      -0.5916441862    -0.2401959686    -0.5052705001
    4      C       0.8712305937    -0.0321386020    -0.8297597059
    5      C      -0.9445877143    -1.3576207393     0.4461395621
    6      H      -1.1472763123    -0.2951247966    -1.4432260435
    7      H       1.2196737292    -0.8933278539    -1.4088345723
    8      H       1.0169860861     0.8752583118    -1.4141234401
    9      H      -0.4696784138    -1.2129520871     1.4175795154
   10      H      -2.0253108447    -1.4228410797     0.5812615606
   11      H      -0.5887644248    -2.3070324787     0.0250466860
 ----------------------------------------------------------------

    9   -1038.3354501337      5.36e-07  Convergence criterion met
 Total energy in the final basis set =    -1038.3354501337

                    Orbital Energies (a.u.)
 --------------------------------------------------------------

 Alpha MOs
 -- Occupied --
*******-101.526 -10.283 -10.269 -10.205  -9.460  -9.440  -7.224
 -7.214  -7.214  -7.204  -7.195  -7.195  -0.881  -0.822  -0.760
 -0.708  -0.596  -0.499  -0.488  -0.451  -0.424  -0.400  -0.387
 -0.356  -0.309  -0.306  -0.295  -0.292

 Beta MOs
 -- Occupied --
*******-101.526 -10.283 -10.269 -10.205  -9.460  -9.440  -7.224
 -7.214  -7.214  -7.204  -7.195  -7.195  -0.881  -0.822  -0.760
 -0.708  -0.596  -0.499  -0.488  -0.451  -0.424  -0.400  -0.387
 -0.356  -0.309  -0.306  -0.295  -0.292

          Ground-State Mulliken Net Atomic Charges

     Atom                 Charge (a.u.)    Spin (a.u.)
  --------------------------------------------------------
      1 Cl                   -0.164338       0.000000
      2 Cl                   -0.060970       0.000000
      3 C                    -0.134939       0.000000
      4 C                    -0.268506      -0.000000
      5 C                    -0.304912       0.000000
      6 H                     0.167962       0.000000
      7 H                     0.164130      -0.000000
      8 H                     0.181973       0.000000
      9 H                     0.159756      -0.000000
     10 H                     0.139474      -0.000000
     11 H                     0.120369      -0.000000
  --------------------------------------------------------
  Sum of atomic charges =    -0.000000

                    Cartesian Multipole Moments
 -----------------------------------------------------------------
    Charge (ESU x 10^10)
                -0.0000
    Dipole Moment (Debye)
         X      -0.1971      Y      -2.6274      Z      -2.2631
       Tot       3.4733
    Quadrupole Moments (Debye-Ang)
        XX     -48.3573     XY       2.7807     YY     -45.7314
        XZ      -1.1663     YZ      -0.2825     ZZ     -42.4005

 Final energy is   -1038.33545013366
 **  OPTIMIZATION CONVERGED  **
 Total job time:  30.56s(wall), 339.77s(cpu)
        *  Thank you very much for using Q-Chem.  Have a nice day.  *
