 Q-Chem 5.1, Q-Chem, Inc., Pleasanton, CA (2018)
 Q-Chem 5.1.1 for Intel X86 EM64T Linux

User input:
--------------------------------------------------------------

$comment
potential surface scanner
$end

$rem
JOBTYPE  PES_SCAN
UNRESTRICTED TRUE
SYM_IGNORE  TRUE
GEOM_OPT_MAX_CYCLES 400
SCF_MAX_CYCLES 400
METHOD   B3LYP
BASIS   6-31G**
PDB_PRINT 2
SCF_CONVERGENCE 6
THRESH 14
SCF_PRINT 1
$end
$molecule
0 3
Cl 1.242750 3.447203 -1.558317
Cl 0.647094 1.417791 0.362015
C -0.938590 -0.902976 -0.032637
C -0.315071 0.149309 -0.808368
C -0.203279 -2.108485 0.433854
H -1.929539 -0.712337 0.372154
H 0.495175 -0.172586 -1.459752
H -1.000404 0.826611 -1.311392
H 0.208255 -1.945100 1.443153
H -0.864887 -2.978267 0.504295
H 0.638795 -2.355762 -0.220206
$end
$scan
stre 1 3 5.000000 5.001000 0.100000
$end
--------------------------------------------------------------

   12   -1038.2340555879      8.53e-07  Convergence criterion met
 Total energy in the final basis set =    -1038.2340555879
   12   -1038.2343983018      8.72e-07  Convergence criterion met
 Total energy in the final basis set =    -1038.2343983018
   12   -1038.2344925674      8.46e-07  Convergence criterion met
 Total energy in the final basis set =    -1038.2344925674
   12   -1038.2345165995      8.16e-07  Convergence criterion met
 Total energy in the final basis set =    -1038.2345165995
   12   -1038.2345187551      8.07e-07  Convergence criterion met
 Total energy in the final basis set =    -1038.2345187551
   12   -1038.2345222377      7.85e-07  Convergence criterion met
 Total energy in the final basis set =    -1038.2345222377
   12   -1038.2345232700      7.79e-07  Convergence criterion met
 Total energy in the final basis set =    -1038.2345232700

             Standard Nuclear Orientation (Angstroms)
    I     Atom           X                Y                Z
 ----------------------------------------------------------------
    1      Cl      1.1595763498     3.3840639218    -1.5712920329
    2      Cl      0.6709171447     1.4146724859     0.3860721444
    3      C      -0.9298697631    -0.8909399826    -0.0355323522
    4      C      -0.2957589300     0.1554088535    -0.8045790772
    5      C      -0.2086912675    -2.1058727729     0.4284707250
    6      H      -1.9209590508    -0.6933252129     0.3656771570
    7      H       0.5203056388    -0.1659727758    -1.4485307937
    8      H      -0.9689466737     0.8459575847    -1.3054498994
    9      H       0.1967672516    -1.9519713354     1.4416969355
   10      H      -0.8786663188    -2.9699527505     0.4894893538
   11      H       0.6356246191    -2.3566670159    -0.2212231602
 ----------------------------------------------------------------

   12   -1038.2345242217      7.76e-07  Convergence criterion met
 Total energy in the final basis set =    -1038.2345242217

                    Orbital Energies (a.u.)
 --------------------------------------------------------------

 Alpha MOs
 -- Occupied --
*******-101.531 -10.269 -10.246 -10.214  -9.474  -9.443  -7.238
 -7.232  -7.226  -7.215  -7.196  -7.196  -0.865  -0.807  -0.779
 -0.718  -0.607  -0.509  -0.467  -0.454  -0.416  -0.410  -0.395
 -0.371  -0.322  -0.297  -0.294  -0.292  -0.241

 Beta MOs
 -- Occupied --
*******-101.525 -10.269 -10.234 -10.214  -9.470  -9.438  -7.231
 -7.225  -7.224  -7.197  -7.193  -7.193  -0.847  -0.787  -0.738
 -0.711  -0.592  -0.504  -0.460  -0.436  -0.407  -0.398  -0.390
 -0.325  -0.314  -0.283  -0.280

          Ground-State Mulliken Net Atomic Charges

     Atom                 Charge (a.u.)    Spin (a.u.)
  --------------------------------------------------------
      1 Cl                   -0.193012       0.793265
      2 Cl                   -0.059322       0.407489
      3 C                    -0.011452       0.863378
      4 C                    -0.293649      -0.056164
      5 C                    -0.352336      -0.063842
      6 H                     0.126940      -0.037951
      7 H                     0.179777       0.006611
      8 H                     0.189515       0.006866
      9 H                     0.150756       0.055380
     10 H                     0.134279       0.017009
     11 H                     0.128504       0.007959
  --------------------------------------------------------
  Sum of atomic charges =    -0.000000

                    Cartesian Multipole Moments
 -----------------------------------------------------------------
    Charge (ESU x 10^10)
                -0.0000
    Dipole Moment (Debye)
         X      -2.1987      Y      -4.8380      Z       0.4984
       Tot       5.3375
    Quadrupole Moments (Debye-Ang)
        XX     -45.3791     XY      -3.9058     YY     -53.8730
        XZ       1.1790     YZ       2.6114     ZZ     -45.3821

 Final energy is   -1038.23452422170
 **  OPTIMIZATION CONVERGED  **
 Total job time:  29.54s(wall), 343.25s(cpu)
        *  Thank you very much for using Q-Chem.  Have a nice day.  *
