 Q-Chem 5.1, Q-Chem, Inc., Pleasanton, CA (2018)
 Q-Chem 5.1.1 for Intel X86 EM64T Linux

User input:
--------------------------------------------------------------

$comment
potential surface scanner
$end

$rem
JOBTYPE  PES_SCAN
UNRESTRICTED TRUE
SYM_IGNORE  TRUE
GEOM_OPT_MAX_CYCLES 400
SCF_MAX_CYCLES 400
METHOD   B3LYP
BASIS   6-31G**
PDB_PRINT 2
SCF_CONVERGENCE 6
THRESH 14
SCF_PRINT 1
$end
$molecule
0 3
Cl -0.440698 1.435976 0.422046
Cl 2.316498 1.271156 0.359452
C -0.836282 -0.379171 -0.318735
C -0.262765 -0.405594 -1.644737
C -0.307763 -1.375687 0.690449
H -1.923688 -0.297644 -0.317444
H 0.764934 -0.721772 -1.786563
H -0.785204 0.043858 -2.481605
H -0.714328 -1.186253 1.685596
H -0.613122 -2.380846 0.376592
H 0.782722 -1.338627 0.739753
$end
$scan
stre 1 3 1.900000 1.901000 0.100000
$end
--------------------------------------------------------------

   11   -1038.2314810264      6.76e-07  Convergence criterion met
 Total energy in the final basis set =    -1038.2314810264
   11   -1038.2299102718      7.77e-07  Convergence criterion met
 Total energy in the final basis set =    -1038.2299102718
   11   -1038.2304409612      7.40e-07  Convergence criterion met
 Total energy in the final basis set =    -1038.2304409612
   11   -1038.2307001127      7.18e-07  Convergence criterion met
 Total energy in the final basis set =    -1038.2307001127
   11   -1038.2307030704      7.21e-07  Convergence criterion met
 Total energy in the final basis set =    -1038.2307030704
   11   -1038.2307050717      7.25e-07  Convergence criterion met
 Total energy in the final basis set =    -1038.2307050717
   11   -1038.2307061192      7.28e-07  Convergence criterion met
 Total energy in the final basis set =    -1038.2307061192

             Standard Nuclear Orientation (Angstroms)
    I     Atom           X                Y                Z
 ----------------------------------------------------------------
    1      Cl     -0.4446592891     1.3874660485     0.4068649286
    2      Cl      2.3316470899     1.2877460212     0.3611876588
    3      C      -0.8263649972    -0.3355777658    -0.2969963984
    4      C      -0.2655614687    -0.4110650311    -1.6450276274
    5      C      -0.3101913560    -1.3683193177     0.6913191464
    6      H      -1.9177933783    -0.2932337792    -0.3097369356
    7      H       0.7627257625    -0.7260532462    -1.7852470643
    8      H      -0.7923967865     0.0261542224    -2.4856233231
    9      H      -0.7233997800    -1.2035880380     1.6886922062
   10      H      -0.6139283306    -2.3633823627     0.3482283082
   11      H       0.7802265341    -1.3347507514     0.7511431006
 ----------------------------------------------------------------

   11   -1038.2307069543      7.28e-07  Convergence criterion met
 Total energy in the final basis set =    -1038.2307069543

                    Orbital Energies (a.u.)
 --------------------------------------------------------------

 Alpha MOs
 -- Occupied --
*******-101.533 -10.278 -10.230 -10.205  -9.483  -9.446  -7.246
 -7.242  -7.236  -7.217  -7.199  -7.198  -0.886  -0.793  -0.779
 -0.715  -0.606  -0.503  -0.469  -0.452  -0.410  -0.398  -0.388
 -0.373  -0.332  -0.300  -0.295  -0.292  -0.249

 Beta MOs
 -- Occupied --
*******-101.527 -10.279 -10.217 -10.205  -9.480  -9.440  -7.242
 -7.235  -7.234  -7.199  -7.195  -7.195  -0.872  -0.774  -0.740
 -0.697  -0.595  -0.496  -0.461  -0.445  -0.399  -0.392  -0.380
 -0.331  -0.324  -0.287  -0.283

          Ground-State Mulliken Net Atomic Charges

     Atom                 Charge (a.u.)    Spin (a.u.)
  --------------------------------------------------------
      1 Cl                    0.005031       0.359222
      2 Cl                   -0.202050       0.777994
      3 C                    -0.197569      -0.059541
      4 C                    -0.158710       0.988576
      5 C                    -0.309839       0.006600
      6 H                     0.168744       0.011151
      7 H                     0.147119      -0.042060
      8 H                     0.131147      -0.042784
      9 H                     0.132838       0.002908
     10 H                     0.127718      -0.001014
     11 H                     0.155573      -0.001052
  --------------------------------------------------------
  Sum of atomic charges =    -0.000000

                    Cartesian Multipole Moments
 -----------------------------------------------------------------
    Charge (ESU x 10^10)
                -0.0000
    Dipole Moment (Debye)
         X      -2.8626      Y      -2.7178      Z      -1.1861
       Tot       4.1216
    Quadrupole Moments (Debye-Ang)
        XX     -47.0595     XY      -2.5948     YY     -47.0083
        XZ      -0.5434     YZ      -0.9330     ZZ     -43.3779

 Final energy is   -1038.23070695425
 **  OPTIMIZATION CONVERGED  **
 Total job time:  29.85s(wall), 340.58s(cpu)
        *  Thank you very much for using Q-Chem.  Have a nice day.  *
