 Q-Chem 5.1, Q-Chem, Inc., Pleasanton, CA (2018)
 Q-Chem 5.1.1 for Intel X86 EM64T Linux

User input:
--------------------------------------------------------------

$comment
potential surface scanner
$end

$rem
JOBTYPE  PES_SCAN
UNRESTRICTED TRUE
SYM_IGNORE  TRUE
GEOM_OPT_MAX_CYCLES 400
SCF_MAX_CYCLES 400
METHOD   B3LYP
BASIS   6-31G**
PDB_PRINT 2
SCF_CONVERGENCE 6
THRESH 14
SCF_PRINT 1
$end
$molecule
0 1
Cl -1.271337 1.376813 0.223864
Cl 1.954052 0.118637 0.611689
C -0.615377 -0.179542 -0.477229
C 0.860334 -0.027482 -0.823928
C -0.945393 -1.347408 0.440549
H -1.141317 -0.286818 -1.431387
H 1.187714 -0.914977 -1.371435
H 1.028018 0.858113 -1.436294
H -0.469897 -1.223340 1.415209
H -2.024892 -1.429544 0.581904
H -0.581605 -2.279052 -0.008144
$end
$scan
stre 1 3 2.800000 2.801000 0.100000
$end
--------------------------------------------------------------

    9   -1038.3416009812      3.04e-07  Convergence criterion met
 Total energy in the final basis set =    -1038.3416009812
    9   -1038.3357252310      5.51e-07  Convergence criterion met
 Total energy in the final basis set =    -1038.3357252310
    9   -1038.3239389268      7.49e-07  Convergence criterion met
 Total energy in the final basis set =    -1038.3239389268
    9   -1038.3113299061      8.84e-07  Convergence criterion met
 Total energy in the final basis set =    -1038.3113299061
   10   -1038.2998422022      2.43e-07  Convergence criterion met
 Total energy in the final basis set =    -1038.2998422022
   10   -1038.2894118889      3.71e-07  Convergence criterion met
 Total energy in the final basis set =    -1038.2894118889
   10   -1038.2796783501      7.44e-07  Convergence criterion met
 Total energy in the final basis set =    -1038.2796783501
   11   -1038.2716175919      3.25e-07  Convergence criterion met
   11   -1038.2734930710      4.50e-07  Convergence criterion met
 Total energy in the final basis set =    -1038.2734930710
   11   -1038.2735038354      4.52e-07  Convergence criterion met
 Total energy in the final basis set =    -1038.2735038354
   11   -1038.2735139951      4.53e-07  Convergence criterion met
 Total energy in the final basis set =    -1038.2735139951
   11   -1038.2735210988      4.53e-07  Convergence criterion met
 Total energy in the final basis set =    -1038.2735210988
   11   -1038.2735243970      4.52e-07  Convergence criterion met
 Total energy in the final basis set =    -1038.2735243970
   11   -1038.2735257253      4.53e-07  Convergence criterion met
 Total energy in the final basis set =    -1038.2735257253

             Standard Nuclear Orientation (Angstroms)
    I     Atom           X                Y                Z
 ----------------------------------------------------------------
    1      Cl     -1.5941642681     1.9377431484     0.2700324931
    2      Cl      2.0218768825    -0.2197788248     0.5625498953
    3      C      -0.4916844595    -0.4834468541    -0.6031093815
    4      C       0.9135266282    -0.0768384399    -0.8427500519
    5      C      -0.9299314535    -1.3938955941     0.4676334701
    6      H      -1.1346930844    -0.3535629768    -1.4708250707
    7      H       1.3130967859    -0.7313786464    -1.6329041835
    8      H       0.9478968942     0.9500144045    -1.2080824786
    9      H      -0.4828083040    -1.1318863788     1.4281748680
   10      H      -2.0161823568    -1.4255569385     0.5437416878
   11      H      -0.5666332647    -2.4060128995     0.2103367520
 ----------------------------------------------------------------

   11   -1038.2735265434      4.53e-07  Convergence criterion met
 Total energy in the final basis set =    -1038.2735265434

                    Orbital Energies (a.u.)
 --------------------------------------------------------------

 Alpha MOs
 -- Occupied --
*******-101.474 -10.322 -10.295 -10.234  -9.482  -9.386  -7.247
 -7.236  -7.236  -7.149  -7.141  -7.141  -0.904  -0.826  -0.741
 -0.713  -0.619  -0.529  -0.508  -0.475  -0.453  -0.431  -0.413
 -0.331  -0.328  -0.268  -0.248  -0.247

 Beta MOs
 -- Occupied --
*******-101.474 -10.322 -10.295 -10.234  -9.482  -9.386  -7.247
 -7.236  -7.236  -7.149  -7.141  -7.141  -0.904  -0.826  -0.741
 -0.713  -0.619  -0.529  -0.508  -0.475  -0.453  -0.431  -0.413
 -0.331  -0.328  -0.268  -0.248  -0.247

          Ground-State Mulliken Net Atomic Charges

     Atom                 Charge (a.u.)    Spin (a.u.)
  --------------------------------------------------------
      1 Cl                   -0.481002      -0.000000
      2 Cl                   -0.026360      -0.000000
      3 C                     0.051093      -0.000000
      4 C                    -0.319070       0.000000
      5 C                    -0.345371      -0.000000
      6 H                     0.191906       0.000000
      7 H                     0.184697       0.000000
      8 H                     0.230555      -0.000000
      9 H                     0.192026       0.000000
     10 H                     0.171464      -0.000000
     11 H                     0.150060       0.000000
  --------------------------------------------------------
  Sum of atomic charges =    -0.000000

                    Cartesian Multipole Moments
 -----------------------------------------------------------------
    Charge (ESU x 10^10)
                -0.0000
    Dipole Moment (Debye)
         X       1.7270      Y      -5.6484      Z      -2.8429
       Tot       6.5551
    Quadrupole Moments (Debye-Ang)
        XX     -50.5882     XY       8.3954     YY     -50.0143
        XZ      -0.6410     YZ      -1.1395     ZZ     -41.3872

 Final energy is   -1038.27352654343
 **  OPTIMIZATION CONVERGED  **
 Total job time:  98.07s(wall), 1074.82s(cpu)
        *  Thank you very much for using Q-Chem.  Have a nice day.  *
