 Q-Chem 5.1, Q-Chem, Inc., Pleasanton, CA (2018)
 Q-Chem 5.1.1 for Intel X86 EM64T Linux

User input:
--------------------------------------------------------------

$comment
potential surface scanner
$end

$rem
JOBTYPE  PES_SCAN
UNRESTRICTED TRUE
SYM_IGNORE  TRUE
GEOM_OPT_MAX_CYCLES 400
SCF_MAX_CYCLES 400
METHOD   B3LYP
BASIS   6-31G**
PDB_PRINT 2
SCF_CONVERGENCE 6
THRESH 14
SCF_PRINT 1
$end
$molecule
0 3
Cl 1.159576 3.384064 -1.571292
Cl 0.670917 1.414672 0.386072
C -0.929870 -0.890940 -0.035532
C -0.295759 0.155409 -0.804579
C -0.208691 -2.105873 0.428471
H -1.920959 -0.693325 0.365677
H 0.520306 -0.165973 -1.448531
H -0.968947 0.845958 -1.305450
H 0.196767 -1.951971 1.441697
H -0.878666 -2.969953 0.489489
H 0.635625 -2.356667 -0.221223
$end
$scan
stre 1 3 4.900000 4.901000 0.100000
$end
--------------------------------------------------------------

   12   -1038.2345242214      7.76e-07  Convergence criterion met
 Total energy in the final basis set =    -1038.2345242214
   12   -1038.2347509392      7.90e-07  Convergence criterion met
 Total energy in the final basis set =    -1038.2347509392
   12   -1038.2348313851      7.67e-07  Convergence criterion met
 Total energy in the final basis set =    -1038.2348313851
   12   -1038.2348461172      7.45e-07  Convergence criterion met
 Total energy in the final basis set =    -1038.2348461172
   12   -1038.2348476587      7.36e-07  Convergence criterion met
 Total energy in the final basis set =    -1038.2348476587
   12   -1038.2348494080      7.20e-07  Convergence criterion met
 Total energy in the final basis set =    -1038.2348494080

             Standard Nuclear Orientation (Angstroms)
    I     Atom           X                Y                Z
 ----------------------------------------------------------------
    1      Cl      1.0942073079     3.3067500058    -1.5920963275
    2      Cl      0.6844959030     1.4134307094     0.4143387369
    3      C      -0.9225218960    -0.8797702353    -0.0377949847
    4      C      -0.2805671901     0.1664324017    -0.7966873561
    5      C      -0.2113310875    -2.1022446468     0.4218332891
    6      H      -1.9148795777    -0.6797425340     0.3591850312
    7      H       0.5403969450    -0.1510517243    -1.4361087055
    8      H      -0.9461073272     0.8659424977    -1.2947698528
    9      H       0.1861800673    -1.9591297383     1.4397606046
   10      H      -0.8864309449    -2.9631845599     0.4702310983
   11      H       0.6368568002    -2.3520311759    -0.2230925335
 ----------------------------------------------------------------

   12   -1038.2348497874      7.16e-07  Convergence criterion met
 Total energy in the final basis set =    -1038.2348497874

                    Orbital Energies (a.u.)
 --------------------------------------------------------------

 Alpha MOs
 -- Occupied --
*******-101.529 -10.268 -10.246 -10.214  -9.475  -9.442  -7.239
 -7.233  -7.227  -7.213  -7.195  -7.195  -0.866  -0.808  -0.778
 -0.719  -0.608  -0.509  -0.467  -0.455  -0.416  -0.410  -0.396
 -0.373  -0.323  -0.296  -0.292  -0.291  -0.241

 Beta MOs
 -- Occupied --
*******-101.524 -10.269 -10.235 -10.215  -9.471  -9.437  -7.232
 -7.226  -7.225  -7.196  -7.192  -7.191  -0.848  -0.787  -0.737
 -0.711  -0.593  -0.504  -0.460  -0.437  -0.407  -0.398  -0.390
 -0.326  -0.315  -0.283  -0.279

          Ground-State Mulliken Net Atomic Charges

     Atom                 Charge (a.u.)    Spin (a.u.)
  --------------------------------------------------------
      1 Cl                   -0.200331       0.783462
      2 Cl                   -0.056576       0.421160
      3 C                    -0.011051       0.858793
      4 C                    -0.292530      -0.055476
      5 C                    -0.352592      -0.063515
      6 H                     0.127258      -0.037777
      7 H                     0.180624       0.006479
      8 H                     0.191092       0.006875
      9 H                     0.150769       0.055063
     10 H                     0.134565       0.017167
     11 H                     0.128773       0.007768
  --------------------------------------------------------
  Sum of atomic charges =     0.000000

                    Cartesian Multipole Moments
 -----------------------------------------------------------------
    Charge (ESU x 10^10)
                 0.0000
    Dipole Moment (Debye)
         X      -2.1619      Y      -4.8391      Z       0.5614
       Tot       5.3297
    Quadrupole Moments (Debye-Ang)
        XX     -45.2999     XY      -3.7769     YY     -53.7707
        XZ       1.1711     YZ       2.7394     ZZ     -45.5115

 Final energy is   -1038.23484978743
 **  OPTIMIZATION CONVERGED  **
 Total job time:  26.17s(wall), 303.21s(cpu)
        *  Thank you very much for using Q-Chem.  Have a nice day.  *
