 Q-Chem 5.1, Q-Chem, Inc., Pleasanton, CA (2018)
 Q-Chem 5.1.1 for Intel X86 EM64T Linux

User input:
--------------------------------------------------------------

$comment
potential surface scanner
$end

$rem
JOBTYPE  PES_SCAN
UNRESTRICTED TRUE
SYM_IGNORE  TRUE
GEOM_OPT_MAX_CYCLES 400
SCF_MAX_CYCLES 400
METHOD   B3LYP
BASIS   6-31G**
PDB_PRINT 2
SCF_CONVERGENCE 6
THRESH 14
SCF_PRINT 1
$end
$molecule
0 3
Cl -0.647614 2.091905 1.176000
Cl 1.338191 1.353216 -0.566482
C -0.722342 -0.652696 -0.467649
C 0.240146 -0.197057 -1.411107
C -0.419773 -1.625039 0.613743
H -1.694015 -0.169147 -0.460242
H 1.076730 -0.859015 -1.620943
H -0.135488 0.332127 -2.281076
H -0.349642 -1.096296 1.575347
H -1.228241 -2.358216 0.720026
H 0.522348 -2.154381 0.447183
$end
$scan
stre 1 3 3.100000 3.101000 0.100000
$end
--------------------------------------------------------------

   11   -1038.2355193155      7.72e-07  Convergence criterion met
 Total energy in the final basis set =    -1038.2355193155
   11   -1038.2347692564      8.04e-07  Convergence criterion met
 Total energy in the final basis set =    -1038.2347692564
   11   -1038.2349057680      7.89e-07  Convergence criterion met
 Total energy in the final basis set =    -1038.2349057680
   11   -1038.2349443018      7.87e-07  Convergence criterion met
 Total energy in the final basis set =    -1038.2349443018
   11   -1038.2349494618      7.87e-07  Convergence criterion met
 Total energy in the final basis set =    -1038.2349494618
   11   -1038.2349568755      7.86e-07  Convergence criterion met
 Total energy in the final basis set =    -1038.2349568755
   11   -1038.2349615790      7.83e-07  Convergence criterion met
 Total energy in the final basis set =    -1038.2349615790
   11   -1038.2349672719      7.73e-07  Convergence criterion met
 Total energy in the final basis set =    -1038.2349672719
   11   -1038.2349701479      7.64e-07  Convergence criterion met
 Total energy in the final basis set =    -1038.2349701479
   11   -1038.2349716929      7.57e-07  Convergence criterion met
 Total energy in the final basis set =    -1038.2349716929
   11   -1038.2349727142      7.53e-07  Convergence criterion met
 Total energy in the final basis set =    -1038.2349727142
   11   -1038.2349738346      7.48e-07  Convergence criterion met
 Total energy in the final basis set =    -1038.2349738346
   11   -1038.2349748945      7.44e-07  Convergence criterion met
 Total energy in the final basis set =    -1038.2349748945

             Standard Nuclear Orientation (Angstroms)
    I     Atom           X                Y                Z
 ----------------------------------------------------------------
    1      Cl     -0.6241717767     1.9927560788     1.1837571243
    2      Cl      1.3452398858     1.3817717410    -0.5955690057
    3      C      -0.7203527512    -0.6338816980    -0.4598745369
    4      C       0.2341897555    -0.2036666180    -1.4174471847
    5      C      -0.4233760804    -1.6090153509     0.6205271512
    6      H      -1.6935462456    -0.1542011547    -0.4595604475
    7      H       1.0760698637    -0.8627558075    -1.6123313296
    8      H      -0.1379307063     0.3196934138    -2.2920697158
    9      H      -0.3860486521    -1.0873595432     1.5869101141
   10      H      -1.2209858649    -2.3578579236     0.7005967037
   11      H       0.5312125721    -2.1200821378     0.4698611268
 ----------------------------------------------------------------

   11   -1038.2349756530      7.42e-07  Convergence criterion met
 Total energy in the final basis set =    -1038.2349756530

                    Orbital Energies (a.u.)
 --------------------------------------------------------------

 Alpha MOs
 -- Occupied --
*******-101.522 -10.268 -10.250 -10.209  -9.470  -9.435  -7.233
 -7.229  -7.222  -7.206  -7.189  -7.188  -0.858  -0.807  -0.773
 -0.721  -0.606  -0.511  -0.468  -0.451  -0.409  -0.401  -0.395
 -0.376  -0.323  -0.293  -0.287  -0.280  -0.244

 Beta MOs
 -- Occupied --
*******-101.517 -10.268 -10.240 -10.209  -9.465  -9.430  -7.225
 -7.221  -7.219  -7.189  -7.186  -7.185  -0.837  -0.783  -0.736
 -0.713  -0.593  -0.506  -0.462  -0.433  -0.404  -0.392  -0.377
 -0.325  -0.313  -0.279  -0.275

          Ground-State Mulliken Net Atomic Charges

     Atom                 Charge (a.u.)    Spin (a.u.)
  --------------------------------------------------------
      1 Cl                   -0.236752       0.730708
      2 Cl                   -0.084097       0.559398
      3 C                     0.025528       0.727446
      4 C                    -0.278995      -0.006380
      5 C                    -0.358525      -0.053911
      6 H                     0.149321      -0.031033
      7 H                     0.171732       0.003374
      8 H                     0.179883       0.001052
      9 H                     0.173966       0.044074
     10 H                     0.134744       0.022929
     11 H                     0.123195       0.002344
  --------------------------------------------------------
  Sum of atomic charges =    -0.000000

                    Cartesian Multipole Moments
 -----------------------------------------------------------------
    Charge (ESU x 10^10)
                 0.0000
    Dipole Moment (Debye)
         X      -0.7166      Y      -4.2192      Z      -2.1932
       Tot       4.8088
    Quadrupole Moments (Debye-Ang)
        XX     -44.5750     XY       0.0104     YY     -49.6593
        XZ       0.0661     YZ      -2.3978     ZZ     -43.1053

 Final energy is   -1038.23497565305
 **  OPTIMIZATION CONVERGED  **
 Total job time:  51.01s(wall), 595.26s(cpu)
        *  Thank you very much for using Q-Chem.  Have a nice day.  *
