 Q-Chem 5.1, Q-Chem, Inc., Pleasanton, CA (2018)
 Q-Chem 5.1.1 for Intel X86 EM64T Linux

User input:
--------------------------------------------------------------

$comment
potential surface scanner
$end

$rem
JOBTYPE  PES_SCAN
UNRESTRICTED TRUE
SYM_IGNORE  TRUE
GEOM_OPT_MAX_CYCLES 400
SCF_MAX_CYCLES 400
METHOD   B3LYP
BASIS   6-31G**
PDB_PRINT 2
SCF_CONVERGENCE 6
THRESH 14
SCF_PRINT 1
$end
$molecule
0 1
Cl -1.315412 1.466736 0.244757
Cl 1.955083 0.084641 0.611226
C -0.591644 -0.240196 -0.505271
C 0.871231 -0.032139 -0.829760
C -0.944588 -1.357621 0.446140
H -1.147276 -0.295125 -1.443226
H 1.219674 -0.893328 -1.408835
H 1.016986 0.875258 -1.414123
H -0.469678 -1.212952 1.417580
H -2.025311 -1.422841 0.581262
H -0.588764 -2.307032 0.025047
$end
$scan
stre 1 3 2.100000 2.101000 0.100000
$end
--------------------------------------------------------------

    9   -1038.3354501358      5.36e-07  Convergence criterion met
 Total energy in the final basis set =    -1038.3354501358
    9   -1038.3283491760      6.83e-07  Convergence criterion met
 Total energy in the final basis set =    -1038.3283491760
    9   -1038.3284318748      6.72e-07  Convergence criterion met
 Total energy in the final basis set =    -1038.3284318748
    9   -1038.3285560865      6.59e-07  Convergence criterion met
 Total energy in the final basis set =    -1038.3285560865
    9   -1038.3285605058      6.59e-07  Convergence criterion met
 Total energy in the final basis set =    -1038.3285605058
    9   -1038.3285617240      6.59e-07  Convergence criterion met
 Total energy in the final basis set =    -1038.3285617240
    9   -1038.3285628887      6.60e-07  Convergence criterion met
 Total energy in the final basis set =    -1038.3285628887
    9   -1038.3285642261      6.60e-07  Convergence criterion met
 Total energy in the final basis set =    -1038.3285642261

             Standard Nuclear Orientation (Angstroms)
    I     Atom           X                Y                Z
 ----------------------------------------------------------------
    1      Cl     -1.3430485031     1.5205446000     0.2546723789
    2      Cl      1.9578837428     0.0594735241     0.6094615607
    3      C      -0.5780007005    -0.2748891074    -0.5206461281
    4      C       0.8770952793    -0.0355491610    -0.8329073640
    5      C      -0.9437339656    -1.3630234287     0.4495351651
    6      H      -1.1492781151    -0.3007973073    -1.4488799572
    7      H       1.2364951836    -0.8788846309    -1.4332057694
    8      H       1.0091551705     0.8857221179    -1.3980123472
    9      H      -0.4712013538    -1.2043899266     1.4196586103
   10      H      -2.0252845910    -1.4205046821     0.5783220687
   11      H      -0.5897811470    -2.3223009982     0.0467987822
 ----------------------------------------------------------------

    9   -1038.3285648907      6.60e-07  Convergence criterion met
 Total energy in the final basis set =    -1038.3285648907

                    Orbital Energies (a.u.)
 --------------------------------------------------------------

 Alpha MOs
 -- Occupied --
*******-101.519 -10.289 -10.272 -10.209  -9.463  -9.433  -7.227
 -7.217  -7.217  -7.197  -7.188  -7.188  -0.882  -0.815  -0.758
 -0.712  -0.598  -0.502  -0.490  -0.452  -0.428  -0.404  -0.390
 -0.344  -0.311  -0.307  -0.289  -0.287

 Beta MOs
 -- Occupied --
*******-101.519 -10.289 -10.272 -10.209  -9.463  -9.433  -7.227
 -7.217  -7.217  -7.197  -7.188  -7.188  -0.882  -0.815  -0.758
 -0.712  -0.598  -0.502  -0.490  -0.452  -0.428  -0.404  -0.390
 -0.344  -0.311  -0.307  -0.289  -0.287

          Ground-State Mulliken Net Atomic Charges

     Atom                 Charge (a.u.)    Spin (a.u.)
  --------------------------------------------------------
      1 Cl                   -0.215687      -0.000000
      2 Cl                   -0.055348       0.000000
      3 C                    -0.107265       0.000000
      4 C                    -0.271839      -0.000000
      5 C                    -0.307798       0.000000
      6 H                     0.172020      -0.000000
      7 H                     0.166516       0.000000
      8 H                     0.187352       0.000000
      9 H                     0.164025      -0.000000
     10 H                     0.144213       0.000000
     11 H                     0.123812      -0.000000
  --------------------------------------------------------
  Sum of atomic charges =    -0.000000

                    Cartesian Multipole Moments
 -----------------------------------------------------------------
    Charge (ESU x 10^10)
                -0.0000
    Dipole Moment (Debye)
         X       0.0251      Y      -2.9911      Z      -2.3565
       Tot       3.8079
    Quadrupole Moments (Debye-Ang)
        XX     -48.5163     XY       3.3550     YY     -46.0884
        XZ      -1.0934     YZ      -0.3798     ZZ     -42.2734

 Final energy is   -1038.32856489071
 **  OPTIMIZATION CONVERGED  **
 Total job time:  29.80s(wall), 339.92s(cpu)
        *  Thank you very much for using Q-Chem.  Have a nice day.  *
