 Q-Chem 5.1, Q-Chem, Inc., Pleasanton, CA (2018)
 Q-Chem 5.1.1 for Intel X86 EM64T Linux

User input:
--------------------------------------------------------------

$comment
potential surface scanner
$end

$rem
JOBTYPE  PES_SCAN
UNRESTRICTED TRUE
SYM_IGNORE  TRUE
GEOM_OPT_MAX_CYCLES 400
SCF_MAX_CYCLES 400
METHOD   B3LYP
BASIS   6-31G**
PDB_PRINT 2
SCF_CONVERGENCE 6
THRESH 14
SCF_PRINT 1
$end
$molecule
0 3
F 0.102063 2.344719 0.362367
C -0.245510 -0.497509 0.331983
C 0.703674 -1.196401 -0.525629
C -1.610018 -0.091764 -0.155050
H -0.123235 -0.586633 1.416499
H -2.293516 -0.956520 -0.159191
H 0.606360 -2.264351 -0.723100
H 1.528719 -0.684676 -1.016307
H -2.048815 0.675950 0.487976
H 0.257969 1.420380 0.402395
H -1.570794 0.292002 -1.178743
$end
$scan
stre 1 3 3.600000 3.601000 0.100000
$end
--------------------------------------------------------------

   10    -218.2506180594      4.27e-07  Convergence criterion met
 Total energy in the final basis set =     -218.2506180594
   10    -218.2496160896      4.43e-07  Convergence criterion met
 Total energy in the final basis set =     -218.2496160896
   10    -218.2502617336      4.46e-07  Convergence criterion met
 Total energy in the final basis set =     -218.2502617336
   10    -218.2505058080      4.40e-07  Convergence criterion met
 Total energy in the final basis set =     -218.2505058080
   10    -218.2505117407      4.39e-07  Convergence criterion met
 Total energy in the final basis set =     -218.2505117407
   10    -218.2505177990      4.36e-07  Convergence criterion met
 Total energy in the final basis set =     -218.2505177990
   10    -218.2505259554      4.33e-07  Convergence criterion met
 Total energy in the final basis set =     -218.2505259554
   10    -218.2505352060      4.31e-07  Convergence criterion met
   10    -218.2505715632      4.31e-07  Convergence criterion met
 Total energy in the final basis set =     -218.2505715632
   10    -218.2505777351      4.28e-07  Convergence criterion met
 Total energy in the final basis set =     -218.2505777351
   10    -218.2505849271      4.24e-07  Convergence criterion met
 Total energy in the final basis set =     -218.2505849271
   10    -218.2505922937      4.22e-07  Convergence criterion met
 Total energy in the final basis set =     -218.2505922937
   10    -218.2505971172      4.22e-07  Convergence criterion met
 Total energy in the final basis set =     -218.2505971172
   10    -218.2505989474      4.23e-07  Convergence criterion met
 Total energy in the final basis set =     -218.2505989474

             Standard Nuclear Orientation (Angstroms)
    I     Atom           X                Y                Z
 ----------------------------------------------------------------
    1      F       0.1745305274     2.3193161006     0.1861779686
    2      C      -0.2641771445    -0.5099390370     0.3671217526
    3      C       0.6989480021    -1.1751011267    -0.5023237075
    4      C      -1.6215593505    -0.0924961738    -0.1290135553
    5      H      -0.1528153314    -0.6292511820     1.4495041152
    6      H      -2.2704670770    -0.9718006700    -0.2728833510
    7      H       0.6135868286    -2.2376446307    -0.7316729951
    8      H       1.5251612617    -0.6420111209    -0.9676873527
    9      H      -2.1188152310     0.5750632271     0.5797172639
   10      H       0.2760337449     1.4031519921     0.3598011300
   11      H      -1.5535292303     0.4159096214    -1.0955412687
 ----------------------------------------------------------------

   10    -218.2505999031      4.25e-07  Convergence criterion met
 Total energy in the final basis set =     -218.2505999031

                    Orbital Energies (a.u.)
 --------------------------------------------------------------

 Alpha MOs
 -- Occupied --
-24.641 -10.221 -10.210 -10.194  -1.145  -0.803  -0.701  -0.588
 -0.504  -0.464  -0.452  -0.418  -0.408  -0.376  -0.356  -0.356
 -0.223  -0.221

 Beta MOs
 -- Occupied --
-24.639 -10.209 -10.197 -10.194  -1.141  -0.772  -0.675  -0.558
 -0.494  -0.450  -0.430  -0.404  -0.395  -0.367  -0.355  -0.354

          Ground-State Mulliken Net Atomic Charges

     Atom                 Charge (a.u.)    Spin (a.u.)
  --------------------------------------------------------
      1 F                    -0.382579       0.033068
      2 C                    -0.176842       0.871151
      3 C                    -0.231917       1.010731
      4 C                    -0.325014      -0.031179
      5 H                     0.126520       0.004607
      6 H                     0.121923       0.058659
      7 H                     0.123670       0.006353
      8 H                     0.129826      -0.011538
      9 H                     0.128301       0.014476
     10 H                     0.351094       0.025781
     11 H                     0.135017       0.017892
  --------------------------------------------------------
  Sum of atomic charges =    -0.000000

                    Cartesian Multipole Moments
 -----------------------------------------------------------------
    Charge (ESU x 10^10)
                -0.0000
    Dipole Moment (Debye)
         X      -0.3323      Y      -2.5130      Z       0.1312
       Tot       2.5383
    Quadrupole Moments (Debye-Ang)
        XX     -24.0708     XY      -0.1880     YY     -31.3683
        XZ      -0.5166     YZ       0.0756     ZZ     -24.6719

 Final energy is   -218.250599903077
 **  OPTIMIZATION CONVERGED  **
 Total job time:  56.17s(wall), 652.99s(cpu)
        *  Thank you very much for using Q-Chem.  Have a nice day.  *
