 Q-Chem 5.1, Q-Chem, Inc., Pleasanton, CA (2018)
 Q-Chem 5.1.1 for Intel X86 EM64T Linux

User input:
--------------------------------------------------------------

$comment
potential surface scanner
$end

$rem
JOBTYPE  PES_SCAN
UNRESTRICTED TRUE
SYM_IGNORE  TRUE
GEOM_OPT_MAX_CYCLES 400
SCF_MAX_CYCLES 400
METHOD   B3LYP
BASIS   6-31G**
PDB_PRINT 2
SCF_CONVERGENCE 6
THRESH 14
SCF_PRINT 1
$end
$molecule
0 3
F 0.066140 2.327429 1.020491
C -0.357145 -0.739923 0.208570
C 0.660398 -1.203975 -0.524191
C -1.599396 -0.088607 -0.331907
H -0.310186 -0.845625 1.293686
H -2.495742 -0.644264 -0.031458
H 1.527371 -1.671882 -0.067246
H 0.656188 -1.137510 -1.609778
H -1.700117 0.925696 0.069458
H 0.440340 1.565035 0.639960
H -1.580952 -0.031176 -1.424386
$end
$scan
stre 1 3 4.000000 4.001000 0.100000
$end
--------------------------------------------------------------

   10    -218.1879595896      4.59e-07  Convergence criterion met
 Total energy in the final basis set =     -218.1879595896
   10    -218.2170563976      3.74e-07  Convergence criterion met
 Total energy in the final basis set =     -218.2170563976
   10    -218.2202008466      3.34e-07  Convergence criterion met
 Total energy in the final basis set =     -218.2202008466
   10    -218.2211396241      2.98e-07  Convergence criterion met
 Total energy in the final basis set =     -218.2211396241
   10    -218.2217904679      2.85e-07  Convergence criterion met
 Total energy in the final basis set =     -218.2217904679
   10    -218.2227136560      2.83e-07  Convergence criterion met
 Total energy in the final basis set =     -218.2227136560
   10    -218.2236189797      2.90e-07  Convergence criterion met
 Total energy in the final basis set =     -218.2236189797
   10    -218.2245435713      3.02e-07  Convergence criterion met
   10    -218.2508001791      3.98e-07  Convergence criterion met
 Total energy in the final basis set =     -218.2508001791
   10    -218.2508077825      3.97e-07  Convergence criterion met
 Total energy in the final basis set =     -218.2508077825
   10    -218.2508181783      3.96e-07  Convergence criterion met
 Total energy in the final basis set =     -218.2508181783
   10    -218.2508276361      3.95e-07  Convergence criterion met
 Total energy in the final basis set =     -218.2508276361
   10    -218.2508324892      3.94e-07  Convergence criterion met
 Total energy in the final basis set =     -218.2508324892
   10    -218.2508343524      3.95e-07  Convergence criterion met
 Total energy in the final basis set =     -218.2508343524

             Standard Nuclear Orientation (Angstroms)
    I     Atom           X                Y                Z
 ----------------------------------------------------------------
    1      F      -0.0411780952     2.3790537428     0.8588018280
    2      C      -0.1959067868    -0.4558183190     0.2243490197
    3      C       0.6966469747    -1.2791057544    -0.5811570741
    4      C      -1.5872134299    -0.1006733589    -0.2244805692
    5      H      -0.0057211217    -0.3891370772     1.3005182165
    6      H      -2.2946113857    -0.9153682774     0.0020340896
    7      H       0.5900280881    -2.3638106286    -0.6143097097
    8      H       1.4973721278    -0.8524517904    -1.1815177517
    9      H      -1.9411304756     0.7975460578     0.2896179331
   10      H       0.2188027748     1.5663589621     0.4742662609
   11      H      -1.6301896706     0.0686044431    -1.3049232432
 ----------------------------------------------------------------

   10    -218.2508353436      3.96e-07  Convergence criterion met
 Total energy in the final basis set =     -218.2508353436

                    Orbital Energies (a.u.)
 --------------------------------------------------------------

 Alpha MOs
 -- Occupied --
-24.648 -10.219 -10.208 -10.193  -1.151  -0.800  -0.699  -0.586
 -0.506  -0.462  -0.452  -0.418  -0.406  -0.377  -0.363  -0.359
 -0.221  -0.217

 Beta MOs
 -- Occupied --
-24.646 -10.207 -10.195 -10.192  -1.149  -0.770  -0.674  -0.557
 -0.499  -0.448  -0.430  -0.403  -0.393  -0.369  -0.361  -0.357

          Ground-State Mulliken Net Atomic Charges

     Atom                 Charge (a.u.)    Spin (a.u.)
  --------------------------------------------------------
      1 F                    -0.373145       0.023384
      2 C                    -0.160525       0.878253
      3 C                    -0.239220       1.010171
      4 C                    -0.335696      -0.032092
      5 H                     0.130629       0.004981
      6 H                     0.124698       0.060859
      7 H                     0.121885       0.006692
      8 H                     0.124577      -0.011570
      9 H                     0.135928       0.020600
     10 H                     0.348477       0.027983
     11 H                     0.122391       0.010740
  --------------------------------------------------------
  Sum of atomic charges =     0.000000

                    Cartesian Multipole Moments
 -----------------------------------------------------------------
    Charge (ESU x 10^10)
                 0.0000
    Dipole Moment (Debye)
         X       0.0114      Y      -2.2490      Z      -0.8174
       Tot       2.3930
    Quadrupole Moments (Debye-Ang)
        XX     -24.2341     XY       0.6062     YY     -30.9728
        XZ      -0.4217     YZ      -2.3309     ZZ     -25.8670

 Final energy is   -218.250835343637
 **  OPTIMIZATION CONVERGED  **
 Total job time:  118.98s(wall), 1376.57s(cpu)
        *  Thank you very much for using Q-Chem.  Have a nice day.  *
