 Q-Chem 5.1, Q-Chem, Inc., Pleasanton, CA (2018)
 Q-Chem 5.1.1 for Intel X86 EM64T Linux

User input:
--------------------------------------------------------------

$comment
potential surface scanner
$end

$rem
JOBTYPE  PES_SCAN
UNRESTRICTED TRUE
SYM_IGNORE  TRUE
GEOM_OPT_MAX_CYCLES 400
SCF_MAX_CYCLES 400
METHOD   B3LYP
BASIS   6-31G**
PDB_PRINT 2
SCF_CONVERGENCE 6
THRESH 14
SCF_PRINT 1
$end
$molecule
0 1
F 1.388547 0.638500 0.170160
C -0.635024 -0.628522 0.272813
C 0.774252 -0.533892 -0.286063
C -1.516556 0.554438 -0.135313
H -0.572442 -0.691895 1.365966
H -1.072874 -1.574432 -0.072325
H 1.390399 -1.383334 0.033261
H 0.765390 -0.501198 -1.383733
H -2.505608 0.491088 0.327731
H -1.053084 1.495438 0.172512
H -1.656099 0.589009 -1.221808
$end
$scan
stre 1 3 1.500000 1.501000 0.100000
$end
--------------------------------------------------------------

    9    -218.3808470671      2.27e-07  Convergence criterion met
 Total energy in the final basis set =     -218.3808470671
    9    -218.3755119841      2.55e-07  Convergence criterion met
 Total energy in the final basis set =     -218.3755119841
    9    -218.3758145430      2.52e-07  Convergence criterion met
 Total energy in the final basis set =     -218.3758145430
    9    -218.3758866987      2.50e-07  Convergence criterion met
 Total energy in the final basis set =     -218.3758866987
    9    -218.3758891819      2.51e-07  Convergence criterion met
 Total energy in the final basis set =     -218.3758891819

             Standard Nuclear Orientation (Angstroms)
    I     Atom           X                Y                Z
 ----------------------------------------------------------------
    1      F       1.4065407339     0.6903244623     0.1982275240
    2      C      -0.6419547349    -0.6360118313     0.2709924495
    3      C       0.7547528767    -0.5658005480    -0.2990874436
    4      C      -1.5151292861     0.5524785961    -0.1377761760
    5      H      -0.5698971186    -0.6963848201     1.3630206733
    6      H      -1.0912766922    -1.5805076973    -0.0661089457
    7      H       1.3967977595    -1.3855462995     0.0321423978
    8      H       0.7671490888    -0.4925313085    -1.3904445105
    9      H      -2.5007273446     0.4995600027     0.3336221977
   10      H      -1.0365948392     1.4878294212     0.1618667835
   11      H      -1.6627594432     0.5817900223    -1.2232539501
 ----------------------------------------------------------------

    9    -218.3758896326      2.51e-07  Convergence criterion met
 Total energy in the final basis set =     -218.3758896326

                    Orbital Energies (a.u.)
 --------------------------------------------------------------

 Alpha MOs
 -- Occupied --
-24.648 -10.259 -10.194 -10.178  -1.126  -0.790  -0.686  -0.593
 -0.479  -0.472  -0.435  -0.417  -0.374  -0.364  -0.347  -0.322
 -0.321

 Beta MOs
 -- Occupied --
-24.648 -10.259 -10.194 -10.178  -1.126  -0.790  -0.686  -0.593
 -0.479  -0.472  -0.435  -0.417  -0.374  -0.364  -0.347  -0.322
 -0.321

          Ground-State Mulliken Net Atomic Charges

     Atom                 Charge (a.u.)    Spin (a.u.)
  --------------------------------------------------------
      1 F                    -0.357278       0.000000
      2 C                    -0.205289      -0.000000
      3 C                     0.119896      -0.000000
      4 C                    -0.319254      -0.000000
      5 H                     0.116541       0.000000
      6 H                     0.098565       0.000000
      7 H                     0.105181       0.000000
      8 H                     0.104471       0.000000
      9 H                     0.104312      -0.000000
     10 H                     0.130725      -0.000000
     11 H                     0.102130       0.000000
  --------------------------------------------------------
  Sum of atomic charges =     0.000000

                    Cartesian Multipole Moments
 -----------------------------------------------------------------
    Charge (ESU x 10^10)
                 0.0000
    Dipole Moment (Debye)
         X      -1.1186      Y      -1.6427      Z      -0.5340
       Tot       2.0578
    Quadrupole Moments (Debye-Ang)
        XX     -26.7888     XY      -1.9587     YY     -24.9455
        XZ      -0.7508     YZ       0.0264     ZZ     -24.4251

 Final energy is   -218.375889632581
 **  OPTIMIZATION CONVERGED  **
 Total job time:  16.48s(wall), 187.22s(cpu)
        *  Thank you very much for using Q-Chem.  Have a nice day.  *
