 Q-Chem 5.1, Q-Chem, Inc., Pleasanton, CA (2018)
 Q-Chem 5.1.1 for Intel X86 EM64T Linux

User input:
--------------------------------------------------------------

$comment
potential surface scanner
$end

$rem
JOBTYPE  PES_SCAN
UNRESTRICTED TRUE
SYM_IGNORE  TRUE
GEOM_OPT_MAX_CYCLES 400
SCF_MAX_CYCLES 400
METHOD   B3LYP
BASIS   6-31G**
PDB_PRINT 2
SCF_CONVERGENCE 6
THRESH 14
SCF_PRINT 1
$end
$molecule
0 3
F 0.692416 1.668277 -0.591091
C -0.386024 -0.506584 0.488412
C 0.703463 -0.826697 -0.433030
C -1.743280 -0.110130 -0.021738
H -0.340905 -0.905344 1.506783
H -2.277406 -0.983410 -0.431973
H 0.725562 -1.824037 -0.881529
H 1.615444 -0.252468 -0.512858
H -2.371524 0.306793 0.772068
H 0.342558 1.270124 0.180925
H -1.653408 0.618674 -0.832775
$end
$scan
stre 1 3 2.400000 2.401000 0.100000
$end
--------------------------------------------------------------

   10    -218.2420603829      3.98e-07  Convergence criterion met
 Total energy in the final basis set =     -218.2420603829
   10    -218.2364240045      4.16e-07  Convergence criterion met
 Total energy in the final basis set =     -218.2364240045
   10    -218.2373737779      4.02e-07  Convergence criterion met
 Total energy in the final basis set =     -218.2373737779
   10    -218.2375014010      4.03e-07  Convergence criterion met
 Total energy in the final basis set =     -218.2375014010
   10    -218.2375957661      4.02e-07  Convergence criterion met
 Total energy in the final basis set =     -218.2375957661
   10    -218.2376327981      4.00e-07  Convergence criterion met
 Total energy in the final basis set =     -218.2376327981
   10    -218.2376594411      3.99e-07  Convergence criterion met
 Total energy in the final basis set =     -218.2376594411
   10    -218.2376897691      3.99e-07  Convergence criterion met
 Total energy in the final basis set =     -218.2376897691
   10    -218.2377114027      4.00e-07  Convergence criterion met
 Total energy in the final basis set =     -218.2377114027
   10    -218.2377233166      4.01e-07  Convergence criterion met
 Total energy in the final basis set =     -218.2377233166
   10    -218.2377285037      4.01e-07  Convergence criterion met
 Total energy in the final basis set =     -218.2377285037
   10    -218.2377307739      4.01e-07  Convergence criterion met
 Total energy in the final basis set =     -218.2377307739
   10    -218.2377317956      4.00e-07  Convergence criterion met
 Total energy in the final basis set =     -218.2377317956

             Standard Nuclear Orientation (Angstroms)
    I     Atom           X                Y                Z
 ----------------------------------------------------------------
    1      F       0.6630378606     1.5990979368    -0.7019449420
    2      C      -0.3898423235    -0.5166399991     0.4994552116
    3      C       0.7160541355    -0.7841228067    -0.4236496075
    4      C      -1.7434655888    -0.0990878901    -0.0032019786
    5      H      -0.3653302572    -0.9911521928     1.4858787464
    6      H      -2.2865050615    -0.9633370544    -0.4218454234
    7      H       0.7310907364    -1.7539320887    -0.9318904353
    8      H       1.6720963558    -0.2818470603    -0.3701694405
    9      H      -2.3681550486     0.3097714672     0.7980954260
   10      H       0.3299409074     1.2976821479     0.1176041302
   11      H      -1.6520257162     0.6387655401    -0.8051376869
 ----------------------------------------------------------------

   10    -218.2377323084      4.00e-07  Convergence criterion met
 Total energy in the final basis set =     -218.2377323084

                    Orbital Energies (a.u.)
 --------------------------------------------------------------

 Alpha MOs
 -- Occupied --
-24.658 -10.211 -10.192 -10.190  -1.165  -0.793  -0.692  -0.575
 -0.522  -0.459  -0.445  -0.414  -0.401  -0.374  -0.370  -0.358
 -0.218  -0.198

 Beta MOs
 -- Occupied --
-24.656 -10.199 -10.190 -10.179  -1.160  -0.765  -0.667  -0.544
 -0.513  -0.447  -0.424  -0.402  -0.386  -0.369  -0.361  -0.350

          Ground-State Mulliken Net Atomic Charges

     Atom                 Charge (a.u.)    Spin (a.u.)
  --------------------------------------------------------
      1 F                    -0.336726       0.038403
      2 C                    -0.177113       0.891195
      3 C                    -0.215670       0.993295
      4 C                    -0.330803      -0.042188
      5 H                     0.105369       0.006413
      6 H                     0.124330       0.063374
      7 H                     0.103195       0.013129
      8 H                     0.129249      -0.014853
      9 H                     0.113694       0.014618
     10 H                     0.351482       0.022079
     11 H                     0.132993       0.014535
  --------------------------------------------------------
  Sum of atomic charges =    -0.000000

                    Cartesian Multipole Moments
 -----------------------------------------------------------------
    Charge (ESU x 10^10)
                 0.0000
    Dipole Moment (Debye)
         X      -0.8548      Y      -1.0239      Z       1.3459
       Tot       1.8948
    Quadrupole Moments (Debye-Ang)
        XX     -24.5119     XY      -0.8877     YY     -26.7581
        XZ       0.5285     YZ       2.1289     ZZ     -26.0308

 Final energy is   -218.237732308419
 **  OPTIMIZATION CONVERGED  **
 Total job time:  40.46s(wall), 459.59s(cpu)
        *  Thank you very much for using Q-Chem.  Have a nice day.  *
