 Q-Chem 5.1, Q-Chem, Inc., Pleasanton, CA (2018)
 Q-Chem 5.1.1 for Intel X86 EM64T Linux

User input:
--------------------------------------------------------------

$comment
potential surface scanner
$end

$rem
JOBTYPE  PES_SCAN
UNRESTRICTED TRUE
SYM_IGNORE  TRUE
GEOM_OPT_MAX_CYCLES 400
SCF_MAX_CYCLES 400
METHOD   B3LYP
BASIS   6-31G**
PDB_PRINT 2
SCF_CONVERGENCE 6
THRESH 14
SCF_PRINT 1
$end
$molecule
0 3
F 0.004338 2.357799 0.748095
C -0.212337 -0.463266 0.256092
C 0.700994 -1.248157 -0.564061
C -1.596602 -0.098723 -0.206924
H -0.044506 -0.439780 1.337656
H -2.301991 -0.926335 -0.025586
H 0.597605 -2.330471 -0.647653
H 1.507918 -0.792832 -1.134219
H -1.967400 0.777361 0.332558
H 0.238045 1.508686 0.427979
H -1.619164 0.110915 -1.280736
$end
$scan
stre 1 3 3.800000 3.801000 0.100000
$end
--------------------------------------------------------------

   10    -218.2508275071      4.09e-07  Convergence criterion met
 Total energy in the final basis set =     -218.2508275071
   10    -218.2490549421      4.26e-07  Convergence criterion met
 Total energy in the final basis set =     -218.2490549421
   10    -218.2502217442      4.33e-07  Convergence criterion met
 Total energy in the final basis set =     -218.2502217442
   10    -218.2506716330      4.27e-07  Convergence criterion met
 Total energy in the final basis set =     -218.2506716330
   10    -218.2506808336      4.26e-07  Convergence criterion met
 Total energy in the final basis set =     -218.2506808336
   10    -218.2506839470      4.25e-07  Convergence criterion met
 Total energy in the final basis set =     -218.2506839470
   10    -218.2506880464      4.23e-07  Convergence criterion met
 Total energy in the final basis set =     -218.2506880464
   10    -218.2506920557      4.22e-07  Convergence criterion met
   10    -218.2507232553      4.20e-07  Convergence criterion met
 Total energy in the final basis set =     -218.2507232553
   10    -218.2507270902      4.19e-07  Convergence criterion met
 Total energy in the final basis set =     -218.2507270902
   10    -218.2507311550      4.19e-07  Convergence criterion met
 Total energy in the final basis set =     -218.2507311550
   10    -218.2507348662      4.19e-07  Convergence criterion met
 Total energy in the final basis set =     -218.2507348662
   10    -218.2507379998      4.19e-07  Convergence criterion met
 Total energy in the final basis set =     -218.2507379998
   10    -218.2507401017      4.20e-07  Convergence criterion met
 Total energy in the final basis set =     -218.2507401017

             Standard Nuclear Orientation (Angstroms)
    I     Atom           X                Y                Z
 ----------------------------------------------------------------
    1      F       0.0502534161     2.3532857644     0.5704399796
    2      C      -0.2317261669    -0.4820030292     0.2915587984
    3      C       0.7031083192    -1.2191209419    -0.5483499117
    4      C      -1.6061639828    -0.0953807078    -0.1828024044
    5      H      -0.0870152050    -0.5136413744     1.3765063485
    6      H      -2.3082665892    -0.9382604853    -0.0749202967
    7      H       0.6104600980    -2.2968166110    -0.6867618469
    8      H       1.5213272896    -0.7319362508    -1.0744135443
    9      H      -1.9986230496     0.7423017982     0.4001440580
   10      H       0.2550695498     1.4520056050     0.4122414235
   11      H      -1.6015236792     0.1847632326    -1.2404416041
 ----------------------------------------------------------------

   10    -218.2507410883      4.20e-07  Convergence criterion met
 Total energy in the final basis set =     -218.2507410883

                    Orbital Energies (a.u.)
 --------------------------------------------------------------

 Alpha MOs
 -- Occupied --
-24.642 -10.220 -10.210 -10.194  -1.147  -0.802  -0.701  -0.588
 -0.504  -0.464  -0.452  -0.419  -0.408  -0.376  -0.358  -0.356
 -0.223  -0.220

 Beta MOs
 -- Occupied --
-24.641 -10.208 -10.197 -10.193  -1.143  -0.772  -0.675  -0.558
 -0.495  -0.449  -0.430  -0.404  -0.394  -0.368  -0.357  -0.354

          Ground-State Mulliken Net Atomic Charges

     Atom                 Charge (a.u.)    Spin (a.u.)
  --------------------------------------------------------
      1 F                    -0.379626       0.031536
      2 C                    -0.172059       0.869677
      3 C                    -0.235566       1.010223
      4 C                    -0.329471      -0.030366
      5 H                     0.130110       0.005394
      6 H                     0.123296       0.059297
      7 H                     0.123387       0.007508
      8 H                     0.127223      -0.011394
      9 H                     0.136760       0.019680
     10 H                     0.350113       0.027505
     11 H                     0.125834       0.010940
  --------------------------------------------------------
  Sum of atomic charges =    -0.000000

                    Cartesian Multipole Moments
 -----------------------------------------------------------------
    Charge (ESU x 10^10)
                 0.0000
    Dipole Moment (Debye)
         X      -0.1341      Y      -2.4697      Z      -0.4353
       Tot       2.5114
    Quadrupole Moments (Debye-Ang)
        XX     -24.0615     XY       0.2546     YY     -31.3834
        XZ      -0.5462     YZ      -1.3612     ZZ     -25.1933

 Final energy is   -218.250741088265
 **  OPTIMIZATION CONVERGED  **
 Total job time:  62.94s(wall), 736.56s(cpu)
        *  Thank you very much for using Q-Chem.  Have a nice day.  *
