 Q-Chem 5.1, Q-Chem, Inc., Pleasanton, CA (2018)
 Q-Chem 5.1.1 for Intel X86 EM64T Linux

User input:
--------------------------------------------------------------

$comment
potential surface scanner
$end

$rem
JOBTYPE  PES_SCAN
UNRESTRICTED TRUE
SYM_IGNORE  TRUE
GEOM_OPT_MAX_CYCLES 400
SCF_MAX_CYCLES 400
METHOD   B3LYP
BASIS   6-31G**
PDB_PRINT 2
SCF_CONVERGENCE 6
THRESH 14
SCF_PRINT 1
$end
$molecule
0 1
F 1.422580 0.744445 0.225004
C -0.649089 -0.644132 0.269154
C 0.735725 -0.597057 -0.312214
C -1.513215 0.550463 -0.140093
H -0.567773 -0.701851 1.360097
H -1.109482 -1.587251 -0.060245
H 1.402959 -1.387112 0.031619
H 0.767702 -0.485893 -1.396985
H -2.495550 0.508767 0.338931
H -1.018834 1.479160 0.152492
H -1.668123 0.575660 -1.224558
$end
$scan
stre 1 3 1.700000 1.701000 0.100000
$end
--------------------------------------------------------------

    9    -218.3649485341      2.91e-07  Convergence criterion met
 Total energy in the final basis set =     -218.3649485341
    9    -218.3511860045      3.59e-07  Convergence criterion met
 Total energy in the final basis set =     -218.3511860045
    9    -218.3510453522      3.54e-07  Convergence criterion met
 Total energy in the final basis set =     -218.3510453522
    9    -218.3511416725      3.51e-07  Convergence criterion met
 Total energy in the final basis set =     -218.3511416725

             Standard Nuclear Orientation (Angstroms)
    I     Atom           X                Y                Z
 ----------------------------------------------------------------
    1      F       1.4346409841     0.8015086700     0.2514194511
    2      C      -0.6563500943    -0.6530983653     0.2671805550
    3      C       0.7169874633    -0.6276321239    -0.3252341947
    4      C      -1.5105234566     0.5483511320    -0.1423074949
    5      H      -0.5660696924    -0.7086960970     1.3570666062
    6      H      -1.1275299865    -1.5947877169    -0.0551378057
    7      H       1.4088314980    -1.3877035732     0.0311725851
    8      H       0.7672257608    -0.4814224441    -1.4031100123
    9      H      -2.4893351560     0.5196915971     0.3445509970
   10      H      -0.9981897108     1.4689267408     0.1432552336
   11      H      -1.6727876096     0.5700611805    -1.2256539204
 ----------------------------------------------------------------

    9    -218.3511438550      3.52e-07  Convergence criterion met
 Total energy in the final basis set =     -218.3511438550

                    Orbital Energies (a.u.)
 --------------------------------------------------------------

 Alpha MOs
 -- Occupied --
-24.621 -10.269 -10.202 -10.180  -1.069  -0.799  -0.691  -0.597
 -0.479  -0.464  -0.428  -0.389  -0.369  -0.360  -0.346  -0.312
 -0.310

 Beta MOs
 -- Occupied --
-24.621 -10.269 -10.202 -10.180  -1.069  -0.799  -0.691  -0.597
 -0.479  -0.464  -0.428  -0.389  -0.369  -0.360  -0.346  -0.312
 -0.310

          Ground-State Mulliken Net Atomic Charges

     Atom                 Charge (a.u.)    Spin (a.u.)
  --------------------------------------------------------
      1 F                    -0.382923      -0.000000
      2 C                    -0.201274       0.000000
      3 C                     0.063076       0.000000
      4 C                    -0.319885      -0.000000
      5 H                     0.127630      -0.000000
      6 H                     0.105682       0.000000
      7 H                     0.129168       0.000000
      8 H                     0.129347      -0.000000
      9 H                     0.104851       0.000000
     10 H                     0.142151       0.000000
     11 H                     0.102177      -0.000000
  --------------------------------------------------------
  Sum of atomic charges =     0.000000

                    Cartesian Multipole Moments
 -----------------------------------------------------------------
    Charge (ESU x 10^10)
                 0.0000
    Dipole Moment (Debye)
         X      -1.4999      Y      -2.2525      Z      -0.7563
       Tot       2.8099
    Quadrupole Moments (Debye-Ang)
        XX     -27.1277     XY      -2.6817     YY     -24.8315
        XZ      -1.0723     YZ      -0.0504     ZZ     -24.1410

 Final energy is   -218.351143854954
 **  OPTIMIZATION CONVERGED  **
 Total job time:  14.59s(wall), 157.98s(cpu)
        *  Thank you very much for using Q-Chem.  Have a nice day.  *
