 Q-Chem 5.1, Q-Chem, Inc., Pleasanton, CA (2018)
 Q-Chem 5.1.1 for Intel X86 EM64T Linux

User input:
--------------------------------------------------------------

$comment
potential surface scanner
$end

$rem
JOBTYPE  PES_SCAN
UNRESTRICTED TRUE
SYM_IGNORE  TRUE
GEOM_OPT_MAX_CYCLES 400
SCF_MAX_CYCLES 400
METHOD   B3LYP
BASIS   6-31G**
PDB_PRINT 2
SCF_CONVERGENCE 6
THRESH 14
SCF_PRINT 1
$end
$molecule
0 1
F 1.441991 1.145760 0.336225
C -0.688993 -0.708039 0.252405
C 0.639526 -0.773620 -0.379338
C -1.480152 0.542331 -0.144315
H -0.573750 -0.778978 1.338146
H -1.221587 -1.627381 -0.059502
H 1.427428 -1.381503 0.051824
H 0.750266 -0.514545 -1.427507
H -2.441077 0.576764 0.375669
H -0.872945 1.408897 0.121638
H -1.673808 0.565515 -1.222044
$end
$scan
stre 1 3 2.300000 2.301000 0.100000
$end
--------------------------------------------------------------

   11    -218.2803307537      1.89e-07  Convergence criterion met
 Total energy in the final basis set =     -218.2803307537
   11    -218.2687162196      2.65e-07  Convergence criterion met
 Total energy in the final basis set =     -218.2687162196
   11    -218.2685488676      2.57e-07  Convergence criterion met
 Total energy in the final basis set =     -218.2685488676
   11    -218.2685689401      2.47e-07  Convergence criterion met
 Total energy in the final basis set =     -218.2685689401
   11    -218.2685800925      2.36e-07  Convergence criterion met
 Total energy in the final basis set =     -218.2685800925
   11    -218.2685831979      2.32e-07  Convergence criterion met
 Total energy in the final basis set =     -218.2685831979
   11    -218.2685872424      2.26e-07  Convergence criterion met
 Total energy in the final basis set =     -218.2685872424
   11    -218.2685894054      2.22e-07  Convergence criterion met
 Total energy in the final basis set =     -218.2685894054
   11    -218.2685914635      2.17e-07  Convergence criterion met
 Total energy in the final basis set =     -218.2685914635
   11    -218.2685928261      2.13e-07  Convergence criterion met
 Total energy in the final basis set =     -218.2685928261
   11    -218.2685939810      2.08e-07  Convergence criterion met
 Total energy in the final basis set =     -218.2685939810

             Standard Nuclear Orientation (Angstroms)
    I     Atom           X                Y                Z
 ----------------------------------------------------------------
    1      F       1.4309475097     1.2317024865     0.3334581204
    2      C      -0.6948798390    -0.7208797822     0.2491380114
    3      C       0.6286243785    -0.8009322057    -0.3839495702
    4      C      -1.4703290083     0.5430900152    -0.1405070550
    5      H      -0.5848213731    -0.8050735817     1.3342836057
    6      H      -1.2388256570    -1.6306387506    -0.0753803268
    7      H       1.4302869532    -1.3784036536     0.0635409944
    8      H       0.7452187120    -0.5395611912    -1.4309299208
    9      H      -2.4279713882     0.5878796905     0.3845821230
   10      H      -0.8432339202     1.3955403620     0.1261782419
   11      H      -1.6681173676     0.5724776107    -1.2172132239
 ----------------------------------------------------------------

   11    -218.2685946971      2.04e-07  Convergence criterion met
 Total energy in the final basis set =     -218.2685946971

                    Orbital Energies (a.u.)
 --------------------------------------------------------------

 Alpha MOs
 -- Occupied --
-24.562 -10.295 -10.223 -10.184  -0.987  -0.823  -0.704  -0.614
 -0.501  -0.470  -0.444  -0.384  -0.373  -0.366  -0.279  -0.259
 -0.258

 Beta MOs
 -- Occupied --
-24.562 -10.295 -10.223 -10.184  -0.987  -0.823  -0.704  -0.614
 -0.501  -0.470  -0.444  -0.384  -0.373  -0.366  -0.279  -0.259
 -0.258

          Ground-State Mulliken Net Atomic Charges

     Atom                 Charge (a.u.)    Spin (a.u.)
  --------------------------------------------------------
      1 F                    -0.421186       0.000000
      2 C                    -0.214547       0.000000
      3 C                    -0.039132       0.000000
      4 C                    -0.325311      -0.000000
      5 H                     0.149299       0.000000
      6 H                     0.129887      -0.000000
      7 H                     0.168624      -0.000000
      8 H                     0.169493      -0.000000
      9 H                     0.106370       0.000000
     10 H                     0.173808       0.000000
     11 H                     0.102695       0.000000
  --------------------------------------------------------
  Sum of atomic charges =    -0.000000

                    Cartesian Multipole Moments
 -----------------------------------------------------------------
    Charge (ESU x 10^10)
                -0.0000
    Dipole Moment (Debye)
         X      -2.2414      Y      -4.0530      Z      -1.1726
       Tot       4.7776
    Quadrupole Moments (Debye-Ang)
        XX     -27.3939     XY      -4.6290     YY     -25.7481
        XZ      -1.6229     YZ      -0.4289     ZZ     -23.6336

 Final energy is   -218.268594697079
 **  OPTIMIZATION CONVERGED  **
 Total job time:  36.70s(wall), 422.88s(cpu)
        *  Thank you very much for using Q-Chem.  Have a nice day.  *
