 Q-Chem 5.1, Q-Chem, Inc., Pleasanton, CA (2018)
 Q-Chem 5.1.1 for Intel X86 EM64T Linux

User input:
--------------------------------------------------------------

$comment
potential surface scanner
$end

$rem
JOBTYPE  PES_SCAN
UNRESTRICTED TRUE
SYM_IGNORE  TRUE
GEOM_OPT_MAX_CYCLES 400
SCF_MAX_CYCLES 400
METHOD   B3LYP
BASIS   6-31G**
PDB_PRINT 2
SCF_CONVERGENCE 6
THRESH 14
SCF_PRINT 1
$end
$molecule
0 1
F 1.351930 1.593293 0.287878
C -0.714631 -0.776263 0.237164
C 0.596044 -0.907964 -0.392083
C -1.420482 0.547532 -0.117383
H -0.634762 -0.917550 1.318506
H -1.313021 -1.629928 -0.147328
H 1.434043 -1.382883 0.107712
H 0.727859 -0.652287 -1.439231
H -2.371839 0.621596 0.415866
H -0.727777 1.347355 0.163885
H -1.620464 0.612299 -1.191784
$end
$scan
stre 1 3 2.800000 2.801000 0.100000
$end
--------------------------------------------------------------

   12    -218.2311553145      1.53e-07  Convergence criterion met
 Total energy in the final basis set =     -218.2311553145
   14    -218.2239499547      3.53e-07  Convergence criterion met
 Total energy in the final basis set =     -218.2239499547
   14    -218.2238645678      3.73e-07  Convergence criterion met
 Total energy in the final basis set =     -218.2238645678
   14    -218.2238794793      2.64e-07  Convergence criterion met
 Total energy in the final basis set =     -218.2238794793
   14    -218.2238928148      1.77e-07  Convergence criterion met
 Total energy in the final basis set =     -218.2238928148
   14    -218.2239003553      1.43e-07  Convergence criterion met
 Total energy in the final basis set =     -218.2239003553
   14    -218.2239031593      1.45e-07  Convergence criterion met
 Total energy in the final basis set =     -218.2239031593
   14    -218.2239047194      1.49e-07  Convergence criterion met
 Total energy in the final basis set =     -218.2239047194
   14    -218.2239065057      1.46e-07  Convergence criterion met
 Total energy in the final basis set =     -218.2239065057
   14    -218.2239089443      1.29e-07  Convergence criterion met
 Total energy in the final basis set =     -218.2239089443
   13    -218.2239110555      8.57e-07  Convergence criterion met
 Total energy in the final basis set =     -218.2239110555

             Standard Nuclear Orientation (Angstroms)
    I     Atom           X                Y                Z
 ----------------------------------------------------------------
    1      F       1.3136388078     1.6871513772     0.2707564023
    2      C      -0.7174078675    -0.7900788110     0.2344028116
    3      C       0.5904827769    -0.9353098034    -0.3923730067
    4      C      -1.4042755538     0.5499913261    -0.1093442781
    5      H      -0.6477891838    -0.9469578218     1.3140651814
    6      H      -1.3315193076    -1.6242091193    -0.1686603930
    7      H       1.4339438375    -1.3892051944     0.1180086027
    8      H       0.7238662456    -0.6875865002    -1.4414190254
    9      H      -2.3551163528     0.6289648183     0.4242308966
   10      H      -0.6963266781     1.3369058657     0.1768243672
   11      H      -1.6025967242     0.6255338626    -1.1832895586
 ----------------------------------------------------------------

   13    -218.2239120493      7.35e-07  Convergence criterion met
 Total energy in the final basis set =     -218.2239120493

                    Orbital Energies (a.u.)
 --------------------------------------------------------------

 Alpha MOs
 -- Occupied --
-24.538 -10.305 -10.235 -10.186  -0.964  -0.835  -0.709  -0.622
 -0.516  -0.477  -0.451  -0.391  -0.378  -0.367  -0.245  -0.238
 -0.237

 Beta MOs
 -- Occupied --
-24.538 -10.305 -10.235 -10.186  -0.964  -0.835  -0.709  -0.622
 -0.516  -0.477  -0.451  -0.391  -0.378  -0.367  -0.245  -0.238
 -0.237

          Ground-State Mulliken Net Atomic Charges

     Atom                 Charge (a.u.)    Spin (a.u.)
  --------------------------------------------------------
      1 F                    -0.441300      -0.000000
      2 C                    -0.231208      -0.000000
      3 C                    -0.063991       0.000000
      4 C                    -0.330162       0.000000
      5 H                     0.149752      -0.000000
      6 H                     0.148865       0.000000
      7 H                     0.180547      -0.000000
      8 H                     0.180750      -0.000000
      9 H                     0.106434       0.000000
     10 H                     0.195218       0.000000
     11 H                     0.105094      -0.000000
  --------------------------------------------------------
  Sum of atomic charges =    -0.000000

                    Cartesian Multipole Moments
 -----------------------------------------------------------------
    Charge (ESU x 10^10)
                -0.0000
    Dipole Moment (Debye)
         X      -2.3255      Y      -5.4415      Z      -1.1195
       Tot       6.0226
    Quadrupole Moments (Debye-Ang)
        XX     -26.6101     XY      -5.7950     YY     -28.3032
        XZ      -1.3363     YZ      -0.5198     ZZ     -23.4409

 Final energy is   -218.223912049335
 **  OPTIMIZATION CONVERGED  **
 Total job time:  50.19s(wall), 523.69s(cpu)
        *  Thank you very much for using Q-Chem.  Have a nice day.  *
