 Q-Chem 5.1, Q-Chem, Inc., Pleasanton, CA (2018)
 Q-Chem 5.1.1 for Intel X86 EM64T Linux

User input:
--------------------------------------------------------------

$comment
potential surface scanner
$end

$rem
JOBTYPE  PES_SCAN
UNRESTRICTED TRUE
SYM_IGNORE  TRUE
GEOM_OPT_MAX_CYCLES 400
SCF_MAX_CYCLES 400
METHOD   B3LYP
BASIS   6-31G**
PDB_PRINT 2
SCF_CONVERGENCE 6
THRESH 14
SCF_PRINT 1
$end
$molecule
0 3
F 0.631116 1.178634 -0.712014
C -0.572022 -1.035149 0.243323
C 0.781259 -0.616253 -0.107168
C -1.762484 -0.127806 0.149599
H -0.734905 -2.039324 0.641629
H -2.689522 -0.650204 0.404152
H 1.238802 -0.979216 -1.027340
H 1.495708 -0.380161 0.681824
H -1.672196 0.738434 0.824690
H 0.465551 2.074680 -0.994880
H -1.874412 0.291566 -0.860620
$end
$scan
stre 1 3 1.800000 1.801000 0.100000
$end
--------------------------------------------------------------

   10    -218.2042651846      5.33e-07  Convergence criterion met
 Total energy in the final basis set =     -218.2042651846
   10    -218.1906118473      5.95e-07  Convergence criterion met
 Total energy in the final basis set =     -218.1906118473
   10    -218.1905290963      6.30e-07  Convergence criterion met
 Total energy in the final basis set =     -218.1905290963
   10    -218.1906942529      6.74e-07  Convergence criterion met
 Total energy in the final basis set =     -218.1906942529
   10    -218.1907127322      6.78e-07  Convergence criterion met
 Total energy in the final basis set =     -218.1907127322
   10    -218.1907214215      6.71e-07  Convergence criterion met
 Total energy in the final basis set =     -218.1907214215
   10    -218.1907242555      6.65e-07  Convergence criterion met
 Total energy in the final basis set =     -218.1907242555
   10    -218.1907265204      6.61e-07  Convergence criterion met
 Total energy in the final basis set =     -218.1907265204
   10    -218.1907305298      6.58e-07  Convergence criterion met
 Total energy in the final basis set =     -218.1907305298
   10    -218.1907362139      6.59e-07  Convergence criterion met
 Total energy in the final basis set =     -218.1907362139
   10    -218.1907405573      6.65e-07  Convergence criterion met
 Total energy in the final basis set =     -218.1907405573

             Standard Nuclear Orientation (Angstroms)
    I     Atom           X                Y                Z
 ----------------------------------------------------------------
    1      F       0.6238261715     1.1297933993    -0.6877757884
    2      C      -0.5683153772    -1.0135839036     0.2345765800
    3      C       0.7789597535    -0.5716742029    -0.1212572945
    4      C      -1.7731028923    -0.1255303952     0.1496630766
    5      H      -0.7114482628    -2.0240604949     0.6235856272
    6      H      -2.6876342769    -0.6605749943     0.4220514907
    7      H       1.2416290031    -0.9770734501    -1.0221128801
    8      H       1.4964584577    -0.3847513309     0.6793919897
    9      H      -1.6866307980     0.7482490473     0.8150279525
   10      H       0.5007165077     2.0513699349    -0.9873894630
   11      H      -1.9075632863     0.2830373903    -0.8625662907
 ----------------------------------------------------------------

   10    -218.1907419553      6.71e-07  Convergence criterion met
 Total energy in the final basis set =     -218.1907419553

                    Orbital Energies (a.u.)
 --------------------------------------------------------------

 Alpha MOs
 -- Occupied --
-24.690 -10.177 -10.177 -10.170  -1.187  -0.769  -0.682  -0.582
 -0.518  -0.448  -0.439  -0.395  -0.392  -0.373  -0.370  -0.348
 -0.169  -0.141

 Beta MOs
 -- Occupied --
-24.687 -10.170 -10.165 -10.164  -1.181  -0.740  -0.661  -0.558
 -0.497  -0.439  -0.424  -0.386  -0.383  -0.361  -0.358  -0.338

          Ground-State Mulliken Net Atomic Charges

     Atom                 Charge (a.u.)    Spin (a.u.)
  --------------------------------------------------------
      1 F                    -0.248876      -0.049321
      2 C                    -0.089761       0.979271
      3 C                    -0.183913       0.820839
      4 C                    -0.321473      -0.061260
      5 H                     0.086228      -0.008845
      6 H                     0.098119       0.004125
      7 H                     0.099349       0.008009
      8 H                     0.098728       0.010496
      9 H                     0.104309       0.050897
     10 H                     0.253747       0.202887
     11 H                     0.103543       0.042900
  --------------------------------------------------------
  Sum of atomic charges =     0.000000

                    Cartesian Multipole Moments
 -----------------------------------------------------------------
    Charge (ESU x 10^10)
                 0.0000
    Dipole Moment (Debye)
         X       0.0253      Y       1.3427      Z      -0.4348
       Tot       1.4116
    Quadrupole Moments (Debye-Ang)
        XX     -25.4481     XY       0.4104     YY     -21.6280
        XZ      -0.2337     YZ      -1.8077     ZZ     -25.0229

 Final energy is   -218.190741955271
 **  OPTIMIZATION CONVERGED  **
 Total job time:  38.92s(wall), 402.11s(cpu)
        *  Thank you very much for using Q-Chem.  Have a nice day.  *
