 Q-Chem 5.1, Q-Chem, Inc., Pleasanton, CA (2018)
 Q-Chem 5.1.1 for Intel X86 EM64T Linux

User input:
--------------------------------------------------------------

$comment
potential surface scanner
$end

$rem
JOBTYPE  PES_SCAN
UNRESTRICTED TRUE
SYM_IGNORE  TRUE
GEOM_OPT_MAX_CYCLES 400
SCF_MAX_CYCLES 400
METHOD   B3LYP
BASIS   6-31G**
PDB_PRINT 2
SCF_CONVERGENCE 6
THRESH 14
SCF_PRINT 1
$end
$molecule
0 1
F 1.271492 1.768375 0.290586
C -0.714293 -0.795553 0.234418
C 0.584480 -0.963114 -0.400052
C -1.390345 0.551827 -0.108600
H -0.642516 -0.953996 1.313697
H -1.345344 -1.619350 -0.165827
H 1.429331 -1.415050 0.110135
H 0.715877 -0.715266 -1.449555
H -2.341798 0.634394 0.423357
H -0.673443 1.333560 0.177947
H -1.586541 0.629372 -1.182904
$end
$scan
stre 1 3 3.000000 3.001000 0.100000
$end
--------------------------------------------------------------

   14    -218.2174094626      8.42e-07  Convergence criterion met
 Total energy in the final basis set =     -218.2174094626
   21    -218.2116139949      1.32e-07  Convergence criterion met
 Total energy in the final basis set =     -218.2116139949
   21    -218.2115593462      6.55e-08  Convergence criterion met
 Total energy in the final basis set =     -218.2115593462
   21    -218.2115747422      1.20e-07  Convergence criterion met
 Total energy in the final basis set =     -218.2115747422
   21    -218.2115889152      9.86e-08  Convergence criterion met
 Total energy in the final basis set =     -218.2115889152
   21    -218.2115959151      6.44e-08  Convergence criterion met
 Total energy in the final basis set =     -218.2115959151
   21    -218.2115981142      7.27e-08  Convergence criterion met
 Total energy in the final basis set =     -218.2115981142
   21    -218.2115993762      6.52e-08  Convergence criterion met
 Total energy in the final basis set =     -218.2115993762
   21    -218.2116012577      7.58e-08  Convergence criterion met
 Total energy in the final basis set =     -218.2116012577
   21    -218.2116044048      1.55e-07  Convergence criterion met
 Total energy in the final basis set =     -218.2116044048
   21    -218.2116076110      2.31e-07  Convergence criterion met
 Total energy in the final basis set =     -218.2116076110
   21    -218.2116091934      2.59e-07  Convergence criterion met
 Total energy in the final basis set =     -218.2116091934

             Standard Nuclear Orientation (Angstroms)
    I     Atom           X                Y                Z
 ----------------------------------------------------------------
    1      F       1.2244843011     1.8572719968     0.2806080824
    2      C      -0.7132367292    -0.8065192914     0.2333480783
    3      C       0.5792554374    -0.9915743194    -0.4033163854
    4      C      -1.3730431213     0.5553237120    -0.1001544769
    5      H      -0.6494275607    -0.9769300495     1.3108895284
    6      H      -1.3624416109    -1.6081233073    -0.1831308807
    7      H       1.4311943518    -1.4207892491     0.1148398524
    8      H       0.7054673796    -0.7635012231    -1.4581267254
    9      H      -2.3286947908     0.6371600535     0.4245802453
   10      H      -0.6472961916     1.3272504395     0.1988124600
   11      H      -1.5593614653     0.6456302381    -1.1751477785
 ----------------------------------------------------------------

   21    -218.2116095461      2.54e-07  Convergence criterion met
 Total energy in the final basis set =     -218.2116095461

                    Orbital Energies (a.u.)
 --------------------------------------------------------------

 Alpha MOs
 -- Occupied --
-24.531 -10.306 -10.237 -10.187  -0.959  -0.838  -0.711  -0.623
 -0.520  -0.479  -0.452  -0.393  -0.380  -0.367  -0.236  -0.233
 -0.232

 Beta MOs
 -- Occupied --
-24.531 -10.306 -10.237 -10.187  -0.959  -0.838  -0.711  -0.623
 -0.520  -0.479  -0.452  -0.393  -0.380  -0.367  -0.236  -0.233
 -0.232

          Ground-State Mulliken Net Atomic Charges

     Atom                 Charge (a.u.)    Spin (a.u.)
  --------------------------------------------------------
      1 F                    -0.446274      -0.000000
      2 C                    -0.235118      -0.000000
      3 C                    -0.068009       0.000000
      4 C                    -0.332150       0.000000
      5 H                     0.150005       0.000000
      6 H                     0.154696       0.000000
      7 H                     0.181706      -0.000000
      8 H                     0.180716      -0.000000
      9 H                     0.106014       0.000000
     10 H                     0.202698       0.000000
     11 H                     0.105714      -0.000000
  --------------------------------------------------------
  Sum of atomic charges =    -0.000000

                    Cartesian Multipole Moments
 -----------------------------------------------------------------
    Charge (ESU x 10^10)
                 0.0000
    Dipole Moment (Debye)
         X      -2.2373      Y      -5.9062      Z      -1.1561
       Tot       6.4207
    Quadrupole Moments (Debye-Ang)
        XX     -26.0711     XY      -5.9681     YY     -29.5711
        XZ      -1.2837     YZ      -0.6352     ZZ     -23.4325

 Final energy is   -218.211609546101
 **  OPTIMIZATION CONVERGED  **
 Total job time:  75.37s(wall), 822.99s(cpu)
        *  Thank you very much for using Q-Chem.  Have a nice day.  *
