 Q-Chem 5.1, Q-Chem, Inc., Pleasanton, CA (2018)
 Q-Chem 5.1.1 for Intel X86 EM64T Linux

User input:
--------------------------------------------------------------

$comment
potential surface scanner
$end

$rem
JOBTYPE  PES_SCAN
UNRESTRICTED TRUE
SYM_IGNORE  TRUE
GEOM_OPT_MAX_CYCLES 400
SCF_MAX_CYCLES 400
METHOD   B3LYP
BASIS   6-31G**
PDB_PRINT 2
SCF_CONVERGENCE 6
THRESH 14
SCF_PRINT 1
$end
$molecule
0 1
F 1.357600 0.611300 0.151500
C -0.630200 -0.630500 0.280500
C 0.769500 -0.528800 -0.298100
C -1.496900 0.548000 -0.133900
H -0.568500 -0.651900 1.374300
H -1.098000 -1.565100 -0.046700
H 1.386100 -1.374200 0.020100
H 0.753300 -0.494500 -1.391400
H -2.499800 0.449100 0.293300
H -1.071200 1.493600 0.216700
H -1.595000 0.598200 -1.223100
$end
$scan
stre 1 3 1.300000 1.301000 0.100000
$end
--------------------------------------------------------------

    9    -218.3794177513      2.24e-07  Convergence criterion met
 Total energy in the final basis set =     -218.3794177513
    9    -218.3741315568      2.31e-07  Convergence criterion met
 Total energy in the final basis set =     -218.3741315568
    9    -218.3743973507      2.36e-07  Convergence criterion met
 Total energy in the final basis set =     -218.3743973507
    9    -218.3744257933      2.36e-07  Convergence criterion met
 Total energy in the final basis set =     -218.3744257933
    9    -218.3744313271      2.36e-07  Convergence criterion met
 Total energy in the final basis set =     -218.3744313271
    9    -218.3744405919      2.37e-07  Convergence criterion met
 Total energy in the final basis set =     -218.3744405919
    9    -218.3744503674      2.37e-07  Convergence criterion met
 Total energy in the final basis set =     -218.3744503674
    9    -218.3744596418      2.37e-07  Convergence criterion met
 Total energy in the final basis set =     -218.3744596418
    9    -218.3744633580      2.37e-07  Convergence criterion met
 Total energy in the final basis set =     -218.3744633580

             Standard Nuclear Orientation (Angstroms)
    I     Atom           X                Y                Z
 ----------------------------------------------------------------
    1      F       1.3703706152     0.5874232160     0.1423800335
    2      C      -0.6283514447    -0.6211883458     0.2750028975
    3      C       0.7944089701    -0.5013155415    -0.2734518389
    4      C      -1.5179242197     0.5563186609    -0.1328974165
    5      H      -0.5750365575    -0.6876626328     1.3692992544
    6      H      -1.0541928969    -1.5687902886    -0.0780042224
    7      H       1.3838969002    -1.3814537922     0.0340683724
    8      H       0.7624717918    -0.5102398284    -1.3774242191
    9      H      -2.5106675042     0.4831361909     0.3209713820
   10      H      -1.0694959797     1.5025616076     0.1836771311
   11      H      -1.6485796746     0.5964107539    -1.2204213740
 ----------------------------------------------------------------

    9    -218.3744642701      2.37e-07  Convergence criterion met
 Total energy in the final basis set =     -218.3744642701

                    Orbital Energies (a.u.)
 --------------------------------------------------------------

 Alpha MOs
 -- Occupied --
-24.679 -10.250 -10.184 -10.175  -1.217  -0.779  -0.681  -0.595
 -0.509  -0.498  -0.467  -0.428  -0.390  -0.368  -0.345  -0.314
 -0.311

 Beta MOs
 -- Occupied --
-24.679 -10.250 -10.184 -10.175  -1.217  -0.779  -0.681  -0.595
 -0.509  -0.498  -0.467  -0.428  -0.390  -0.368  -0.345  -0.314
 -0.311

          Ground-State Mulliken Net Atomic Charges

     Atom                 Charge (a.u.)    Spin (a.u.)
  --------------------------------------------------------
      1 F                    -0.272306      -0.000000
      2 C                    -0.218032       0.000000
      3 C                     0.148991      -0.000000
      4 C                    -0.319466      -0.000000
      5 H                     0.104934       0.000000
      6 H                     0.092984      -0.000000
      7 H                     0.069864       0.000000
      8 H                     0.067955       0.000000
      9 H                     0.104193      -0.000000
     10 H                     0.118583       0.000000
     11 H                     0.102301      -0.000000
  --------------------------------------------------------
  Sum of atomic charges =    -0.000000

                    Cartesian Multipole Moments
 -----------------------------------------------------------------
    Charge (ESU x 10^10)
                -0.0000
    Dipole Moment (Debye)
         X      -0.6866      Y      -0.9722      Z      -0.2816
       Tot       1.2230
    Quadrupole Moments (Debye-Ang)
        XX     -26.3521     XY      -1.1306     YY     -25.2240
        XZ      -0.4059     YZ       0.0533     ZZ     -24.8125

 Final energy is   -218.374464270129
 **  OPTIMIZATION CONVERGED  **
 Total job time:  27.49s(wall), 314.75s(cpu)
        *  Thank you very much for using Q-Chem.  Have a nice day.  *
