 Q-Chem 5.1, Q-Chem, Inc., Pleasanton, CA (2018)
 Q-Chem 5.1.1 for Intel X86 EM64T Linux

User input:
--------------------------------------------------------------

$comment
potential surface scanner
$end

$rem
JOBTYPE  PES_SCAN
UNRESTRICTED TRUE
SYM_IGNORE  TRUE
GEOM_OPT_MAX_CYCLES 400
SCF_MAX_CYCLES 400
METHOD   B3LYP
BASIS   6-31G**
PDB_PRINT 2
SCF_CONVERGENCE 6
THRESH 14
SCF_PRINT 1
$end
$molecule
0 3
F 0.630394 1.073137 -0.669020
C -0.567126 -0.995144 0.228703
C 0.775994 -0.533782 -0.133659
C -1.780634 -0.122073 0.149842
H -0.684010 -2.009539 0.612769
H -2.686564 -0.669175 0.425677
H 1.241050 -0.986946 -1.011886
H 1.494891 -0.399002 0.677962
H -1.700459 0.752032 0.814942
H 0.506169 2.059596 -0.990981
H -1.922809 0.286098 -0.861153
$end
$scan
stre 1 3 1.600000 1.601000 0.100000
$end
--------------------------------------------------------------

   10    -218.1758412884      7.31e-07  Convergence criterion met
 Total energy in the final basis set =     -218.1758412884
   10    -218.1614444892      6.10e-07  Convergence criterion met
 Total energy in the final basis set =     -218.1614444892
   10    -218.1622570782      6.05e-07  Convergence criterion met
 Total energy in the final basis set =     -218.1622570782
   10    -218.1690698638      5.89e-07  Convergence criterion met
 Total energy in the final basis set =     -218.1690698638
   10    -218.1757265239      5.50e-07  Convergence criterion met
 Total energy in the final basis set =     -218.1757265239
   10    -218.1819620504      5.92e-07  Convergence criterion met
 Total energy in the final basis set =     -218.1819620504
   10    -218.1869546892      5.13e-07  Convergence criterion met
 Total energy in the final basis set =     -218.1869546892
   10    -218.1904210182      4.90e-07  Convergence criterion met
   11    -218.2010714209      4.30e-07  Convergence criterion met
 Total energy in the final basis set =     -218.2010714209
   11    -218.2011921564      4.33e-07  Convergence criterion met
 Total energy in the final basis set =     -218.2011921564
   11    -218.2012812859      4.35e-07  Convergence criterion met
 Total energy in the final basis set =     -218.2012812859
   11    -218.2013321669      4.36e-07  Convergence criterion met
 Total energy in the final basis set =     -218.2013321669
   11    -218.2013522963      4.38e-07  Convergence criterion met
 Total energy in the final basis set =     -218.2013522963
   11    -218.2013585097      4.38e-07  Convergence criterion met
 Total energy in the final basis set =     -218.2013585097

             Standard Nuclear Orientation (Angstroms)
    I     Atom           X                Y                Z
 ----------------------------------------------------------------
    1      F       0.8022201977     0.8023319164    -0.8135799403
    2      C      -0.6526826173    -1.0404094137    -0.0808881566
    3      C       0.6968373498    -0.5219085087     0.0782057506
    4      C      -1.8196986898    -0.3418105000     0.5247542130
    5      H      -0.8313694050    -1.7811982322    -0.8560381229
    6      H      -2.7047479366    -0.9826500672     0.5749985622
    7      H       1.4883231469    -1.1598955580    -0.3113828449
    8      H       0.9276381438    -0.1475020110     1.0766978300
    9      H      -1.5925725415     0.0262977922     1.5322616350
   10      H       1.0773762222     3.0606132405    -2.4041986765
   11      H      -2.0844278703     0.5413333417    -0.0776342496
 ----------------------------------------------------------------

   11    -218.2013590434      4.39e-07  Convergence criterion met
 Total energy in the final basis set =     -218.2013590434

                    Orbital Energies (a.u.)
 --------------------------------------------------------------

 Alpha MOs
 -- Occupied --
-24.629 -10.257 -10.216 -10.192  -1.095  -0.801  -0.700  -0.585
 -0.486  -0.450  -0.436  -0.409  -0.390  -0.376  -0.322  -0.316
 -0.292  -0.220

 Beta MOs
 -- Occupied --
-24.624 -10.257 -10.203 -10.193  -1.083  -0.782  -0.697  -0.569
 -0.482  -0.439  -0.418  -0.396  -0.386  -0.371  -0.315  -0.311

          Ground-State Mulliken Net Atomic Charges

     Atom                 Charge (a.u.)    Spin (a.u.)
  --------------------------------------------------------
      1 F                    -0.369321       0.123917
      2 C                    -0.066044       0.928258
      3 C                     0.059023      -0.034913
      4 C                    -0.344112      -0.069443
      5 H                     0.109995      -0.040542
      6 H                     0.117477       0.010750
      7 H                     0.116345       0.000712
      8 H                     0.113926       0.010157
      9 H                     0.117206       0.015938
     10 H                    -0.002443       0.997301
     11 H                     0.147948       0.057866
  --------------------------------------------------------
  Sum of atomic charges =     0.000000

                    Cartesian Multipole Moments
 -----------------------------------------------------------------
    Charge (ESU x 10^10)
                 0.0000
    Dipole Moment (Debye)
         X      -0.9193      Y      -1.8940      Z       1.2715
       Tot       2.4595
    Quadrupole Moments (Debye-Ang)
        XX     -24.1404     XY      -1.4468     YY     -26.0493
        XZ       1.1322     YZ       1.8919     ZZ     -26.1270

 Final energy is   -218.201359043398
 **  OPTIMIZATION CONVERGED  **
 Total job time:  128.20s(wall), 1481.43s(cpu)
        *  Thank you very much for using Q-Chem.  Have a nice day.  *
