 Q-Chem 5.1, Q-Chem, Inc., Pleasanton, CA (2018)
 Q-Chem 5.1.1 for Intel X86 EM64T Linux

User input:
--------------------------------------------------------------

$comment
potential surface scanner
$end

$rem
JOBTYPE  PES_SCAN
UNRESTRICTED TRUE
SYM_IGNORE  TRUE
GEOM_OPT_MAX_CYCLES 400
SCF_MAX_CYCLES 400
METHOD   B3LYP
BASIS   6-31G**
PDB_PRINT 2
SCF_CONVERGENCE 6
THRESH 14
SCF_PRINT 1
$end
$molecule
0 1
F 1.442746 0.928134 0.298887
C -0.670940 -0.675003 0.261314
C 0.682132 -0.687382 -0.350400
C -1.500767 0.544436 -0.145750
H -0.564902 -0.730269 1.349282
H -1.166298 -1.610950 -0.049416
H 1.419212 -1.384694 0.035385
H 0.762797 -0.480473 -1.413954
H -2.470844 0.546027 0.358558
H -0.946412 1.443933 0.125664
H -1.679825 0.561442 -1.226365
$end
$scan
stre 1 3 2.000000 2.001000 0.100000
$end
--------------------------------------------------------------

    9    -218.3212701014      6.18e-07  Convergence criterion met
 Total energy in the final basis set =     -218.3212701014
   10    -218.3069649383      3.02e-07  Convergence criterion met
 Total energy in the final basis set =     -218.3069649383
   10    -218.3054925855      2.20e-07  Convergence criterion met
 Total energy in the final basis set =     -218.3054925855
   10    -218.3066545428      2.49e-07  Convergence criterion met
 Total energy in the final basis set =     -218.3066545428
   10    -218.3067801712      2.70e-07  Convergence criterion met
 Total energy in the final basis set =     -218.3067801712
   10    -218.3067837953      2.69e-07  Convergence criterion met
 Total energy in the final basis set =     -218.3067837953

             Standard Nuclear Orientation (Angstroms)
    I     Atom           X                Y                Z
 ----------------------------------------------------------------
    1      F       1.4485905821     0.9941171342     0.3191747116
    2      C      -0.6770883664    -0.6849914243     0.2584390801
    3      C       0.6668039331    -0.7162090681    -0.3617026045
    4      C      -1.4958269116     0.5430366346    -0.1467718465
    5      H      -0.5651348922    -0.7419141961     1.3456103573
    6      H      -1.1840393170    -1.6173867437    -0.0486705754
    7      H       1.4219178783    -1.3851546509     0.0376333316
    8      H       0.7595995926    -0.4851696902    -1.4186712660
    9      H      -2.4621486229     0.5568557129     0.3644111280
   10      H      -0.9239064379     1.4327910377     0.1199109628
   11      H      -1.6818684382     0.5592262540    -1.2261582791
 ----------------------------------------------------------------

   10    -218.3067845895      2.68e-07  Convergence criterion met
 Total energy in the final basis set =     -218.3067845895

                    Orbital Energies (a.u.)
 --------------------------------------------------------------

 Alpha MOs
 -- Occupied --
-24.587 -10.284 -10.214 -10.182  -1.016  -0.812  -0.698  -0.606
 -0.489  -0.466  -0.436  -0.378  -0.370  -0.362  -0.314  -0.282
 -0.281

 Beta MOs
 -- Occupied --
-24.587 -10.284 -10.214 -10.182  -1.016  -0.812  -0.698  -0.606
 -0.489  -0.466  -0.436  -0.378  -0.370  -0.362  -0.314  -0.282
 -0.281

          Ground-State Mulliken Net Atomic Charges

     Atom                 Charge (a.u.)    Spin (a.u.)
  --------------------------------------------------------
      1 F                    -0.401873       0.000000
      2 C                    -0.204856       0.000000
      3 C                    -0.005749      -0.000000
      4 C                    -0.322451       0.000000
      5 H                     0.141862       0.000000
      6 H                     0.117744       0.000000
      7 H                     0.153830       0.000000
      8 H                     0.154845      -0.000000
      9 H                     0.105804       0.000000
     10 H                     0.158682      -0.000000
     11 H                     0.102162      -0.000000
  --------------------------------------------------------
  Sum of atomic charges =     0.000000

                    Cartesian Multipole Moments
 -----------------------------------------------------------------
    Charge (ESU x 10^10)
                -0.0000
    Dipole Moment (Debye)
         X      -1.9522      Y      -3.1490      Z      -1.0389
       Tot       3.8480
    Quadrupole Moments (Debye-Ang)
        XX     -27.4129     XY      -3.6827     YY     -25.0103
        XZ      -1.4809     YZ      -0.2486     ZZ     -23.8422

 Final energy is   -218.306784589457
 **  OPTIMIZATION CONVERGED  **
 Total job time:  19.71s(wall), 227.01s(cpu)
        *  Thank you very much for using Q-Chem.  Have a nice day.  *
