 Q-Chem 5.1, Q-Chem, Inc., Pleasanton, CA (2018)
 Q-Chem 5.1.1 for Intel X86 EM64T Linux

User input:
--------------------------------------------------------------

$comment
potential surface scanner
$end

$rem
JOBTYPE  PES_SCAN
UNRESTRICTED TRUE
SYM_IGNORE  TRUE
GEOM_OPT_MAX_CYCLES 400
SCF_MAX_CYCLES 400
METHOD   B3LYP
BASIS   6-31G**
PDB_PRINT 2
SCF_CONVERGENCE 6
THRESH 14
SCF_PRINT 1
$end
$molecule
0 1
F 0.223292 2.180599 0.806247
C -0.412925 -0.737301 0.248141
C 0.688038 -1.055927 -0.442317
C -1.652374 -0.111427 -0.325065
H -0.432339 -0.936301 1.320482
H -2.539221 -0.713051 -0.095646
H 1.552479 -1.506102 0.036708
H 0.754495 -0.889527 -1.515168
H -1.803446 0.880494 0.113928
H 0.509615 1.344094 0.506825
H -1.580718 -0.000349 -1.410931
$end
$scan
stre 1 3 3.600000 3.601000 0.100000
$end
--------------------------------------------------------------

    9    -218.3541301291      2.77e-07  Convergence criterion met
 Total energy in the final basis set =     -218.3541301291
    9    -218.3527186554      3.24e-07  Convergence criterion met
 Total energy in the final basis set =     -218.3527186554
    9    -218.3533676269      3.22e-07  Convergence criterion met
 Total energy in the final basis set =     -218.3533676269
    9    -218.3536749651      3.34e-07  Convergence criterion met
 Total energy in the final basis set =     -218.3536749651
    9    -218.3536819164      3.33e-07  Convergence criterion met
 Total energy in the final basis set =     -218.3536819164
    9    -218.3536869021      3.32e-07  Convergence criterion met
 Total energy in the final basis set =     -218.3536869021
    9    -218.3536903164      3.33e-07  Convergence criterion met
 Total energy in the final basis set =     -218.3536903164
    9    -218.3536916803      3.33e-07  Convergence criterion met
    9    -218.3536995849      3.31e-07  Convergence criterion met
 Total energy in the final basis set =     -218.3536995849
    9    -218.3537008279      3.31e-07  Convergence criterion met
 Total energy in the final basis set =     -218.3537008279
    9    -218.3537021091      3.32e-07  Convergence criterion met
 Total energy in the final basis set =     -218.3537021091
    9    -218.3537038782      3.34e-07  Convergence criterion met
 Total energy in the final basis set =     -218.3537038782
    9    -218.3537058830      3.38e-07  Convergence criterion met
 Total energy in the final basis set =     -218.3537058830
    9    -218.3537071908      3.42e-07  Convergence criterion met
 Total energy in the final basis set =     -218.3537071908

             Standard Nuclear Orientation (Angstroms)
    I     Atom           X                Y                Z
 ----------------------------------------------------------------
    1      F       0.1731815750     2.2049340902     0.8922508798
    2      C      -0.3964601801    -0.7284988449     0.2373601367
    3      C       0.6849735343    -1.0912667472    -0.4616800774
    4      C      -1.6393864185    -0.1085699908    -0.3355608559
    5      H      -0.3990277968    -0.8895220309     1.3162899153
    6      H      -2.5274009902    -0.6968687623    -0.0772530773
    7      H       1.5517320252    -1.5368025622     0.0174920799
    8      H       0.7331796485    -0.9656399740    -1.5410142928
    9      H      -1.7787785226     0.8954591274     0.0793504602
   10      H       0.4875030315     1.4001969375     0.5410194990
   11      H      -1.5826199062    -0.0282192429    -1.4250506674
 ----------------------------------------------------------------

    9    -218.3537076008      3.44e-07  Convergence criterion met
 Total energy in the final basis set =     -218.3537076008

                    Orbital Energies (a.u.)
 --------------------------------------------------------------

 Alpha MOs
 -- Occupied --
-24.653 -10.207 -10.195 -10.188  -1.156  -0.797  -0.694  -0.566
 -0.507  -0.476  -0.431  -0.421  -0.380  -0.367  -0.364  -0.357
 -0.272

 Beta MOs
 -- Occupied --
-24.653 -10.207 -10.195 -10.188  -1.156  -0.797  -0.694  -0.566
 -0.507  -0.476  -0.431  -0.421  -0.380  -0.367  -0.364  -0.357
 -0.272

          Ground-State Mulliken Net Atomic Charges

     Atom                 Charge (a.u.)    Spin (a.u.)
  --------------------------------------------------------
      1 F                    -0.367321      -0.000000
      2 C                    -0.072011       0.000000
      3 C                    -0.243506       0.000000
      4 C                    -0.355842       0.000000
      5 H                     0.104673       0.000000
      6 H                     0.121241      -0.000000
      7 H                     0.108190      -0.000000
      8 H                     0.104506      -0.000000
      9 H                     0.138808       0.000000
     10 H                     0.348425      -0.000000
     11 H                     0.112838      -0.000000
  --------------------------------------------------------
  Sum of atomic charges =    -0.000000

                    Cartesian Multipole Moments
 -----------------------------------------------------------------
    Charge (ESU x 10^10)
                -0.0000
    Dipole Moment (Debye)
         X       0.1095      Y      -1.8126      Z      -0.6828
       Tot       1.9400
    Quadrupole Moments (Debye-Ang)
        XX     -23.4331     XY      -0.4010     YY     -31.4419
        XZ      -0.1562     YZ      -2.5881     ZZ     -24.9335

 Final energy is   -218.353707600781
 **  OPTIMIZATION CONVERGED  **
 Total job time:  54.10s(wall), 608.36s(cpu)
        *  Thank you very much for using Q-Chem.  Have a nice day.  *
