 Q-Chem 5.1, Q-Chem, Inc., Pleasanton, CA (2018)
 Q-Chem 5.1.1 for Intel X86 EM64T Linux

User input:
--------------------------------------------------------------

$comment
potential surface scanner
$end

$rem
JOBTYPE  PES_SCAN
UNRESTRICTED TRUE
SYM_IGNORE  TRUE
GEOM_OPT_MAX_CYCLES 400
SCF_MAX_CYCLES 400
METHOD   B3LYP
BASIS   6-31G**
PDB_PRINT 2
SCF_CONVERGENCE 6
THRESH 14
SCF_PRINT 1
$end
$molecule
0 1
F 1.406541 0.690324 0.198228
C -0.641955 -0.636012 0.270992
C 0.754753 -0.565801 -0.299087
C -1.515129 0.552479 -0.137776
H -0.569897 -0.696385 1.363021
H -1.091277 -1.580508 -0.066109
H 1.396798 -1.385546 0.032142
H 0.767149 -0.492531 -1.390445
H -2.500727 0.499560 0.333622
H -1.036595 1.487829 0.161867
H -1.662759 0.581790 -1.223254
$end
$scan
stre 1 3 1.600000 1.601000 0.100000
$end
--------------------------------------------------------------

    9    -218.3758896272      2.51e-07  Convergence criterion met
 Total energy in the final basis set =     -218.3758896272
    9    -218.3648271288      2.97e-07  Convergence criterion met
 Total energy in the final basis set =     -218.3648271288
    9    -218.3648631911      2.93e-07  Convergence criterion met
 Total energy in the final basis set =     -218.3648631911
    9    -218.3649460378      2.90e-07  Convergence criterion met
 Total energy in the final basis set =     -218.3649460378
    9    -218.3649482767      2.91e-07  Convergence criterion met
 Total energy in the final basis set =     -218.3649482767

             Standard Nuclear Orientation (Angstroms)
    I     Atom           X                Y                Z
 ----------------------------------------------------------------
    1      F       1.4225803586     0.7444453227     0.2250035595
    2      C      -0.6490886807    -0.6441321678     0.2691540829
    3      C       0.7357253937    -0.5970566703    -0.3122135166
    4      C      -1.5132147325     0.5504632374    -0.1400931294
    5      H      -0.5677728022    -0.7018512967     1.3600974720
    6      H      -1.1094824749    -1.5872511927    -0.0602448242
    7      H       1.4029590329    -1.3871121202     0.0316188060
    8      H       0.7677020499    -0.4858930607    -1.3969853301
    9      H      -2.4955495966     0.5087671870     0.3389308579
   10      H      -1.0188335792     1.4791595254     0.1524915057
   11      H      -1.6681229689     0.5756602359    -1.2245584838
 ----------------------------------------------------------------

    9    -218.3649485764      2.91e-07  Convergence criterion met
 Total energy in the final basis set =     -218.3649485764

                    Orbital Energies (a.u.)
 --------------------------------------------------------------

 Alpha MOs
 -- Occupied --
-24.634 -10.264 -10.198 -10.179  -1.094  -0.795  -0.688  -0.595
 -0.477  -0.466  -0.428  -0.404  -0.370  -0.361  -0.347  -0.319
 -0.318

 Beta MOs
 -- Occupied --
-24.634 -10.264 -10.198 -10.179  -1.094  -0.795  -0.688  -0.595
 -0.477  -0.466  -0.428  -0.404  -0.370  -0.361  -0.347  -0.319
 -0.318

          Ground-State Mulliken Net Atomic Charges

     Atom                 Charge (a.u.)    Spin (a.u.)
  --------------------------------------------------------
      1 F                    -0.373609      -0.000000
      2 C                    -0.202503      -0.000000
      3 C                     0.092110      -0.000000
      4 C                    -0.319450      -0.000000
      5 H                     0.122156       0.000000
      6 H                     0.102004      -0.000000
      7 H                     0.118176      -0.000000
      8 H                     0.117947       0.000000
      9 H                     0.104553       0.000000
     10 H                     0.136469       0.000000
     11 H                     0.102147       0.000000
  --------------------------------------------------------
  Sum of atomic charges =     0.000000

                    Cartesian Multipole Moments
 -----------------------------------------------------------------
    Charge (ESU x 10^10)
                 0.0000
    Dipole Moment (Debye)
         X      -1.3164      Y      -1.9508      Z      -0.6476
       Tot       2.4408
    Quadrupole Moments (Debye-Ang)
        XX     -26.9723     XY      -2.3278     YY     -24.8673
        XZ      -0.9133     YZ      -0.0062     ZZ     -24.2732

 Final energy is   -218.364948576403
 **  OPTIMIZATION CONVERGED  **
 Total job time:  17.77s(wall), 193.38s(cpu)
        *  Thank you very much for using Q-Chem.  Have a nice day.  *
