 Q-Chem 5.1, Q-Chem, Inc., Pleasanton, CA (2018)
 Q-Chem 5.1.1 for Intel X86 EM64T Linux

User input:
--------------------------------------------------------------

$comment
potential surface scanner
$end

$rem
JOBTYPE  PES_SCAN
UNRESTRICTED TRUE
SYM_IGNORE  TRUE
GEOM_OPT_MAX_CYCLES 400
SCF_MAX_CYCLES 400
METHOD   B3LYP
BASIS   6-31G**
PDB_PRINT 2
SCF_CONVERGENCE 6
THRESH 14
SCF_PRINT 1
$end
$molecule
0 1
F 0.343180 2.071414 0.609102
C -0.453566 -0.754996 0.270719
C 0.696104 -0.949525 -0.385787
C -1.684264 -0.118017 -0.304512
H -0.514066 -1.051940 1.318151
H -2.570825 -0.732752 -0.112774
H 1.558105 -1.407487 0.090721
H 0.800889 -0.680877 -1.434719
H -1.845505 0.858066 0.165444
H 0.567923 1.185711 0.410412
H -1.591078 0.035604 -1.383554
$end
$scan
stre 1 3 3.300000 3.301000 0.100000
$end
--------------------------------------------------------------

    9    -218.3547362126      2.74e-07  Convergence criterion met
 Total energy in the final basis set =     -218.3547362126
    9    -218.3517896371      2.77e-07  Convergence criterion met
 Total energy in the final basis set =     -218.3517896371
    9    -218.3535140045      2.74e-07  Convergence criterion met
 Total energy in the final basis set =     -218.3535140045
    9    -218.3545694513      2.64e-07  Convergence criterion met
 Total energy in the final basis set =     -218.3545694513
    9    -218.3546545375      2.67e-07  Convergence criterion met
 Total energy in the final basis set =     -218.3546545375
    9    -218.3546584123      2.66e-07  Convergence criterion met
 Total energy in the final basis set =     -218.3546584123
    9    -218.3546625018      2.66e-07  Convergence criterion met
 Total energy in the final basis set =     -218.3546625018
    9    -218.3546686452      2.66e-07  Convergence criterion met
 Total energy in the final basis set =     -218.3546686452
    9    -218.3546742853      2.67e-07  Convergence criterion met
 Total energy in the final basis set =     -218.3546742853
    9    -218.3546787053      2.67e-07  Convergence criterion met
 Total energy in the final basis set =     -218.3546787053
    9    -218.3546820382      2.67e-07  Convergence criterion met
 Total energy in the final basis set =     -218.3546820382
    9    -218.3546845353      2.67e-07  Convergence criterion met
 Total energy in the final basis set =     -218.3546845353
    9    -218.3546860864      2.67e-07  Convergence criterion met
 Total energy in the final basis set =     -218.3546860864

             Standard Nuclear Orientation (Angstroms)
    I     Atom           X                Y                Z
 ----------------------------------------------------------------
    1      F       0.3138957781     2.1081601173     0.6723860375
    2      C      -0.4384895338    -0.7408538150     0.2650372139
    3      C       0.6922792447    -0.9872790438    -0.4070024169
    4      C      -1.6754620796    -0.1151655491    -0.3111533096
    5      H      -0.4811214040    -0.9955346159     1.3247197338
    6      H      -2.5559477626    -0.7397817362    -0.1232625359
    7      H       1.5553812754    -1.4382792369     0.0736640074
    8      H       0.7830332081    -0.7646201593    -1.4677873419
    9      H      -1.8516912377     0.8579930141     0.1592641894
   10      H       0.5475969993     1.2316425189     0.4473657876
   11      H      -1.5825774879     0.0389195058    -1.3900283652
 ----------------------------------------------------------------

    9    -218.3546869292      2.67e-07  Convergence criterion met
 Total energy in the final basis set =     -218.3546869292

                    Orbital Energies (a.u.)
 --------------------------------------------------------------

 Alpha MOs
 -- Occupied --
-24.643 -10.211 -10.198 -10.190  -1.146  -0.801  -0.697  -0.569
 -0.500  -0.479  -0.434  -0.422  -0.381  -0.360  -0.358  -0.357
 -0.277

 Beta MOs
 -- Occupied --
-24.643 -10.211 -10.198 -10.190  -1.146  -0.801  -0.697  -0.569
 -0.500  -0.479  -0.434  -0.422  -0.381  -0.360  -0.358  -0.357
 -0.277

          Ground-State Mulliken Net Atomic Charges

     Atom                 Charge (a.u.)    Spin (a.u.)
  --------------------------------------------------------
      1 F                    -0.379217       0.000000
      2 C                    -0.066576      -0.000000
      3 C                    -0.255473      -0.000000
      4 C                    -0.351531       0.000000
      5 H                     0.106283       0.000000
      6 H                     0.120347      -0.000000
      7 H                     0.112314      -0.000000
      8 H                     0.110050       0.000000
      9 H                     0.144025      -0.000000
     10 H                     0.344221      -0.000000
     11 H                     0.115557       0.000000
  --------------------------------------------------------
  Sum of atomic charges =    -0.000000

                    Cartesian Multipole Moments
 -----------------------------------------------------------------
    Charge (ESU x 10^10)
                 0.0000
    Dipole Moment (Debye)
         X      -0.1596      Y      -2.0956      Z      -0.4769
       Tot       2.1551
    Quadrupole Moments (Debye-Ang)
        XX     -23.2397     XY      -0.9089     YY     -31.5300
        XZ      -0.3721     YZ      -2.2618     ZZ     -24.5089

 Final energy is   -218.354686929173
 **  OPTIMIZATION CONVERGED  **
 Total job time:  42.60s(wall), 468.07s(cpu)
        *  Thank you very much for using Q-Chem.  Have a nice day.  *
