 Q-Chem 5.1, Q-Chem, Inc., Pleasanton, CA (2018)
 Q-Chem 5.1.1 for Intel X86 EM64T Linux

User input:
--------------------------------------------------------------

$comment
potential surface scanner
$end

$rem
JOBTYPE  PES_SCAN
UNRESTRICTED TRUE
SYM_IGNORE  TRUE
GEOM_OPT_MAX_CYCLES 400
SCF_MAX_CYCLES 400
METHOD   B3LYP
BASIS   6-31G**
PDB_PRINT 2
SCF_CONVERGENCE 6
THRESH 14
SCF_PRINT 1
$end
$molecule
0 3
F 0.373938 2.236438 -0.116452
C -0.302941 -0.532790 0.425385
C 0.692897 -1.131452 -0.456424
C -1.651094 -0.107548 -0.089936
H -0.206690 -0.692295 1.503211
H -2.227276 -0.975669 -0.447843
H 0.633686 -2.180134 -0.748111
H 1.490809 -0.541844 -0.902735
H -2.242175 0.387120 0.686034
H 0.292744 1.415457 0.327965
H -1.547000 0.577914 -0.937896
$end
$scan
stre 1 3 3.300000 3.301000 0.100000
$end
--------------------------------------------------------------

   10    -218.2508433717      4.08e-07  Convergence criterion met
 Total energy in the final basis set =     -218.2508433717
   10    -218.2505787140      4.20e-07  Convergence criterion met
 Total energy in the final basis set =     -218.2505787140
   10    -218.2509011959      4.18e-07  Convergence criterion met
 Total energy in the final basis set =     -218.2509011959
   10    -218.2510185406      4.12e-07  Convergence criterion met
 Total energy in the final basis set =     -218.2510185406
   10    -218.2510220636      4.11e-07  Convergence criterion met
 Total energy in the final basis set =     -218.2510220636
   10    -218.2510275531      4.09e-07  Convergence criterion met
 Total energy in the final basis set =     -218.2510275531
   10    -218.2510317933      4.07e-07  Convergence criterion met
 Total energy in the final basis set =     -218.2510317933
   10    -218.2510357744      4.07e-07  Convergence criterion met
   10    -218.2510385182      4.07e-07  Convergence criterion met
 Total energy in the final basis set =     -218.2510385182
   10    -218.2510411989      4.08e-07  Convergence criterion met
 Total energy in the final basis set =     -218.2510411989
   10    -218.2510438451      4.09e-07  Convergence criterion met
 Total energy in the final basis set =     -218.2510438451
   10    -218.2510459981      4.09e-07  Convergence criterion met
 Total energy in the final basis set =     -218.2510459981
   10    -218.2510474104      4.08e-07  Convergence criterion met
 Total energy in the final basis set =     -218.2510474104
   10    -218.2510484267      4.07e-07  Convergence criterion met
 Total energy in the final basis set =     -218.2510484267

             Standard Nuclear Orientation (Angstroms)
    I     Atom           X                Y                Z
 ----------------------------------------------------------------
    1      F       0.4549552541     2.1804223424    -0.1899557062
    2      C      -0.3208285870    -0.5347387261     0.4435253548
    3      C       0.6926320467    -1.1014673547    -0.4403812149
    4      C      -1.6676001319    -0.1155669033    -0.0792737909
    5      H      -0.2287614117    -0.7064931026     1.5195044216
    6      H      -2.2234412799    -0.9793300441    -0.4773556772
    7      H       0.6474849362    -2.1428132398    -0.7592257423
    8      H       1.4731860196    -0.4843837513    -0.8802193860
    9      H      -2.2801764374     0.3428109782     0.7023697856
   10      H       0.3186858456     1.3971209127     0.3063855061
   11      H      -1.5592382545     0.5996358885    -0.9021755506
 ----------------------------------------------------------------

   10    -218.2510493466      4.06e-07  Convergence criterion met
 Total energy in the final basis set =     -218.2510493466

                    Orbital Energies (a.u.)
 --------------------------------------------------------------

 Alpha MOs
 -- Occupied --
-24.646 -10.219 -10.207 -10.194  -1.149  -0.801  -0.699  -0.585
 -0.508  -0.462  -0.450  -0.417  -0.408  -0.375  -0.361  -0.359
 -0.221  -0.218

 Beta MOs
 -- Occupied --
-24.645 -10.207 -10.194 -10.194  -1.146  -0.771  -0.673  -0.555
 -0.499  -0.449  -0.429  -0.403  -0.394  -0.366  -0.359  -0.358

          Ground-State Mulliken Net Atomic Charges

     Atom                 Charge (a.u.)    Spin (a.u.)
  --------------------------------------------------------
      1 F                    -0.377192       0.027232
      2 C                    -0.171837       0.881069
      3 C                    -0.232495       1.009516
      4 C                    -0.330819      -0.034430
      5 H                     0.122360       0.001106
      6 H                     0.123719       0.056734
      7 H                     0.122076       0.004020
      8 H                     0.133767      -0.009795
      9 H                     0.118523       0.011710
     10 H                     0.351266       0.024758
     11 H                     0.140631       0.028079
  --------------------------------------------------------
  Sum of atomic charges =    -0.000000

                    Cartesian Multipole Moments
 -----------------------------------------------------------------
    Charge (ESU x 10^10)
                -0.0000
    Dipole Moment (Debye)
         X      -0.7478      Y      -2.1508      Z       0.6779
       Tot       2.3758
    Quadrupole Moments (Debye-Ang)
        XX     -24.5401     XY      -0.9756     YY     -30.2718
        XZ      -0.2944     YZ       1.4748     ZZ     -24.6282

 Final energy is   -218.251049346575
 **  OPTIMIZATION CONVERGED  **
 Total job time:  43.42s(wall), 490.00s(cpu)
        *  Thank you very much for using Q-Chem.  Have a nice day.  *
