 Q-Chem 5.1, Q-Chem, Inc., Pleasanton, CA (2018)
 Q-Chem 5.1.1 for Intel X86 EM64T Linux

User input:
--------------------------------------------------------------

$comment
potential surface scanner
$end

$rem
JOBTYPE  PES_SCAN
UNRESTRICTED TRUE
SYM_IGNORE  TRUE
GEOM_OPT_MAX_CYCLES 400
SCF_MAX_CYCLES 400
METHOD   B3LYP
BASIS   6-31G**
PDB_PRINT 2
SCF_CONVERGENCE 6
THRESH 14
SCF_PRINT 1
$end
$molecule
0 1
F 1.357600 0.611300 0.151500
C -0.630200 -0.630500 0.280500
C 0.769500 -0.528800 -0.298100
C -1.496900 0.548000 -0.133900
H -0.568500 -0.651900 1.374300
H -1.098000 -1.565100 -0.046700
H 1.386100 -1.374200 0.020100
H 0.753300 -0.494500 -1.391400
H -2.499800 0.449100 0.293300
H -1.071200 1.493600 0.216700
H -1.595000 0.598200 -1.223100
$end
$scan
stre 1 3 0.900000 0.901000 0.100000
$end
--------------------------------------------------------------

    9    -218.3794177513      2.24e-07  Convergence criterion met
 Total energy in the final basis set =     -218.3794177513
    8    -218.3572752955      8.83e-07  Convergence criterion met
 Total energy in the final basis set =     -218.3572752955
    9    -218.2621521656      3.11e-07  Convergence criterion met
 Total energy in the final basis set =     -218.2621521656
    9    -218.1448517233      3.20e-07  Convergence criterion met
 Total energy in the final basis set =     -218.1448517233
    8    -217.9436139491      9.04e-07  Convergence criterion met
 Total energy in the final basis set =     -217.9436139491
    8    -217.9166414220      8.70e-07  Convergence criterion met
 Total energy in the final basis set =     -217.9166414220
    8    -217.9027061000      8.33e-07  Convergence criterion met
 Total energy in the final basis set =     -217.9027061000
    8    -217.9038872669      8.46e-07  Convergence criterion met
    8    -217.9044267596      9.94e-07  Convergence criterion met
 Total energy in the final basis set =     -217.9044267596
    8    -217.9044278782      9.95e-07  Convergence criterion met
 Total energy in the final basis set =     -217.9044278782
    8    -217.9044287702      9.97e-07  Convergence criterion met
 Total energy in the final basis set =     -217.9044287702
    8    -217.9044298184      9.98e-07  Convergence criterion met
 Total energy in the final basis set =     -217.9044298184
    8    -217.9044311967      9.99e-07  Convergence criterion met
 Total energy in the final basis set =     -217.9044311967
    8    -217.9044323952      9.99e-07  Convergence criterion met
 Total energy in the final basis set =     -217.9044323952

             Standard Nuclear Orientation (Angstroms)
    I     Atom           X                Y                Z
 ----------------------------------------------------------------
    1      F       1.3173810909     0.3814082990     0.0058835531
    2      C      -0.6152025108    -0.5836639673     0.3036886525
    3      C       0.8923407388    -0.3733454370    -0.2384268379
    4      C      -1.5324190157     0.5692437935    -0.1166030935
    5      H      -0.5947315703    -0.6609092624     1.4025997655
    6      H      -0.9760391838    -1.5416860451    -0.0851331897
    7      H       1.3875147430    -1.3995723224     0.0496114025
    8      H       0.7388208503    -0.5632897250    -1.3913981605
    9      H      -2.5540944513     0.4456104192     0.2576651515
   10      H      -1.1688915277     1.5330062669     0.2646839856
   11      H      -1.5877791635     0.6483979805    -1.2093712290
 ----------------------------------------------------------------

    8    -217.9044329219      9.97e-07  Convergence criterion met
 Total energy in the final basis set =     -217.9044329219

                    Orbital Energies (a.u.)
 --------------------------------------------------------------

 Alpha MOs
 -- Occupied --
-24.799 -10.299 -10.170 -10.157  -1.570  -0.766  -0.734  -0.709
 -0.695  -0.627  -0.523  -0.426  -0.397  -0.355  -0.336  -0.256
 -0.248

 Beta MOs
 -- Occupied --
-24.799 -10.299 -10.170 -10.157  -1.570  -0.766  -0.734  -0.709
 -0.695  -0.627  -0.523  -0.426  -0.397  -0.355  -0.336  -0.256
 -0.248

          Ground-State Mulliken Net Atomic Charges

     Atom                 Charge (a.u.)    Spin (a.u.)
  --------------------------------------------------------
      1 F                     0.344648       0.000000
      2 C                    -0.287829       0.000000
      3 C                    -0.054243      -0.000000
      4 C                    -0.323159       0.000000
      5 H                     0.078671       0.000000
      6 H                     0.090406      -0.000000
      7 H                    -0.070495       0.000000
      8 H                    -0.075233       0.000000
      9 H                     0.106683       0.000000
     10 H                     0.086868      -0.000000
     11 H                     0.103682      -0.000000
  --------------------------------------------------------
  Sum of atomic charges =    -0.000000

                    Cartesian Multipole Moments
 -----------------------------------------------------------------
    Charge (ESU x 10^10)
                -0.0000
    Dipole Moment (Debye)
         X       0.5881      Y       1.1213      Z       0.4562
       Tot       1.3459
    Quadrupole Moments (Debye-Ang)
        XX     -24.9389     XY       1.6256     YY     -26.6691
        XZ       0.4715     YZ      -0.1327     ZZ     -26.4600

 Final energy is   -217.904432921857
 **  OPTIMIZATION CONVERGED  **
 Total job time:  76.28s(wall), 885.26s(cpu)
        *  Thank you very much for using Q-Chem.  Have a nice day.  *
