 Q-Chem 5.1, Q-Chem, Inc., Pleasanton, CA (2018)
 Q-Chem 5.1.1 for Intel X86 EM64T Linux

User input:
--------------------------------------------------------------

$comment
potential surface scanner
$end

$rem
JOBTYPE  PES_SCAN
UNRESTRICTED TRUE
SYM_IGNORE  TRUE
GEOM_OPT_MAX_CYCLES 400
SCF_MAX_CYCLES 400
METHOD   B3LYP
BASIS   6-31G**
PDB_PRINT 2
SCF_CONVERGENCE 6
THRESH 14
SCF_PRINT 1
$end
$molecule
0 1
F 0.131761 2.255174 0.921977
C -0.384330 -0.734055 0.231437
C 0.681776 -1.126703 -0.474587
C -1.625531 -0.105509 -0.336839
H -0.377725 -0.879839 1.312605
H -2.515555 -0.692077 -0.080771
H 1.546770 -1.579721 0.000747
H 0.719806 -1.016961 -1.556048
H -1.762796 0.896577 0.083225
H 0.462879 1.459253 0.567577
H -1.570159 -0.020939 -1.426120
$end
$scan
stre 1 3 3.800000 3.801000 0.100000
$end
--------------------------------------------------------------

    9    -218.3532346181      3.08e-07  Convergence criterion met
 Total energy in the final basis set =     -218.3532346181
    9    -218.3516446579      3.41e-07  Convergence criterion met
 Total energy in the final basis set =     -218.3516446579
    9    -218.3523664722      3.24e-07  Convergence criterion met
 Total energy in the final basis set =     -218.3523664722
    9    -218.3527076852      3.11e-07  Convergence criterion met
 Total energy in the final basis set =     -218.3527076852
    9    -218.3527153018      3.11e-07  Convergence criterion met
 Total energy in the final basis set =     -218.3527153018
    9    -218.3527211579      3.11e-07  Convergence criterion met
 Total energy in the final basis set =     -218.3527211579
    9    -218.3527245461      3.10e-07  Convergence criterion met
 Total energy in the final basis set =     -218.3527245461
    9    -218.3527259555      3.10e-07  Convergence criterion met
 Total energy in the final basis set =     -218.3527259555

             Standard Nuclear Orientation (Angstroms)
    I     Atom           X                Y                Z
 ----------------------------------------------------------------
    1      F       0.0856416112     2.3035909965     0.9529471095
    2      C      -0.3718098458    -0.7406770045     0.2246174011
    3      C       0.6783760821    -1.1623378594    -0.4878870299
    4      C      -1.6105938512    -0.1022470151    -0.3385902241
    5      H      -0.3543815243    -0.8703217765     1.3078361769
    6      H      -2.5038703457    -0.6835542789    -0.0811567490
    7      H       1.5418389085    -1.6216385565    -0.0158622639
    8      H       0.7047405560    -1.0695486192    -1.5712252309
    9      H      -1.7423340439     0.8995714066     0.0840241414
   10      H       0.4373532814     1.5185678953     0.5964197844
   11      H      -1.5580648282    -0.0162051883    -1.4279201156
 ----------------------------------------------------------------

    9    -218.3527269135      3.10e-07  Convergence criterion met
 Total energy in the final basis set =     -218.3527269135

                    Orbital Energies (a.u.)
 --------------------------------------------------------------

 Alpha MOs
 -- Occupied --
-24.658 -10.204 -10.193 -10.187  -1.161  -0.795  -0.693  -0.564
 -0.511  -0.475  -0.429  -0.420  -0.380  -0.371  -0.368  -0.355
 -0.270

 Beta MOs
 -- Occupied --
-24.658 -10.204 -10.193 -10.187  -1.161  -0.795  -0.693  -0.564
 -0.511  -0.475  -0.429  -0.420  -0.380  -0.371  -0.368  -0.355
 -0.270

          Ground-State Mulliken Net Atomic Charges

     Atom                 Charge (a.u.)    Spin (a.u.)
  --------------------------------------------------------
      1 F                    -0.361813       0.000000
      2 C                    -0.072036       0.000000
      3 C                    -0.239094      -0.000000
      4 C                    -0.358468       0.000000
      5 H                     0.101793      -0.000000
      6 H                     0.121911      -0.000000
      7 H                     0.105920      -0.000000
      8 H                     0.102299       0.000000
      9 H                     0.134744      -0.000000
     10 H                     0.352442       0.000000
     11 H                     0.112302       0.000000
  --------------------------------------------------------
  Sum of atomic charges =    -0.000000

                    Cartesian Multipole Moments
 -----------------------------------------------------------------
    Charge (ESU x 10^10)
                 0.0000
    Dipole Moment (Debye)
         X       0.2432      Y      -1.6909      Z      -0.6767
       Tot       1.8375
    Quadrupole Moments (Debye-Ang)
        XX     -23.5949     XY      -0.1041     YY     -31.5623
        XZ       0.0247     YZ      -2.6050     ZZ     -25.0287

 Final energy is   -218.352726913463
 **  OPTIMIZATION CONVERGED  **
 Total job time:  25.18s(wall), 279.46s(cpu)
        *  Thank you very much for using Q-Chem.  Have a nice day.  *
