 Q-Chem 5.1, Q-Chem, Inc., Pleasanton, CA (2018)
 Q-Chem 5.1.1 for Intel X86 EM64T Linux

User input:
--------------------------------------------------------------

$comment
potential surface scanner
$end

$rem
JOBTYPE  PES_SCAN
UNRESTRICTED TRUE
SYM_IGNORE  TRUE
GEOM_OPT_MAX_CYCLES 400
SCF_MAX_CYCLES 400
METHOD   B3LYP
BASIS   6-31G**
PDB_PRINT 2
SCF_CONVERGENCE 6
THRESH 14
SCF_PRINT 1
$end
$molecule
0 3
F 0.454955 2.180422 -0.189956
C -0.320829 -0.534739 0.443525
C 0.692632 -1.101467 -0.440381
C -1.667600 -0.115567 -0.079274
H -0.228761 -0.706493 1.519504
H -2.223441 -0.979330 -0.477356
H 0.647485 -2.142813 -0.759226
H 1.473186 -0.484384 -0.880219
H -2.280176 0.342811 0.702370
H 0.318686 1.397121 0.306386
H -1.559238 0.599636 -0.902176
$end
$scan
stre 1 3 3.200000 3.201000 0.100000
$end
--------------------------------------------------------------

   10    -218.2510493480      4.06e-07  Convergence criterion met
 Total energy in the final basis set =     -218.2510493480
   10    -218.2508542225      4.17e-07  Convergence criterion met
 Total energy in the final basis set =     -218.2508542225
   10    -218.2511221109      4.16e-07  Convergence criterion met
 Total energy in the final basis set =     -218.2511221109
   10    -218.2512142089      4.10e-07  Convergence criterion met
 Total energy in the final basis set =     -218.2512142089
   10    -218.2512180257      4.09e-07  Convergence criterion met
 Total energy in the final basis set =     -218.2512180257
   10    -218.2512248583      4.06e-07  Convergence criterion met
 Total energy in the final basis set =     -218.2512248583
   10    -218.2512296162      4.04e-07  Convergence criterion met
 Total energy in the final basis set =     -218.2512296162
   10    -218.2512347322      4.04e-07  Convergence criterion met
 Total energy in the final basis set =     -218.2512347322
   10    -218.2512387484      4.05e-07  Convergence criterion met
 Total energy in the final basis set =     -218.2512387484
   10    -218.2512432357      4.07e-07  Convergence criterion met
 Total energy in the final basis set =     -218.2512432357
   10    -218.2512475694      4.08e-07  Convergence criterion met
 Total energy in the final basis set =     -218.2512475694
   10    -218.2512504768      4.08e-07  Convergence criterion met
 Total energy in the final basis set =     -218.2512504768
   10    -218.2512516386      4.07e-07  Convergence criterion met
 Total energy in the final basis set =     -218.2512516386

             Standard Nuclear Orientation (Angstroms)
    I     Atom           X                Y                Z
 ----------------------------------------------------------------
    1      F       0.5430228337     2.1206694206    -0.2420431500
    2      C      -0.3368305326    -0.5352459874     0.4554251706
    3      C       0.6915349927    -1.0703132049    -0.4306611155
    4      C      -1.6844017037    -0.1244127393    -0.0719412466
    5      H      -0.2485155680    -0.7160184966     1.5300271452
    6      H      -2.2279674168    -0.9878039379    -0.4874527320
    7      H       0.6666186793    -2.1066844786    -0.7674048770
    8      H       1.4529003311    -0.4268789437    -0.8660645928
    9      H      -2.3085566165     0.3162757484     0.7108034623
   10      H       0.3352000611     1.3829585785     0.2972957981
   11      H      -1.5761060602     0.6026510410    -0.8847868623
 ----------------------------------------------------------------

   10    -218.2512521563      4.06e-07  Convergence criterion met
 Total energy in the final basis set =     -218.2512521563

                    Orbital Energies (a.u.)
 --------------------------------------------------------------

 Alpha MOs
 -- Occupied --
-24.647 -10.219 -10.206 -10.195  -1.150  -0.801  -0.698  -0.585
 -0.509  -0.461  -0.450  -0.417  -0.408  -0.375  -0.362  -0.361
 -0.221  -0.217

 Beta MOs
 -- Occupied --
-24.646 -10.207 -10.194 -10.193  -1.147  -0.771  -0.673  -0.555
 -0.500  -0.448  -0.429  -0.402  -0.393  -0.366  -0.360  -0.359

          Ground-State Mulliken Net Atomic Charges

     Atom                 Charge (a.u.)    Spin (a.u.)
  --------------------------------------------------------
      1 F                    -0.375353       0.026815
      2 C                    -0.171760       0.882263
      3 C                    -0.233695       1.008736
      4 C                    -0.330856      -0.034726
      5 H                     0.121751       0.000395
      6 H                     0.124442       0.056975
      7 H                     0.121274       0.003722
      8 H                     0.135522      -0.009059
      9 H                     0.117732       0.011934
     10 H                     0.351378       0.024597
     11 H                     0.139566       0.028347
  --------------------------------------------------------
  Sum of atomic charges =    -0.000000

                    Cartesian Multipole Moments
 -----------------------------------------------------------------
    Charge (ESU x 10^10)
                -0.0000
    Dipole Moment (Debye)
         X      -0.8831      Y      -2.0338      Z       0.7485
       Tot       2.3402
    Quadrupole Moments (Debye-Ang)
        XX     -24.7054     XY      -1.1889     YY     -29.8769
        XZ      -0.2290     YZ       1.6216     ZZ     -24.6562

 Final energy is   -218.251252156308
 **  OPTIMIZATION CONVERGED  **
 Total job time:  38.93s(wall), 453.08s(cpu)
        *  Thank you very much for using Q-Chem.  Have a nice day.  *
