 Q-Chem 5.1, Q-Chem, Inc., Pleasanton, CA (2018)
 Q-Chem 5.1.1 for Intel X86 EM64T Linux

User input:
--------------------------------------------------------------

$comment
potential surface scanner
$end

$rem
JOBTYPE  PES_SCAN
UNRESTRICTED TRUE
SYM_IGNORE  TRUE
GEOM_OPT_MAX_CYCLES 400
SCF_MAX_CYCLES 400
METHOD   B3LYP
BASIS   6-31G**
PDB_PRINT 2
SCF_CONVERGENCE 6
THRESH 14
SCF_PRINT 1
$end
$molecule
0 3
F 0.543023 2.120669 -0.242043
C -0.336831 -0.535246 0.455425
C 0.691535 -1.070313 -0.430661
C -1.684402 -0.124413 -0.071941
H -0.248516 -0.716018 1.530027
H -2.227967 -0.987804 -0.487453
H 0.666619 -2.106684 -0.767405
H 1.452900 -0.426879 -0.866065
H -2.308557 0.316276 0.710803
H 0.335200 1.382959 0.297296
H -1.576106 0.602651 -0.884787
$end
$scan
stre 1 3 3.100000 3.101000 0.100000
$end
--------------------------------------------------------------

   10    -218.2512521575      4.06e-07  Convergence criterion met
 Total energy in the final basis set =     -218.2512521575
   10    -218.2510691264      4.17e-07  Convergence criterion met
 Total energy in the final basis set =     -218.2510691264
   10    -218.2512854438      4.14e-07  Convergence criterion met
 Total energy in the final basis set =     -218.2512854438
   10    -218.2513471717      4.09e-07  Convergence criterion met
 Total energy in the final basis set =     -218.2513471717
   10    -218.2513490943      4.08e-07  Convergence criterion met
 Total energy in the final basis set =     -218.2513490943
   10    -218.2513519901      4.06e-07  Convergence criterion met
 Total energy in the final basis set =     -218.2513519901
   10    -218.2513539439      4.05e-07  Convergence criterion met
 Total energy in the final basis set =     -218.2513539439
   10    -218.2513560688      4.05e-07  Convergence criterion met
 Total energy in the final basis set =     -218.2513560688
   10    -218.2513577364      4.06e-07  Convergence criterion met
 Total energy in the final basis set =     -218.2513577364
   10    -218.2513595962      4.08e-07  Convergence criterion met
 Total energy in the final basis set =     -218.2513595962
   10    -218.2513615269      4.09e-07  Convergence criterion met
 Total energy in the final basis set =     -218.2513615269
   10    -218.2513629530      4.09e-07  Convergence criterion met
 Total energy in the final basis set =     -218.2513629530

             Standard Nuclear Orientation (Angstroms)
    I     Atom           X                Y                Z
 ----------------------------------------------------------------
    1      F       0.6177415329     2.0590657755    -0.2754303875
    2      C      -0.3503526626    -0.5303097128     0.4620629730
    3      C       0.6898787128    -1.0363936704    -0.4268547681
    4      C      -1.7008028306    -0.1313326747    -0.0667333289
    5      H      -0.2645410508    -0.7215391927     1.5350193482
    6      H      -2.2364485753    -0.9989524045    -0.4839602300
    7      H       0.6845488440    -2.0695833750    -0.7742279958
    8      H       1.4409562170    -0.3743807303    -0.8511365452
    9      H      -2.3303358568     0.3031443355     0.7152527090
   10      H       0.3530760496     1.3590589723     0.2888810231
   11      H      -1.5968223803     0.5964206772    -0.8796767979
 ----------------------------------------------------------------

   10    -218.2513635079      4.09e-07  Convergence criterion met
 Total energy in the final basis set =     -218.2513635079

                    Orbital Energies (a.u.)
 --------------------------------------------------------------

 Alpha MOs
 -- Occupied --
-24.648 -10.218 -10.205 -10.195  -1.151  -0.801  -0.698  -0.585
 -0.510  -0.461  -0.449  -0.417  -0.407  -0.375  -0.362  -0.362
 -0.221  -0.216

 Beta MOs
 -- Occupied --
-24.647 -10.206 -10.194 -10.192  -1.148  -0.771  -0.673  -0.554
 -0.501  -0.448  -0.428  -0.402  -0.393  -0.366  -0.360  -0.360

          Ground-State Mulliken Net Atomic Charges

     Atom                 Charge (a.u.)    Spin (a.u.)
  --------------------------------------------------------
      1 F                    -0.373612       0.027569
      2 C                    -0.173127       0.881678
      3 C                    -0.235307       1.008297
      4 C                    -0.329867      -0.034793
      5 H                     0.121424       0.000361
      6 H                     0.125037       0.057478
      7 H                     0.120410       0.003564
      8 H                     0.137639      -0.008703
      9 H                     0.117374       0.012238
     10 H                     0.351548       0.024606
     11 H                     0.138479       0.027706
  --------------------------------------------------------
  Sum of atomic charges =    -0.000000

                    Cartesian Multipole Moments
 -----------------------------------------------------------------
    Charge (ESU x 10^10)
                 0.0000
    Dipole Moment (Debye)
         X      -0.9897      Y      -1.9424      Z       0.7934
       Tot       2.3199
    Quadrupole Moments (Debye-Ang)
        XX     -24.8244     XY      -1.3498     YY     -29.5223
        XZ      -0.1717     YZ       1.6705     ZZ     -24.6951

 Final energy is   -218.251363507864
 **  OPTIMIZATION CONVERGED  **
 Total job time:  36.59s(wall), 424.13s(cpu)
        *  Thank you very much for using Q-Chem.  Have a nice day.  *
