 Q-Chem 5.1, Q-Chem, Inc., Pleasanton, CA (2018)
 Q-Chem 5.1.1 for Intel X86 EM64T Linux

User input:
--------------------------------------------------------------

$comment
potential surface scanner
$end

$rem
JOBTYPE  PES_SCAN
UNRESTRICTED TRUE
SYM_IGNORE  TRUE
GEOM_OPT_MAX_CYCLES 400
SCF_MAX_CYCLES 400
METHOD   B3LYP
BASIS   6-31G**
PDB_PRINT 2
SCF_CONVERGENCE 6
THRESH 14
SCF_PRINT 1
$end
$molecule
0 1
F 1.313639 1.687151 0.270756
C -0.717408 -0.790079 0.234403
C 0.590483 -0.935310 -0.392373
C -1.404276 0.549991 -0.109344
H -0.647789 -0.946958 1.314065
H -1.331519 -1.624209 -0.168660
H 1.433944 -1.389205 0.118009
H 0.723866 -0.687587 -1.441419
H -2.355116 0.628965 0.424231
H -0.696327 1.336906 0.176824
H -1.602597 0.625534 -1.183290
$end
$scan
stre 1 3 2.900000 2.901000 0.100000
$end
--------------------------------------------------------------

   13    -218.2239120681      7.35e-07  Convergence criterion met
 Total energy in the final basis set =     -218.2239120681
   14    -218.2174456217      9.32e-07  Convergence criterion met
 Total energy in the final basis set =     -218.2174456217
   16    -218.2173756589      1.96e-07  Convergence criterion met
 Total energy in the final basis set =     -218.2173756589
   16    -218.2173895883      1.87e-07  Convergence criterion met
 Total energy in the final basis set =     -218.2173895883
   14    -218.2174013947      8.97e-07  Convergence criterion met
 Total energy in the final basis set =     -218.2174013947
   14    -218.2174071539      8.23e-07  Convergence criterion met
 Total energy in the final basis set =     -218.2174071539
   14    -218.2174088174      8.32e-07  Convergence criterion met
 Total energy in the final basis set =     -218.2174088174

             Standard Nuclear Orientation (Angstroms)
    I     Atom           X                Y                Z
 ----------------------------------------------------------------
    1      F       1.2714920936     1.7683754409     0.2905858110
    2      C      -0.7142933863    -0.7955527321     0.2344177432
    3      C       0.5844798470    -0.9631135560    -0.4000517148
    4      C      -1.3903446497     0.5518265497    -0.1085999018
    5      H      -0.6425157946    -0.9539958404     1.3136967497
    6      H      -1.3453438962    -1.6193500276    -0.1658274945
    7      H       1.4293305198    -1.4150498974     0.1101352890
    8      H       0.7158766397    -0.7152659329    -1.4495546551
    9      H      -2.3417976005     0.6343935285     0.4233568165
   10      H      -0.6734430423     1.3335596083     0.1779473456
   11      H      -1.5865407307     0.6293718589    -1.1829039889
 ----------------------------------------------------------------

   14    -218.2174094662      8.42e-07  Convergence criterion met
 Total energy in the final basis set =     -218.2174094662

                    Orbital Energies (a.u.)
 --------------------------------------------------------------

 Alpha MOs
 -- Occupied --
-24.534 -10.306 -10.236 -10.186  -0.961  -0.837  -0.710  -0.623
 -0.518  -0.478  -0.452  -0.392  -0.379  -0.367  -0.240  -0.236
 -0.235

 Beta MOs
 -- Occupied --
-24.534 -10.306 -10.236 -10.186  -0.961  -0.837  -0.710  -0.623
 -0.518  -0.478  -0.452  -0.392  -0.379  -0.367  -0.240  -0.236
 -0.235

          Ground-State Mulliken Net Atomic Charges

     Atom                 Charge (a.u.)    Spin (a.u.)
  --------------------------------------------------------
      1 F                    -0.443969      -0.000000
      2 C                    -0.232533      -0.000000
      3 C                    -0.065852       0.000000
      4 C                    -0.331962       0.000000
      5 H                     0.150641       0.000000
      6 H                     0.151661       0.000000
      7 H                     0.180945      -0.000000
      8 H                     0.181111      -0.000000
      9 H                     0.106280       0.000000
     10 H                     0.198828       0.000000
     11 H                     0.104850      -0.000000
  --------------------------------------------------------
  Sum of atomic charges =    -0.000000

                    Cartesian Multipole Moments
 -----------------------------------------------------------------
    Charge (ESU x 10^10)
                -0.0000
    Dipole Moment (Debye)
         X      -2.2820      Y      -5.6766      Z      -1.1687
       Tot       6.2287
    Quadrupole Moments (Debye-Ang)
        XX     -26.3715     XY      -5.8912     YY     -28.8720
        XZ      -1.3732     YZ      -0.6364     ZZ     -23.4534

 Final energy is   -218.217409466230
 **  OPTIMIZATION CONVERGED  **
 Total job time:  28.38s(wall), 330.83s(cpu)
        *  Thank you very much for using Q-Chem.  Have a nice day.  *
