 Q-Chem 5.1, Q-Chem, Inc., Pleasanton, CA (2018)
 Q-Chem 5.1.1 for Intel X86 EM64T Linux

User input:
--------------------------------------------------------------

$comment
potential surface scanner
$end

$rem
JOBTYPE  PES_SCAN
UNRESTRICTED TRUE
SYM_IGNORE  TRUE
GEOM_OPT_MAX_CYCLES 400
SCF_MAX_CYCLES 400
METHOD   B3LYP
BASIS   6-31G**
PDB_PRINT 2
SCF_CONVERGENCE 6
THRESH 14
SCF_PRINT 1
$end
$molecule
0 1
F 1.370371 0.587423 0.142380
C -0.628351 -0.621188 0.275003
C 0.794409 -0.501316 -0.273452
C -1.517924 0.556319 -0.132897
H -0.575037 -0.687663 1.369299
H -1.054193 -1.568790 -0.078004
H 1.383897 -1.381454 0.034068
H 0.762472 -0.510240 -1.377424
H -2.510668 0.483136 0.320971
H -1.069496 1.502562 0.183677
H -1.648580 0.596411 -1.220421
$end
$scan
stre 1 3 1.400000 1.401000 0.100000
$end
--------------------------------------------------------------

    9    -218.3744643290      2.37e-07  Convergence criterion met
 Total energy in the final basis set =     -218.3744643290
    9    -218.3801666293      2.30e-07  Convergence criterion met
 Total energy in the final basis set =     -218.3801666293
    9    -218.3807807856      2.27e-07  Convergence criterion met
 Total energy in the final basis set =     -218.3807807856
    9    -218.3808440487      2.27e-07  Convergence criterion met
 Total energy in the final basis set =     -218.3808440487
    9    -218.3808466334      2.27e-07  Convergence criterion met
 Total energy in the final basis set =     -218.3808466334

             Standard Nuclear Orientation (Angstroms)
    I     Atom           X                Y                Z
 ----------------------------------------------------------------
    1      F       1.3885474257     0.6384995055     0.1701599791
    2      C      -0.6350239679    -0.6285224078     0.2728127426
    3      C       0.7742520572    -0.5338917233    -0.2860633549
    4      C      -1.5165562853     0.5544382763    -0.1353132610
    5      H      -0.5724424965    -0.6918952040     1.3659655014
    6      H      -1.0728740309    -1.5744316633    -0.0723248831
    7      H       1.3903990809    -1.3833337230     0.0332611822
    8      H       0.7653900056    -0.5011975500    -1.3837325942
    9      H      -2.5056083018     0.4910875042     0.3277305741
   10      H      -1.0530840336     1.4954378394     0.1725120618
   11      H      -1.6560994536     0.5890091460    -1.2218079481
 ----------------------------------------------------------------

    9    -218.3808470688      2.27e-07  Convergence criterion met
 Total energy in the final basis set =     -218.3808470688

                    Orbital Energies (a.u.)
 --------------------------------------------------------------

 Alpha MOs
 -- Occupied --
-24.662 -10.254 -10.189 -10.176  -1.166  -0.784  -0.683  -0.593
 -0.488  -0.482  -0.449  -0.423  -0.382  -0.367  -0.346  -0.320
 -0.319

 Beta MOs
 -- Occupied --
-24.662 -10.254 -10.189 -10.176  -1.166  -0.784  -0.683  -0.593
 -0.488  -0.482  -0.449  -0.423  -0.382  -0.367  -0.346  -0.320
 -0.319

          Ground-State Mulliken Net Atomic Charges

     Atom                 Charge (a.u.)    Spin (a.u.)
  --------------------------------------------------------
      1 F                    -0.326816       0.000000
      2 C                    -0.210269       0.000000
      3 C                     0.141267       0.000000
      4 C                    -0.319246      -0.000000
      5 H                     0.110803      -0.000000
      6 H                     0.095531      -0.000000
      7 H                     0.089427      -0.000000
      8 H                     0.088152      -0.000000
      9 H                     0.104172       0.000000
     10 H                     0.124810      -0.000000
     11 H                     0.102170       0.000000
  --------------------------------------------------------
  Sum of atomic charges =     0.000000

                    Cartesian Multipole Moments
 -----------------------------------------------------------------
    Charge (ESU x 10^10)
                 0.0000
    Dipole Moment (Debye)
         X      -0.9094      Y      -1.3208      Z      -0.4124
       Tot       1.6558
    Quadrupole Moments (Debye-Ang)
        XX     -26.5825     XY      -1.5652     YY     -25.0635
        XZ      -0.5815     YZ       0.0471     ZZ     -24.6016

 Final energy is   -218.380847068756
 **  OPTIMIZATION CONVERGED  **
 Total job time:  18.10s(wall), 189.76s(cpu)
        *  Thank you very much for using Q-Chem.  Have a nice day.  *
