 Q-Chem 5.1, Q-Chem, Inc., Pleasanton, CA (2018)
 Q-Chem 5.1.1 for Intel X86 EM64T Linux

User input:
--------------------------------------------------------------

$comment
potential surface scanner
$end

$rem
JOBTYPE  PES_SCAN
UNRESTRICTED TRUE
SYM_IGNORE  TRUE
GEOM_OPT_MAX_CYCLES 400
SCF_MAX_CYCLES 400
METHOD   B3LYP
BASIS   6-31G**
PDB_PRINT 2
SCF_CONVERGENCE 6
THRESH 14
SCF_PRINT 1
$end
$molecule
0 3
F -0.041178 2.379054 0.858802
C -0.195907 -0.455818 0.224349
C 0.696647 -1.279106 -0.581157
C -1.587213 -0.100673 -0.224481
H -0.005721 -0.389137 1.300518
H -2.294611 -0.915368 0.002034
H 0.590028 -2.363811 -0.614310
H 1.497372 -0.852452 -1.181518
H -1.941130 0.797546 0.289618
H 0.218803 1.566359 0.474266
H -1.630190 0.068604 -1.304923
$end
$scan
stre 1 3 3.900000 3.901000 0.100000
$end
--------------------------------------------------------------

   10    -218.2508353386      3.96e-07  Convergence criterion met
 Total energy in the final basis set =     -218.2508353386
   10    -218.2490959948      4.12e-07  Convergence criterion met
 Total energy in the final basis set =     -218.2490959948
   10    -218.2503159831      4.18e-07  Convergence criterion met
 Total energy in the final basis set =     -218.2503159831
   10    -218.2507850341      4.12e-07  Convergence criterion met
 Total energy in the final basis set =     -218.2507850341
   10    -218.2507951530      4.11e-07  Convergence criterion met
 Total energy in the final basis set =     -218.2507951530
   10    -218.2507981915      4.10e-07  Convergence criterion met
 Total energy in the final basis set =     -218.2507981915
   10    -218.2508024951      4.09e-07  Convergence criterion met
 Total energy in the final basis set =     -218.2508024951
   10    -218.2508067140      4.09e-07  Convergence criterion met
   10    -218.2508121210      4.08e-07  Convergence criterion met
 Total energy in the final basis set =     -218.2508121210
   10    -218.2508172046      4.09e-07  Convergence criterion met
 Total energy in the final basis set =     -218.2508172046
   10    -218.2508213600      4.10e-07  Convergence criterion met
 Total energy in the final basis set =     -218.2508213600
   10    -218.2508239643      4.10e-07  Convergence criterion met
 Total energy in the final basis set =     -218.2508239643
   10    -218.2508255049      4.10e-07  Convergence criterion met
 Total energy in the final basis set =     -218.2508255049
   10    -218.2508265927      4.10e-07  Convergence criterion met
 Total energy in the final basis set =     -218.2508265927

             Standard Nuclear Orientation (Angstroms)
    I     Atom           X                Y                Z
 ----------------------------------------------------------------
    1      F       0.0043378606     2.3577988476     0.7480948089
    2      C      -0.2123365290    -0.4632657691     0.2560915808
    3      C       0.7009942009    -1.2481567789    -0.5640614285
    4      C      -1.5966017891    -0.0987233447    -0.2069244574
    5      H      -0.0445063838    -0.4397795662     1.3376557016
    6      H      -2.3019913155    -0.9263345195    -0.0255860530
    7      H       0.5976052238    -2.3304713509    -0.6476531646
    8      H       1.5079177822    -0.7928319728    -1.1342194243
    9      H      -1.9674000625     0.7773614370     0.3325581606
   10      H       0.2380445367     1.5086859458     0.4279787144
   11      H      -1.6191635242     0.1109150717    -1.2807364385
 ----------------------------------------------------------------

   10    -218.2508275069      4.09e-07  Convergence criterion met
 Total energy in the final basis set =     -218.2508275069

                    Orbital Energies (a.u.)
 --------------------------------------------------------------

 Alpha MOs
 -- Occupied --
-24.645 -10.219 -10.209 -10.193  -1.149  -0.801  -0.700  -0.587
 -0.505  -0.463  -0.452  -0.418  -0.407  -0.377  -0.360  -0.358
 -0.222  -0.219

 Beta MOs
 -- Occupied --
-24.644 -10.207 -10.196 -10.193  -1.146  -0.771  -0.675  -0.558
 -0.497  -0.448  -0.430  -0.404  -0.393  -0.368  -0.359  -0.356

          Ground-State Mulliken Net Atomic Charges

     Atom                 Charge (a.u.)    Spin (a.u.)
  --------------------------------------------------------
      1 F                    -0.376156       0.028025
      2 C                    -0.166507       0.872289
      3 C                    -0.237602       1.010390
      4 C                    -0.333711      -0.031017
      5 H                     0.131625       0.005187
      6 H                     0.124267       0.060173
      7 H                     0.122630       0.007351
      8 H                     0.125621      -0.011617
      9 H                     0.137407       0.020531
     10 H                     0.349140       0.028200
     11 H                     0.123288       0.010488
  --------------------------------------------------------
  Sum of atomic charges =     0.000000

                    Cartesian Multipole Moments
 -----------------------------------------------------------------
    Charge (ESU x 10^10)
                 0.0000
    Dipole Moment (Debye)
         X      -0.0660      Y      -2.3461      Z      -0.7092
       Tot       2.4518
    Quadrupole Moments (Debye-Ang)
        XX     -24.1514     XY       0.4438     YY     -31.1216
        XZ      -0.5135     YZ      -2.0037     ZZ     -25.5916

 Final energy is   -218.250827506887
 **  OPTIMIZATION CONVERGED  **
 Total job time:  42.75s(wall), 487.82s(cpu)
        *  Thank you very much for using Q-Chem.  Have a nice day.  *
