 Q-Chem 5.1, Q-Chem, Inc., Pleasanton, CA (2018)
 Q-Chem 5.1.1 for Intel X86 EM64T Linux

User input:
--------------------------------------------------------------

$comment
potential surface scanner
$end

$rem
JOBTYPE  PES_SCAN
UNRESTRICTED TRUE
SYM_IGNORE  TRUE
GEOM_OPT_MAX_CYCLES 400
SCF_MAX_CYCLES 400
METHOD   B3LYP
BASIS   6-31G**
PDB_PRINT 2
SCF_CONVERGENCE 6
THRESH 14
SCF_PRINT 1
$end
$molecule
0 1
F 1.357600 0.611300 0.151500
C -0.630200 -0.630500 0.280500
C 0.769500 -0.528800 -0.298100
C -1.496900 0.548000 -0.133900
H -0.568500 -0.651900 1.374300
H -1.098000 -1.565100 -0.046700
H 1.386100 -1.374200 0.020100
H 0.753300 -0.494500 -1.391400
H -2.499800 0.449100 0.293300
H -1.071200 1.493600 0.216700
H -1.595000 0.598200 -1.223100
$end
$scan
stre 1 3 1.100000 1.101000 0.100000
$end
--------------------------------------------------------------

    9    -218.3794177513      2.24e-07  Convergence criterion met
 Total energy in the final basis set =     -218.3794177513
    8    -218.3572752955      8.83e-07  Convergence criterion met
 Total energy in the final basis set =     -218.3572752955
    9    -218.2847098661      3.13e-07  Convergence criterion met
 Total energy in the final basis set =     -218.2847098661
    9    -218.2812816627      3.15e-07  Convergence criterion met
 Total energy in the final basis set =     -218.2812816627
    9    -218.2831814337      3.24e-07  Convergence criterion met
 Total energy in the final basis set =     -218.2831814337
    9    -218.2832360686      3.24e-07  Convergence criterion met
 Total energy in the final basis set =     -218.2832360686
    9    -218.2833072795      3.24e-07  Convergence criterion met
 Total energy in the final basis set =     -218.2833072795
    9    -218.2833107714      3.25e-07  Convergence criterion met
    9    -218.2833245913      3.25e-07  Convergence criterion met
 Total energy in the final basis set =     -218.2833245913
    9    -218.2833278838      3.25e-07  Convergence criterion met
 Total energy in the final basis set =     -218.2833278838
    9    -218.2833323604      3.25e-07  Convergence criterion met
 Total energy in the final basis set =     -218.2833323604
    9    -218.2833364126      3.24e-07  Convergence criterion met
 Total energy in the final basis set =     -218.2833364126
    9    -218.2833396687      3.24e-07  Convergence criterion met
 Total energy in the final basis set =     -218.2833396687
    9    -218.2833413700      3.24e-07  Convergence criterion met
 Total energy in the final basis set =     -218.2833413700

             Standard Nuclear Orientation (Angstroms)
    I     Atom           X                Y                Z
 ----------------------------------------------------------------
    1      F       1.3377118432     0.4880980921     0.0686813316
    2      C      -0.6167774769    -0.6040504112     0.2845330936
    3      C       0.8381929057    -0.4373465393    -0.2538603279
    4      C      -1.5215463408     0.5625284334    -0.1248839715
    5      H      -0.5810754745    -0.6766535862     1.3811698621
    6      H      -1.0161931518    -1.5553347441    -0.0853217252
    7      H       1.3762580062    -1.3805551280     0.0427585860
    8      H       0.7502427677    -0.5449756800    -1.3728115847
    9      H      -2.5286001121     0.4606797551     0.2912291317
   10      H      -1.1157133936     1.5176859004     0.2271696034
   11      H      -1.6155995731     0.6251239077    -1.2154639991
 ----------------------------------------------------------------

    9    -218.2833422777      3.24e-07  Convergence criterion met
 Total energy in the final basis set =     -218.2833422777

                    Orbital Energies (a.u.)
 --------------------------------------------------------------

 Alpha MOs
 -- Occupied --
-24.722 -10.253 -10.173 -10.172  -1.360  -0.769  -0.683  -0.615
 -0.569  -0.567  -0.509  -0.430  -0.398  -0.363  -0.342  -0.291
 -0.285

 Beta MOs
 -- Occupied --
-24.722 -10.253 -10.173 -10.172  -1.360  -0.769  -0.683  -0.615
 -0.569  -0.567  -0.509  -0.430  -0.398  -0.363  -0.342  -0.291
 -0.285

          Ground-State Mulliken Net Atomic Charges

     Atom                 Charge (a.u.)    Spin (a.u.)
  --------------------------------------------------------
      1 F                    -0.053535       0.000000
      2 C                    -0.244804       0.000000
      3 C                     0.099335      -0.000000
      4 C                    -0.320763       0.000000
      5 H                     0.092413      -0.000000
      6 H                     0.089838      -0.000000
      7 H                     0.014301       0.000000
      8 H                     0.010968      -0.000000
      9 H                     0.104952      -0.000000
     10 H                     0.104534      -0.000000
     11 H                     0.102761       0.000000
  --------------------------------------------------------
  Sum of atomic charges =     0.000000

                    Cartesian Multipole Moments
 -----------------------------------------------------------------
    Charge (ESU x 10^10)
                 0.0000
    Dipole Moment (Debye)
         X      -0.1591      Y      -0.1181      Z       0.0366
       Tot       0.2015
    Quadrupole Moments (Debye-Ang)
        XX     -25.7721     XY      -0.0356     YY     -25.7322
        XZ      -0.0028     YZ       0.0205     ZZ     -25.4072

 Final energy is   -218.283342277666
 **  OPTIMIZATION CONVERGED  **
 Total job time:  46.81s(wall), 528.69s(cpu)
        *  Thank you very much for using Q-Chem.  Have a nice day.  *
