 Q-Chem 5.1, Q-Chem, Inc., Pleasanton, CA (2018)
 Q-Chem 5.1.1 for Intel X86 EM64T Linux

User input:
--------------------------------------------------------------

$comment
potential surface scanner
$end

$rem
JOBTYPE  PES_SCAN
UNRESTRICTED TRUE
SYM_IGNORE  TRUE
GEOM_OPT_MAX_CYCLES 400
SCF_MAX_CYCLES 400
METHOD   B3LYP
BASIS   6-31G**
PDB_PRINT 2
SCF_CONVERGENCE 6
THRESH 14
SCF_PRINT 1
$end
$molecule
0 3
F 0.756965 1.930564 -0.319673
C -0.372870 -0.511410 0.466663
C 0.685795 -0.966528 -0.428276
C -1.732564 -0.143928 -0.059524
H -0.287657 -0.725082 1.535646
H -2.254910 -1.027107 -0.461520
H 0.710581 -1.995889 -0.786952
H 1.432473 -0.283127 -0.820692
H -2.366988 0.288605 0.719835
H 0.382539 1.316627 0.282205
H -1.646467 0.572474 -0.884517
$end
$scan
stre 1 3 2.800000 2.801000 0.100000
$end
--------------------------------------------------------------

   10    -218.2508112132      4.10e-07  Convergence criterion met
 Total energy in the final basis set =     -218.2508112132
   10    -218.2496993439      4.16e-07  Convergence criterion met
 Total energy in the final basis set =     -218.2496993439
   10    -218.2498189054      4.12e-07  Convergence criterion met
 Total energy in the final basis set =     -218.2498189054
   10    -218.2498378077      4.09e-07  Convergence criterion met
 Total energy in the final basis set =     -218.2498378077
   10    -218.2498397225      4.09e-07  Convergence criterion met
 Total energy in the final basis set =     -218.2498397225
   10    -218.2498421581      4.09e-07  Convergence criterion met
 Total energy in the final basis set =     -218.2498421581

             Standard Nuclear Orientation (Angstroms)
    I     Atom           X                Y                Z
 ----------------------------------------------------------------
    1      F       0.7766288615     1.8619532037    -0.3508898713
    2      C      -0.3787311747    -0.5014381005     0.4698530732
    3      C       0.6868645209    -0.9355458996    -0.4279767421
    4      C      -1.7402684538    -0.1427647572    -0.0564347197
    5      H      -0.2940308058    -0.7286036262     1.5362015966
    6      H      -2.2555509234    -1.0287085466    -0.4615898904
    7      H       0.7182886409    -1.9645738155    -0.7883118152
    8      H       1.4383232402    -0.2512956440    -0.8054744232
    9      H      -2.3793995074     0.2822966794     0.7233057108
   10      H       0.3920223965     1.2875286181     0.2836448964
   11      H      -1.6572497949     0.5763508884    -0.8791328152
 ----------------------------------------------------------------

   10    -218.2498430768      4.09e-07  Convergence criterion met
 Total energy in the final basis set =     -218.2498430768

                    Orbital Energies (a.u.)
 --------------------------------------------------------------

 Alpha MOs
 -- Occupied --
-24.650 -10.217 -10.200 -10.195  -1.154  -0.800  -0.696  -0.583
 -0.514  -0.460  -0.448  -0.416  -0.407  -0.375  -0.365  -0.361
 -0.218  -0.214

 Beta MOs
 -- Occupied --
-24.649 -10.205 -10.194 -10.187  -1.151  -0.770  -0.671  -0.553
 -0.504  -0.447  -0.428  -0.403  -0.393  -0.366  -0.363  -0.357

          Ground-State Mulliken Net Atomic Charges

     Atom                 Charge (a.u.)    Spin (a.u.)
  --------------------------------------------------------
      1 F                    -0.365036       0.032842
      2 C                    -0.180201       0.876736
      3 C                    -0.240695       1.008623
      4 C                    -0.326374      -0.035179
      5 H                     0.120056       0.001507
      6 H                     0.126009       0.058922
      7 H                     0.115298       0.003317
      8 H                     0.147091      -0.009884
      9 H                     0.116172       0.013091
     10 H                     0.351587       0.025232
     11 H                     0.136094       0.024794
  --------------------------------------------------------
  Sum of atomic charges =    -0.000000

                    Cartesian Multipole Moments
 -----------------------------------------------------------------
    Charge (ESU x 10^10)
                 0.0000
    Dipole Moment (Debye)
         X      -1.1767      Y      -1.6275      Z       0.9185
       Tot       2.2084
    Quadrupole Moments (Debye-Ang)
        XX     -25.0481     XY      -1.5236     YY     -28.4869
        XZ      -0.0035     YZ       1.6906     ZZ     -24.8314

 Final energy is   -218.249843076828
 **  OPTIMIZATION CONVERGED  **
 Total job time:  45.34s(wall), 269.15s(cpu)
        *  Thank you very much for using Q-Chem.  Have a nice day.  *
