 Q-Chem 5.1, Q-Chem, Inc., Pleasanton, CA (2018)
 Q-Chem 5.1.1 for Intel X86 EM64T Linux

User input:
--------------------------------------------------------------

$comment
potential surface scanner
$end

$rem
JOBTYPE  PES_SCAN
UNRESTRICTED TRUE
SYM_IGNORE  TRUE
GEOM_OPT_MAX_CYCLES 400
SCF_MAX_CYCLES 400
METHOD   B3LYP
BASIS   6-31G**
PDB_PRINT 2
SCF_CONVERGENCE 6
THRESH 14
SCF_PRINT 1
$end
$molecule
0 1
F 1.395821 1.412167 0.314050
C -0.706616 -0.749685 0.242371
C 0.610383 -0.854795 -0.388782
C -1.446395 0.544805 -0.130251
H -0.611712 -0.864116 1.325975
H -1.276744 -1.633925 -0.112015
H 1.433899 -1.375479 0.088298
H 0.736975 -0.591137 -1.434217
H -2.397636 0.610043 0.404146
H -0.780049 1.368051 0.138588
H -1.651026 0.589271 -1.204963
$end
$scan
stre 1 3 2.600000 2.601000 0.100000
$end
--------------------------------------------------------------

   11    -218.2480771907      7.65e-07  Convergence criterion met
 Total energy in the final basis set =     -218.2480771907
   12    -218.2392972749      4.97e-07  Convergence criterion met
 Total energy in the final basis set =     -218.2392972749
   12    -218.2391802730      5.10e-07  Convergence criterion met
 Total energy in the final basis set =     -218.2391802730
   12    -218.2391905250      5.39e-07  Convergence criterion met
 Total energy in the final basis set =     -218.2391905250
   12    -218.2391980728      5.63e-07  Convergence criterion met
 Total energy in the final basis set =     -218.2391980728
   12    -218.2392020938      5.74e-07  Convergence criterion met
 Total energy in the final basis set =     -218.2392020938
   12    -218.2392038711      5.75e-07  Convergence criterion met
 Total energy in the final basis set =     -218.2392038711
   12    -218.2392049494      5.75e-07  Convergence criterion met
 Total energy in the final basis set =     -218.2392049494
   12    -218.2392061392      5.81e-07  Convergence criterion met
 Total energy in the final basis set =     -218.2392061392
   12    -218.2392075006      5.96e-07  Convergence criterion met
 Total energy in the final basis set =     -218.2392075006

             Standard Nuclear Orientation (Angstroms)
    I     Atom           X                Y                Z
 ----------------------------------------------------------------
    1      F       1.3787150220     1.5000154653     0.3074679580
    2      C      -0.7108250248    -0.7623191561     0.2398721848
    3      C       0.6025248842    -0.8808792565    -0.3917238557
    4      C      -1.4347098700     0.5455241778    -0.1252969288
    5      H      -0.6206166352    -0.8870027194     1.3226611936
    6      H      -1.2943702824    -1.6336678256    -0.1257850340
    7      H       1.4336250608    -1.3798312850     0.0957045901
    8      H       0.7317844789    -0.6191648238    -1.4375474000
    9      H      -2.3858458391     0.6157467779     0.4087915815
   10      H      -0.7557384478     1.3578009562     0.1489299551
   11      H      -1.6376433466     0.5989776891    -1.1998742446
 ----------------------------------------------------------------

   12    -218.2392084712      6.16e-07  Convergence criterion met
 Total energy in the final basis set =     -218.2392084712

                    Orbital Energies (a.u.)
 --------------------------------------------------------------

 Alpha MOs
 -- Occupied --
-24.546 -10.303 -10.231 -10.185  -0.971  -0.831  -0.707  -0.619
 -0.511  -0.474  -0.449  -0.389  -0.377  -0.367  -0.256  -0.245
 -0.244

 Beta MOs
 -- Occupied --
-24.546 -10.303 -10.231 -10.185  -0.971  -0.831  -0.707  -0.619
 -0.511  -0.474  -0.449  -0.389  -0.377  -0.367  -0.256  -0.245
 -0.244

          Ground-State Mulliken Net Atomic Charges

     Atom                 Charge (a.u.)    Spin (a.u.)
  --------------------------------------------------------
      1 F                    -0.434953       0.000000
      2 C                    -0.225036      -0.000000
      3 C                    -0.056750      -0.000000
      4 C                    -0.328423       0.000000
      5 H                     0.150829       0.000000
      6 H                     0.141746      -0.000000
      7 H                     0.177237       0.000000
      8 H                     0.177847      -0.000000
      9 H                     0.106651      -0.000000
     10 H                     0.186990      -0.000000
     11 H                     0.103861       0.000000
  --------------------------------------------------------
  Sum of atomic charges =    -0.000000

                    Cartesian Multipole Moments
 -----------------------------------------------------------------
    Charge (ESU x 10^10)
                -0.0000
    Dipole Moment (Debye)
         X      -2.3524      Y      -4.9098      Z      -1.1744
       Tot       5.5695
    Quadrupole Moments (Debye-Ang)
        XX     -27.0482     XY      -5.4199     YY     -27.0919
        XZ      -1.5197     YZ      -0.5319     ZZ     -23.5047

 Final energy is   -218.239208471192
 **  OPTIMIZATION CONVERGED  **
 Total job time:  34.37s(wall), 400.73s(cpu)
        *  Thank you very much for using Q-Chem.  Have a nice day.  *
