 Q-Chem 5.1, Q-Chem, Inc., Pleasanton, CA (2018)
 Q-Chem 5.1.1 for Intel X86 EM64T Linux

User input:
--------------------------------------------------------------

$comment
potential surface scanner
$end

$rem
JOBTYPE  PES_SCAN
UNRESTRICTED TRUE
SYM_IGNORE  TRUE
GEOM_OPT_MAX_CYCLES 400
SCF_MAX_CYCLES 400
METHOD   B3LYP
BASIS   6-31G**
PDB_PRINT 2
SCF_CONVERGENCE 6
THRESH 14
SCF_PRINT 1
$end
$molecule
0 1
F 1.224484 1.857272 0.280608
C -0.713237 -0.806519 0.233348
C 0.579255 -0.991574 -0.403316
C -1.373043 0.555324 -0.100154
H -0.649428 -0.976930 1.310890
H -1.362442 -1.608123 -0.183131
H 1.431194 -1.420789 0.114840
H 0.705467 -0.763501 -1.458127
H -2.328695 0.637160 0.424580
H -0.647296 1.327250 0.198812
H -1.559361 0.645630 -1.175148
$end
$scan
stre 1 3 3.100000 3.101000 0.100000
$end
--------------------------------------------------------------

   21    -218.2116095667      2.54e-07  Convergence criterion met
 Total energy in the final basis set =     -218.2116095667
   21    -218.2064697934      3.17e-07  Convergence criterion met
 Total energy in the final basis set =     -218.2064697934
   21    -218.2064319847      6.69e-07  Convergence criterion met
 Total energy in the final basis set =     -218.2064319847
   21    -218.2064502868      9.81e-07  Convergence criterion met
 Total energy in the final basis set =     -218.2064502868
   22    -218.2064662565      1.38e-07  Convergence criterion met
 Total energy in the final basis set =     -218.2064662565
   22    -218.2064729966      1.13e-07  Convergence criterion met
 Total energy in the final basis set =     -218.2064729966
   22    -218.2064744260      8.91e-08  Convergence criterion met
 Total energy in the final basis set =     -218.2064744260

             Standard Nuclear Orientation (Angstroms)
    I     Atom           X                Y                Z
 ----------------------------------------------------------------
    1      F       1.1663261313     1.9331401403     0.3141042252
    2      C      -0.7043141130    -0.8057667143     0.2353185546
    3      C       0.5741734201    -1.0214626525    -0.4136840979
    4      C      -1.3584376621     0.5583752045    -0.1017027194
    5      H      -0.6354890041    -0.9732881497     1.3129356170
    6      H      -1.3710212125    -1.5985680874    -0.1734202019
    7      H       1.4251154728    -1.4587891353     0.0995932187
    8      H       0.6942893778    -0.7984511163    -1.4704761825
    9      H      -2.3163373002     0.6417489995     0.4187144313
   10      H      -0.6273047682     1.3292996716     0.1994489262
   11      H      -1.5401023420     0.6489618397    -1.1776297714
 ----------------------------------------------------------------

   22    -218.2064747950      8.29e-08  Convergence criterion met
 Total energy in the final basis set =     -218.2064747950

                    Orbital Energies (a.u.)
 --------------------------------------------------------------

 Alpha MOs
 -- Occupied --
-24.528 -10.305 -10.239 -10.186  -0.957  -0.839  -0.711  -0.624
 -0.521  -0.479  -0.453  -0.393  -0.380  -0.367  -0.232  -0.231
 -0.230

 Beta MOs
 -- Occupied --
-24.528 -10.305 -10.239 -10.186  -0.957  -0.839  -0.711  -0.624
 -0.521  -0.479  -0.453  -0.393  -0.380  -0.367  -0.232  -0.231
 -0.230

          Ground-State Mulliken Net Atomic Charges

     Atom                 Charge (a.u.)    Spin (a.u.)
  --------------------------------------------------------
      1 F                    -0.448573      -0.000002
      2 C                    -0.235634      -0.000000
      3 C                    -0.069036       0.000001
      4 C                    -0.334022       0.000000
      5 H                     0.151180       0.000000
      6 H                     0.157524       0.000000
      7 H                     0.181015      -0.000000
      8 H                     0.179802      -0.000000
      9 H                     0.105717       0.000000
     10 H                     0.206723       0.000000
     11 H                     0.105304      -0.000000
  --------------------------------------------------------
  Sum of atomic charges =    -0.000000

                    Cartesian Multipole Moments
 -----------------------------------------------------------------
    Charge (ESU x 10^10)
                -0.0000
    Dipole Moment (Debye)
         X      -2.1643      Y      -6.1207      Z      -1.2305
       Tot       6.6076
    Quadrupole Moments (Debye-Ang)
        XX     -25.7696     XY      -5.9475     YY     -30.1667
        XZ      -1.3406     YZ      -0.8109     ZZ     -23.4643

 Final energy is   -218.206474794994
 **  OPTIMIZATION CONVERGED  **
 Total job time:  38.40s(wall), 448.96s(cpu)
        *  Thank you very much for using Q-Chem.  Have a nice day.  *
