 Q-Chem 5.1, Q-Chem, Inc., Pleasanton, CA (2018)
 Q-Chem 5.1.1 for Intel X86 EM64T Linux

User input:
--------------------------------------------------------------

$comment
potential surface scanner
$end

$rem
JOBTYPE  PES_SCAN
UNRESTRICTED TRUE
SYM_IGNORE  TRUE
GEOM_OPT_MAX_CYCLES 400
SCF_MAX_CYCLES 400
METHOD   B3LYP
BASIS   6-31G**
PDB_PRINT 2
SCF_CONVERGENCE 6
THRESH 14
SCF_PRINT 1
$end
$molecule
0 1
F 0.173182 2.204934 0.892251
C -0.396460 -0.728499 0.237360
C 0.684974 -1.091267 -0.461680
C -1.639386 -0.108570 -0.335561
H -0.399028 -0.889522 1.316290
H -2.527401 -0.696869 -0.077253
H 1.551732 -1.536803 0.017492
H 0.733180 -0.965640 -1.541014
H -1.778779 0.895459 0.079350
H 0.487503 1.400197 0.541019
H -1.582620 -0.028219 -1.425051
$end
$scan
stre 1 3 3.700000 3.701000 0.100000
$end
--------------------------------------------------------------

    9    -218.3537076052      3.44e-07  Convergence criterion met
 Total energy in the final basis set =     -218.3537076052
    9    -218.3521967467      3.29e-07  Convergence criterion met
 Total energy in the final basis set =     -218.3521967467
    9    -218.3528883500      3.17e-07  Convergence criterion met
 Total energy in the final basis set =     -218.3528883500
    9    -218.3532184257      3.09e-07  Convergence criterion met
 Total energy in the final basis set =     -218.3532184257
    9    -218.3532256671      3.09e-07  Convergence criterion met
 Total energy in the final basis set =     -218.3532256671
    9    -218.3532307727      3.09e-07  Convergence criterion met
 Total energy in the final basis set =     -218.3532307727
    9    -218.3532337224      3.08e-07  Convergence criterion met
 Total energy in the final basis set =     -218.3532337224

             Standard Nuclear Orientation (Angstroms)
    I     Atom           X                Y                Z
 ----------------------------------------------------------------
    1      F       0.1317614845     2.2551744749     0.9219768969
    2      C      -0.3843295874    -0.7340550936     0.2314367464
    3      C       0.6817758781    -1.1267025775    -0.4745873783
    4      C      -1.6255309789    -0.1055093005    -0.3368388899
    5      H      -0.3777249292    -0.8798385082     1.3126054967
    6      H      -2.5155548954    -0.6920767134    -0.0807706024
    7      H       1.5467702622    -1.5797209094     0.0007469356
    8      H       0.7198060179    -1.0169606270    -1.5560479049
    9      H      -1.7627959365     0.8965769467     0.0832251008
   10      H       0.4628789569     1.4592527751     0.5675770848
   11      H      -1.5701592723    -0.0209394671    -1.4261204857
 ----------------------------------------------------------------

    9    -218.3532346177      3.08e-07  Convergence criterion met
 Total energy in the final basis set =     -218.3532346177

                    Orbital Energies (a.u.)
 --------------------------------------------------------------

 Alpha MOs
 -- Occupied --
-24.655 -10.206 -10.194 -10.187  -1.158  -0.796  -0.694  -0.565
 -0.509  -0.476  -0.430  -0.420  -0.379  -0.369  -0.366  -0.356
 -0.271

 Beta MOs
 -- Occupied --
-24.655 -10.206 -10.194 -10.187  -1.158  -0.796  -0.694  -0.565
 -0.509  -0.476  -0.430  -0.420  -0.379  -0.369  -0.366  -0.356
 -0.271

          Ground-State Mulliken Net Atomic Charges

     Atom                 Charge (a.u.)    Spin (a.u.)
  --------------------------------------------------------
      1 F                    -0.364670       0.000000
      2 C                    -0.072412      -0.000000
      3 C                    -0.240999       0.000000
      4 C                    -0.357084       0.000000
      5 H                     0.103317      -0.000000
      6 H                     0.121621      -0.000000
      7 H                     0.107063      -0.000000
      8 H                     0.103393      -0.000000
      9 H                     0.136768      -0.000000
     10 H                     0.350445      -0.000000
     11 H                     0.112559       0.000000
  --------------------------------------------------------
  Sum of atomic charges =     0.000000

                    Cartesian Multipole Moments
 -----------------------------------------------------------------
    Charge (ESU x 10^10)
                 0.0000
    Dipole Moment (Debye)
         X       0.1738      Y      -1.7569      Z      -0.6819
       Tot       1.8926
    Quadrupole Moments (Debye-Ang)
        XX     -23.5108     XY      -0.2629     YY     -31.5117
        XZ      -0.0734     YZ      -2.5993     ZZ     -24.9809

 Final energy is   -218.353234617687
 **  OPTIMIZATION CONVERGED  **
 Total job time:  21.30s(wall), 243.59s(cpu)
        *  Thank you very much for using Q-Chem.  Have a nice day.  *
