 Q-Chem 5.1, Q-Chem, Inc., Pleasanton, CA (2018)
 Q-Chem 5.1.1 for Intel X86 EM64T Linux

User input:
--------------------------------------------------------------

$comment
potential surface scanner
$end

$rem
JOBTYPE  PES_SCAN
UNRESTRICTED TRUE
SYM_IGNORE  TRUE
GEOM_OPT_MAX_CYCLES 400
SCF_MAX_CYCLES 400
METHOD   B3LYP
BASIS   6-31G**
PDB_PRINT 2
SCF_CONVERGENCE 6
THRESH 14
SCF_PRINT 1
$end
$molecule
0 1
F 1.448591 0.994117 0.319175
C -0.677088 -0.684991 0.258439
C 0.666804 -0.716209 -0.361703
C -1.495827 0.543037 -0.146772
H -0.565135 -0.741914 1.345610
H -1.184039 -1.617387 -0.048671
H 1.421918 -1.385155 0.037633
H 0.759600 -0.485170 -1.418671
H -2.462149 0.556856 0.364411
H -0.923906 1.432791 0.119911
H -1.681868 0.559226 -1.226158
$end
$scan
stre 1 3 2.100000 2.101000 0.100000
$end
--------------------------------------------------------------

   10    -218.3067845616      2.68e-07  Convergence criterion met
 Total energy in the final basis set =     -218.3067845616
   10    -218.2932467610      5.64e-07  Convergence criterion met
 Total energy in the final basis set =     -218.2932467610
   10    -218.2930527456      5.49e-07  Convergence criterion met
 Total energy in the final basis set =     -218.2930527456
   10    -218.2930685277      5.59e-07  Convergence criterion met
 Total energy in the final basis set =     -218.2930685277
   10    -218.2930727646      5.62e-07  Convergence criterion met
 Total energy in the final basis set =     -218.2930727646
   10    -218.2930740952      5.60e-07  Convergence criterion met
 Total energy in the final basis set =     -218.2930740952
   10    -218.2930762778      5.56e-07  Convergence criterion met
 Total energy in the final basis set =     -218.2930762778
   10    -218.2930779510      5.52e-07  Convergence criterion met
 Total energy in the final basis set =     -218.2930779510

             Standard Nuclear Orientation (Angstroms)
    I     Atom           X                Y                Z
 ----------------------------------------------------------------
    1      F       1.4461939701     1.0721059269     0.3198331322
    2      C      -0.6839187842    -0.6975407602     0.2549674816
    3      C       0.6524734702    -0.7456673558    -0.3698827977
    4      C      -1.4876861330     0.5433337413    -0.1440048993
    5      H      -0.5723326132    -0.7645430998     1.3414581343
    6      H      -1.2036507624    -1.6222104933    -0.0583708460
    7      H       1.4271804803    -1.3779229948     0.0502119560
    8      H       0.7549937629    -0.5052965862    -1.4235065131
    9      H      -2.4522674423     0.5663133657     0.3699953097
   10      H      -0.8981787912     1.4207541940     0.1253102834
   11      H      -1.6759061572     0.5658750621    -1.2228072409
 ----------------------------------------------------------------

   10    -218.2930789409      5.49e-07  Convergence criterion met
 Total energy in the final basis set =     -218.2930789409

                    Orbital Energies (a.u.)
 --------------------------------------------------------------

 Alpha MOs
 -- Occupied --
-24.577 -10.288 -10.217 -10.183  -1.004  -0.816  -0.700  -0.609
 -0.493  -0.467  -0.439  -0.380  -0.371  -0.363  -0.301  -0.273
 -0.272

 Beta MOs
 -- Occupied --
-24.577 -10.288 -10.217 -10.183  -1.004  -0.816  -0.700  -0.609
 -0.493  -0.467  -0.439  -0.380  -0.371  -0.363  -0.301  -0.273
 -0.272

          Ground-State Mulliken Net Atomic Charges

     Atom                 Charge (a.u.)    Spin (a.u.)
  --------------------------------------------------------
      1 F                    -0.408614       0.000000
      2 C                    -0.208132       0.000000
      3 C                    -0.019927       0.000000
      4 C                    -0.323020      -0.000000
      5 H                     0.144670      -0.000000
      6 H                     0.122080      -0.000000
      7 H                     0.159874      -0.000000
      8 H                     0.160714      -0.000000
      9 H                     0.105907       0.000000
     10 H                     0.164066       0.000000
     11 H                     0.102382       0.000000
  --------------------------------------------------------
  Sum of atomic charges =     0.000000

                    Cartesian Multipole Moments
 -----------------------------------------------------------------
    Charge (ESU x 10^10)
                 0.0000
    Dipole Moment (Debye)
         X      -2.0699      Y      -3.4593      Z      -1.0822
       Tot       4.1740
    Quadrupole Moments (Debye-Ang)
        XX     -27.4351     XY      -4.0157     YY     -25.2020
        XZ      -1.5248     YZ      -0.2961     ZZ     -23.7533

 Final energy is   -218.293078940926
 **  OPTIMIZATION CONVERGED  **
 Total job time:  26.24s(wall), 299.54s(cpu)
        *  Thank you very much for using Q-Chem.  Have a nice day.  *
