 Q-Chem 5.1, Q-Chem, Inc., Pleasanton, CA (2018)
 Q-Chem 5.1.1 for Intel X86 EM64T Linux

User input:
--------------------------------------------------------------

$comment
potential surface scanner
$end

$rem
JOBTYPE  PES_SCAN
UNRESTRICTED TRUE
SYM_IGNORE  TRUE
GEOM_OPT_MAX_CYCLES 400
SCF_MAX_CYCLES 400
METHOD   B3LYP
BASIS   6-31G**
PDB_PRINT 2
SCF_CONVERGENCE 6
THRESH 14
SCF_PRINT 1
$end
$molecule
0 1
F 1.430948 1.231702 0.333458
C -0.694880 -0.720880 0.249138
C 0.628624 -0.800932 -0.383950
C -1.470329 0.543090 -0.140507
H -0.584821 -0.805074 1.334284
H -1.238826 -1.630639 -0.075380
H 1.430287 -1.378404 0.063541
H 0.745219 -0.539561 -1.430930
H -2.427971 0.587880 0.384582
H -0.843234 1.395540 0.126178
H -1.668117 0.572478 -1.217213
$end
$scan
stre 1 3 2.400000 2.401000 0.100000
$end
--------------------------------------------------------------

   11    -218.2685947210      2.04e-07  Convergence criterion met
 Total energy in the final basis set =     -218.2685947210
   10    -218.2579448883      6.02e-07  Convergence criterion met
 Total energy in the final basis set =     -218.2579448883
   10    -218.2578002440      5.44e-07  Convergence criterion met
 Total energy in the final basis set =     -218.2578002440
   10    -218.2578178398      5.61e-07  Convergence criterion met
 Total energy in the final basis set =     -218.2578178398
   10    -218.2578293297      5.92e-07  Convergence criterion met
 Total energy in the final basis set =     -218.2578293297
   10    -218.2578320541      6.14e-07  Convergence criterion met
 Total energy in the final basis set =     -218.2578320541
   10    -218.2578357047      6.63e-07  Convergence criterion met
 Total energy in the final basis set =     -218.2578357047
   10    -218.2578376374      6.93e-07  Convergence criterion met
 Total energy in the final basis set =     -218.2578376374
   10    -218.2578396622      7.19e-07  Convergence criterion met
 Total energy in the final basis set =     -218.2578396622
   10    -218.2578410876      7.26e-07  Convergence criterion met
 Total energy in the final basis set =     -218.2578410876
   10    -218.2578423875      7.19e-07  Convergence criterion met
 Total energy in the final basis set =     -218.2578423875

             Standard Nuclear Orientation (Angstroms)
    I     Atom           X                Y                Z
 ----------------------------------------------------------------
    1      F       1.4165505311     1.3197155584     0.3276053284
    2      C      -0.7006166414    -0.7344270380     0.2460208155
    3      C       0.6187761174    -0.8278566224    -0.3875797585
    4      C      -1.4593844803     0.5436258741    -0.1363187799
    5      H      -0.5961427997    -0.8316206354     1.3305543831
    6      H      -1.2571332414    -1.6333518024    -0.0903801900
    7      H       1.4315899165    -1.3782461725     0.0739966970
    8      H       0.7406557563    -0.5628821902    -1.4331085470
    9      H      -2.4143447561     0.5983691450     0.3926127212
   10      H      -0.8132050907     1.3818697210     0.1320220705
   11      H      -1.6598453117     0.5800041624    -1.2122237403
 ----------------------------------------------------------------

   10    -218.2578433270      7.05e-07  Convergence criterion met
 Total energy in the final basis set =     -218.2578433270

                    Orbital Energies (a.u.)
 --------------------------------------------------------------

 Alpha MOs
 -- Occupied --
-24.556 -10.298 -10.226 -10.185  -0.980  -0.826  -0.705  -0.616
 -0.504  -0.472  -0.446  -0.386  -0.374  -0.366  -0.270  -0.254
 -0.253

 Beta MOs
 -- Occupied --
-24.556 -10.298 -10.226 -10.185  -0.980  -0.826  -0.705  -0.616
 -0.504  -0.472  -0.446  -0.386  -0.374  -0.366  -0.270  -0.254
 -0.253

          Ground-State Mulliken Net Atomic Charges

     Atom                 Charge (a.u.)    Spin (a.u.)
  --------------------------------------------------------
      1 F                    -0.426484      -0.000000
      2 C                    -0.218249       0.000000
      3 C                    -0.045898       0.000000
      4 C                    -0.326389      -0.000000
      5 H                     0.150318      -0.000000
      6 H                     0.133932      -0.000000
      7 H                     0.171947       0.000000
      8 H                     0.172888       0.000000
      9 H                     0.106460       0.000000
     10 H                     0.178499      -0.000000
     11 H                     0.102975       0.000000
  --------------------------------------------------------
  Sum of atomic charges =    -0.000000

                    Cartesian Multipole Moments
 -----------------------------------------------------------------
    Charge (ESU x 10^10)
                -0.0000
    Dipole Moment (Debye)
         X      -2.2941      Y      -4.3489      Z      -1.1835
       Tot       5.0573
    Quadrupole Moments (Debye-Ang)
        XX     -27.3102     XY      -4.9137     YY     -26.1356
        XZ      -1.6099     YZ      -0.4746     ZZ     -23.5829

 Final energy is   -218.257843326979
 **  OPTIMIZATION CONVERGED  **
 Total job time:  34.33s(wall), 397.95s(cpu)
        *  Thank you very much for using Q-Chem.  Have a nice day.  *
