 Q-Chem 5.1, Q-Chem, Inc., Pleasanton, CA (2018)
 Q-Chem 5.1.1 for Intel X86 EM64T Linux

User input:
--------------------------------------------------------------

$comment
potential surface scanner
$end

$rem
JOBTYPE  PES_SCAN
UNRESTRICTED TRUE
SYM_IGNORE  TRUE
GEOM_OPT_MAX_CYCLES 400
SCF_MAX_CYCLES 400
METHOD   B3LYP
BASIS   6-31G**
PDB_PRINT 2
SCF_CONVERGENCE 6
THRESH 14
SCF_PRINT 1
$end
$molecule
0 3
F 0.801375 0.759315 -0.765361
C -0.650324 -1.048874 -0.073253
C 0.707799 -0.497755 0.047671
C -1.815428 -0.322181 0.503392
H -0.828373 -1.839038 -0.797849
H -2.702322 -0.957940 0.579907
H 1.483584 -1.161543 -0.338611
H 0.950512 -0.181737 1.067478
H -1.586297 0.080843 1.497655
H 1.028890 3.082289 -2.352009
H -2.082522 0.541823 -0.125825
$end
$scan
stre 1 3 1.400000 1.401000 0.100000
$end
--------------------------------------------------------------

   10    -218.2091606920      5.26e-07  Convergence criterion met
 Total energy in the final basis set =     -218.2091606920
   10    -218.2111225322      3.44e-07  Convergence criterion met
 Total energy in the final basis set =     -218.2111225322
   10    -218.2114521814      3.44e-07  Convergence criterion met
 Total energy in the final basis set =     -218.2114521814
   10    -218.2118286820      3.54e-07  Convergence criterion met
 Total energy in the final basis set =     -218.2118286820
   10    -218.2118325910      3.54e-07  Convergence criterion met
 Total energy in the final basis set =     -218.2118325910
   10    -218.2118372916      3.54e-07  Convergence criterion met
 Total energy in the final basis set =     -218.2118372916
   10    -218.2118390136      3.54e-07  Convergence criterion met
 Total energy in the final basis set =     -218.2118390136
   10    -218.2118482629      3.53e-07  Convergence criterion met
   10    -218.2119251061      3.40e-07  Convergence criterion met
 Total energy in the final basis set =     -218.2119251061
   10    -218.2119264542      3.40e-07  Convergence criterion met
 Total energy in the final basis set =     -218.2119264542
   10    -218.2119278946      3.39e-07  Convergence criterion met
 Total energy in the final basis set =     -218.2119278946
   10    -218.2119294734      3.38e-07  Convergence criterion met
 Total energy in the final basis set =     -218.2119294734
   10    -218.2119311531      3.38e-07  Convergence criterion met
 Total energy in the final basis set =     -218.2119311531
   10    -218.2119325989      3.38e-07  Convergence criterion met
 Total energy in the final basis set =     -218.2119325989

             Standard Nuclear Orientation (Angstroms)
    I     Atom           X                Y                Z
 ----------------------------------------------------------------
    1      F       0.7953788246     0.7153148531    -0.6393545669
    2      C      -0.6385030142    -1.0777411520    -0.0247426148
    3      C       0.7401784529    -0.5273783652     0.0030366598
    4      C      -1.7907007456    -0.2319432513     0.3955849082
    5      H      -0.8133037463    -2.0511300867    -0.4729689298
    6      H      -2.6889891289    -0.8277240619     0.5809840825
    7      H       1.4547445978    -1.2000394133    -0.4851670867
    8      H       1.0827937402    -0.3567795436     1.0365265189
    9      H      -1.5592184208     0.3389125113     1.3047420656
   10      H       0.7665811264     3.1595799414    -2.0811425996
   11      H      -2.0420676862     0.5141305682    -0.3743034372
 ----------------------------------------------------------------

   10    -218.2119335111      3.38e-07  Convergence criterion met
 Total energy in the final basis set =     -218.2119335111

                    Orbital Energies (a.u.)
 --------------------------------------------------------------

 Alpha MOs
 -- Occupied --
-24.661 -10.255 -10.201 -10.185  -1.166  -0.787  -0.693  -0.582
 -0.491  -0.479  -0.457  -0.411  -0.395  -0.379  -0.329  -0.325
 -0.300  -0.204

 Beta MOs
 -- Occupied --
-24.659 -10.256 -10.187 -10.186  -1.163  -0.767  -0.690  -0.563
 -0.487  -0.470  -0.451  -0.400  -0.391  -0.374  -0.325  -0.320

          Ground-State Mulliken Net Atomic Charges

     Atom                 Charge (a.u.)    Spin (a.u.)
  --------------------------------------------------------
      1 F                    -0.323979       0.030855
      2 C                    -0.108970       1.005880
      3 C                     0.120006      -0.038519
      4 C                    -0.337328      -0.078129
      5 H                     0.103026      -0.045710
      6 H                     0.112176       0.007992
      7 H                     0.092357       0.003181
      8 H                     0.093209       0.034138
      9 H                     0.115739       0.026997
     10 H                    -0.001493       0.998030
     11 H                     0.135257       0.055284
  --------------------------------------------------------
  Sum of atomic charges =     0.000000

                    Cartesian Multipole Moments
 -----------------------------------------------------------------
    Charge (ESU x 10^10)
                -0.0000
    Dipole Moment (Debye)
         X      -0.4883      Y      -1.3753      Z       0.7159
       Tot       1.6255
    Quadrupole Moments (Debye-Ang)
        XX     -24.6312     XY      -1.1535     YY     -25.6224
        XZ       0.6033     YZ       1.2018     ZZ     -26.1919

 Final energy is   -218.211933511147
 **  OPTIMIZATION CONVERGED  **
 Total job time:  75.06s(wall), 861.44s(cpu)
        *  Thank you very much for using Q-Chem.  Have a nice day.  *
