 Q-Chem 5.1, Q-Chem, Inc., Pleasanton, CA (2018)
 Q-Chem 5.1.1 for Intel X86 EM64T Linux

User input:
--------------------------------------------------------------

$comment
potential surface scanner
$end

$rem
JOBTYPE  PES_SCAN
UNRESTRICTED TRUE
SYM_IGNORE  TRUE
GEOM_OPT_MAX_CYCLES 400
SCF_MAX_CYCLES 400
METHOD   B3LYP
BASIS   6-31G**
PDB_PRINT 2
SCF_CONVERGENCE 6
THRESH 14
SCF_PRINT 1
$end
$molecule
0 3
F 0.663038 1.599098 -0.701945
C -0.389842 -0.516640 0.499455
C 0.716054 -0.784123 -0.423650
C -1.743466 -0.099088 -0.003202
H -0.365330 -0.991152 1.485879
H -2.286505 -0.963337 -0.421845
H 0.731091 -1.753932 -0.931890
H 1.672096 -0.281847 -0.370169
H -2.368155 0.309771 0.798095
H 0.329941 1.297682 0.117604
H -1.652026 0.638766 -0.805138
$end
$scan
stre 1 3 2.300000 2.301000 0.100000
$end
--------------------------------------------------------------

   10    -218.2377323182      4.00e-07  Convergence criterion met
 Total energy in the final basis set =     -218.2377323182
   10    -218.2321063401      4.07e-07  Convergence criterion met
 Total energy in the final basis set =     -218.2321063401
   10    -218.2322029443      4.08e-07  Convergence criterion met
 Total energy in the final basis set =     -218.2322029443
   10    -218.2323183914      4.09e-07  Convergence criterion met
 Total energy in the final basis set =     -218.2323183914
   10    -218.2323778896      4.09e-07  Convergence criterion met
 Total energy in the final basis set =     -218.2323778896
   10    -218.2324212161      4.09e-07  Convergence criterion met
 Total energy in the final basis set =     -218.2324212161
   10    -218.2324398520      4.08e-07  Convergence criterion met
 Total energy in the final basis set =     -218.2324398520
   10    -218.2324568911      4.07e-07  Convergence criterion met
 Total energy in the final basis set =     -218.2324568911
   10    -218.2324724573      4.06e-07  Convergence criterion met
 Total energy in the final basis set =     -218.2324724573
   10    -218.2324850047      4.06e-07  Convergence criterion met
 Total energy in the final basis set =     -218.2324850047
   10    -218.2324893673      4.07e-07  Convergence criterion met
 Total energy in the final basis set =     -218.2324893673

             Standard Nuclear Orientation (Angstroms)
    I     Atom           X                Y                Z
 ----------------------------------------------------------------
    1      F       0.6437779070     1.5193688320    -0.8172189510
    2      C      -0.3968499372    -0.5355152413     0.5122336375
    3      C       0.7328458336    -0.7411007606    -0.4020741964
    4      C      -1.7448282759    -0.0898530752     0.0186676268
    5      H      -0.3949500981    -1.0851836725     1.4594319677
    6      H      -2.2989861028    -0.9388814915    -0.4169904344
    7      H       0.7527689923    -1.6726261230    -0.9789940285
    8      H       1.7087685222    -0.3045824904    -0.2313406593
    9      H      -2.3661717200     0.3060696194     0.8296731240
   10      H       0.3204088932     1.3338176190     0.0374665059
   11      H      -1.6498880144     0.6636847841    -0.7676605923
 ----------------------------------------------------------------

   10    -218.2324902658      4.07e-07  Convergence criterion met
 Total energy in the final basis set =     -218.2324902658

                    Orbital Energies (a.u.)
 --------------------------------------------------------------

 Alpha MOs
 -- Occupied --
-24.663 -10.208 -10.188 -10.188  -1.171  -0.790  -0.690  -0.571
 -0.525  -0.457  -0.444  -0.412  -0.400  -0.379  -0.370  -0.359
 -0.216  -0.188

 Beta MOs
 -- Occupied --
-24.661 -10.196 -10.188 -10.175  -1.166  -0.762  -0.665  -0.541
 -0.518  -0.445  -0.422  -0.401  -0.385  -0.373  -0.359  -0.350

          Ground-State Mulliken Net Atomic Charges

     Atom                 Charge (a.u.)    Spin (a.u.)
  --------------------------------------------------------
      1 F                    -0.323247       0.041493
      2 C                    -0.168138       0.905139
      3 C                    -0.213774       0.980748
      4 C                    -0.334056      -0.045156
      5 H                     0.100429       0.005180
      6 H                     0.123579       0.064333
      7 H                     0.100805       0.016437
      8 H                     0.119725      -0.014836
      9 H                     0.112784       0.015728
     10 H                     0.353709       0.018620
     11 H                     0.128184       0.012313
  --------------------------------------------------------
  Sum of atomic charges =     0.000000

                    Cartesian Multipole Moments
 -----------------------------------------------------------------
    Charge (ESU x 10^10)
                 0.0000
    Dipole Moment (Debye)
         X      -0.7892      Y      -0.7089      Z       1.3748
       Tot       1.7365
    Quadrupole Moments (Debye-Ang)
        XX     -24.5824     XY      -0.6981     YY     -26.1025
        XZ       0.6631     YZ       2.1917     ZZ     -26.4029

 Final energy is   -218.232490265819
 **  OPTIMIZATION CONVERGED  **
 Total job time:  34.98s(wall), 396.56s(cpu)
        *  Thank you very much for using Q-Chem.  Have a nice day.  *
