 Q-Chem 5.1, Q-Chem, Inc., Pleasanton, CA (2018)
 Q-Chem 5.1.1 for Intel X86 EM64T Linux

User input:
--------------------------------------------------------------

$comment
potential surface scanner
$end

$rem
JOBTYPE  PES_SCAN
UNRESTRICTED TRUE
SYM_IGNORE  TRUE
GEOM_OPT_MAX_CYCLES 400
SCF_MAX_CYCLES 400
METHOD   B3LYP
BASIS   6-31G**
PDB_PRINT 2
SCF_CONVERGENCE 6
THRESH 14
SCF_PRINT 1
$end
$molecule
0 1
F 1.357600 0.611300 0.151500
C -0.630200 -0.630500 0.280500
C 0.769500 -0.528800 -0.298100
C -1.496900 0.548000 -0.133900
H -0.568500 -0.651900 1.374300
H -1.098000 -1.565100 -0.046700
H 1.386100 -1.374200 0.020100
H 0.753300 -0.494500 -1.391400
H -2.499800 0.449100 0.293300
H -1.071200 1.493600 0.216700
H -1.595000 0.598200 -1.223100
$end
$scan
stre 1 3 0.700000 0.701000 0.100000
$end
--------------------------------------------------------------

    9    -218.3794177513      2.24e-07  Convergence criterion met
 Total energy in the final basis set =     -218.3794177513
    8    -218.3572752955      8.83e-07  Convergence criterion met
 Total energy in the final basis set =     -218.3572752955
    9    -218.2621521656      3.11e-07  Convergence criterion met
 Total energy in the final basis set =     -218.2621521656
    9    -218.1448517233      3.20e-07  Convergence criterion met
 Total energy in the final basis set =     -218.1448517233
    8    -217.8714493767      9.01e-07  Convergence criterion met
 Total energy in the final basis set =     -217.8714493767
    8    -217.6668840673      8.56e-07  Convergence criterion met
 Total energy in the final basis set =     -217.6668840673
    8    -217.4541464201      8.92e-07  Convergence criterion met
 Total energy in the final basis set =     -217.4541464201
    9    -217.2358818664      5.02e-07  Convergence criterion met
    9    -216.5765643306      4.64e-07  Convergence criterion met
 Total energy in the final basis set =     -216.5765643306
    9    -216.5765660570      4.64e-07  Convergence criterion met
 Total energy in the final basis set =     -216.5765660570
    9    -216.5765672286      4.64e-07  Convergence criterion met
 Total energy in the final basis set =     -216.5765672286
    9    -216.5765682995      4.64e-07  Convergence criterion met
 Total energy in the final basis set =     -216.5765682995
    9    -216.5765696532      4.63e-07  Convergence criterion met
 Total energy in the final basis set =     -216.5765696532
    9    -216.5765709654      4.62e-07  Convergence criterion met
 Total energy in the final basis set =     -216.5765709654

             Standard Nuclear Orientation (Angstroms)
    I     Atom           X                Y                Z
 ----------------------------------------------------------------
    1      F       1.3128224519     0.2594649255    -0.0435002925
    2      C      -0.6406221761    -0.5538625939     0.3492857191
    3      C       0.9628340564    -0.3187402624    -0.2256744574
    4      C      -1.5602636619     0.5796755745    -0.1042548639
    5      H      -0.6323113542    -0.6382619060     1.4488905313
    6      H      -0.9339584441    -1.5202555873    -0.0696473694
    7      H       1.4632661031    -1.4730946367     0.0662883542
    8      H       0.7388673217    -0.5385889536    -1.4880127964
    9      H      -2.6011001390     0.4462978918     0.2144262079
   10      H      -1.2402235069     1.5547762470     0.2945137328
   11      H      -1.5624106508     0.6577893010    -1.1991147658
 ----------------------------------------------------------------

    9    -216.5765717472      4.61e-07  Convergence criterion met
 Total energy in the final basis set =     -216.5765717472

                    Orbital Energies (a.u.)
 --------------------------------------------------------------

 Alpha MOs
 -- Occupied --
-24.983 -10.490 -10.168 -10.143  -1.795  -0.968  -0.966  -0.852
 -0.736  -0.619  -0.518  -0.421  -0.394  -0.348  -0.330  -0.218
 -0.209

 Beta MOs
 -- Occupied --
-24.983 -10.490 -10.168 -10.143  -1.795  -0.968  -0.966  -0.852
 -0.736  -0.619  -0.518  -0.421  -0.394  -0.348  -0.330  -0.218
 -0.209

          Ground-State Mulliken Net Atomic Charges

     Atom                 Charge (a.u.)    Spin (a.u.)
  --------------------------------------------------------
      1 F                     1.002874      -0.000000
      2 C                    -0.344266      -0.000000
      3 C                    -0.393933       0.000000
      4 C                    -0.324458      -0.000000
      5 H                     0.068469       0.000000
      6 H                     0.100590      -0.000000
      7 H                    -0.193441      -0.000000
      8 H                    -0.200510      -0.000000
      9 H                     0.108972       0.000000
     10 H                     0.068546       0.000000
     11 H                     0.107158       0.000000
  --------------------------------------------------------
  Sum of atomic charges =    -0.000000

                    Cartesian Multipole Moments
 -----------------------------------------------------------------
    Charge (ESU x 10^10)
                -0.0000
    Dipole Moment (Debye)
         X       1.5079      Y       2.7991      Z       1.1139
       Tot       3.3689
    Quadrupole Moments (Debye-Ang)
        XX     -23.9212     XY       4.0553     YY     -28.3648
        XZ       1.1093     YZ      -0.4073     ZZ     -28.3759

 Final energy is   -216.576571747196
 **  OPTIMIZATION CONVERGED  **
 Total job time:  79.12s(wall), 917.83s(cpu)
        *  Thank you very much for using Q-Chem.  Have a nice day.  *
