 Q-Chem 5.1, Q-Chem, Inc., Pleasanton, CA (2018)
 Q-Chem 5.1.1 for Intel X86 EM64T Linux

User input:
--------------------------------------------------------------

$comment
potential surface scanner
$end

$rem
JOBTYPE  PES_SCAN
UNRESTRICTED TRUE
SYM_IGNORE  TRUE
GEOM_OPT_MAX_CYCLES 400
SCF_MAX_CYCLES 400
METHOD   B3LYP
BASIS   6-31G**
PDB_PRINT 2
SCF_CONVERGENCE 6
THRESH 14
SCF_PRINT 1
$end
$molecule
0 1
F 1.439831 0.862992 0.276939
C -0.663815 -0.663990 0.264320
C 0.699066 -0.657757 -0.338358
C -1.506005 0.546172 -0.144358
H -0.564654 -0.718288 1.353209
H -1.147364 -1.603162 -0.050811
H 1.414457 -1.386421 0.032578
H 0.765288 -0.478692 -1.408914
H -2.480545 0.532852 0.351350
H -0.972607 1.456571 0.133631
H -1.676754 0.564924 -1.226381
$end
$scan
stre 1 3 1.900000 1.901000 0.100000
$end
--------------------------------------------------------------

    9    -218.3362334315      4.45e-07  Convergence criterion met
 Total energy in the final basis set =     -218.3362334315
    9    -218.3214316662      6.12e-07  Convergence criterion met
 Total energy in the final basis set =     -218.3214316662
    9    -218.3211037372      6.16e-07  Convergence criterion met
 Total energy in the final basis set =     -218.3211037372
    9    -218.3212665133      6.17e-07  Convergence criterion met
 Total energy in the final basis set =     -218.3212665133
    9    -218.3212693747      6.18e-07  Convergence criterion met
 Total energy in the final basis set =     -218.3212693747

             Standard Nuclear Orientation (Angstroms)
    I     Atom           X                Y                Z
 ----------------------------------------------------------------
    1      F       1.4427462207     0.9281338993     0.2988866237
    2      C      -0.6709404079    -0.6750030794     0.2613143071
    3      C       0.6821318749    -0.6873817306    -0.3504004691
    4      C      -1.5007673459     0.5444356757    -0.1457497843
    5      H      -0.5649023902    -0.7302689161     1.3492820992
    6      H      -1.1662981709    -1.6109502424    -0.0494155712
    7      H       1.4192117240    -1.3846938718     0.0353845822
    8      H       0.7627972148    -0.4804732888    -1.4139539712
    9      H      -2.4708436164     0.5460272648     0.3585583756
   10      H      -0.9464123470     1.4439328867     0.1256635689
   11      H      -1.6798247561     0.5614424026    -1.2263647610
 ----------------------------------------------------------------

    9    -218.3212701226      6.18e-07  Convergence criterion met
 Total energy in the final basis set =     -218.3212701226

                    Orbital Energies (a.u.)
 --------------------------------------------------------------

 Alpha MOs
 -- Occupied --
-24.597 -10.279 -10.210 -10.182  -1.031  -0.808  -0.696  -0.603
 -0.485  -0.465  -0.433  -0.377  -0.370  -0.361  -0.328  -0.292
 -0.290

 Beta MOs
 -- Occupied --
-24.597 -10.279 -10.210 -10.182  -1.031  -0.808  -0.696  -0.603
 -0.485  -0.465  -0.433  -0.377  -0.370  -0.361  -0.328  -0.292
 -0.290

          Ground-State Mulliken Net Atomic Charges

     Atom                 Charge (a.u.)    Spin (a.u.)
  --------------------------------------------------------
      1 F                    -0.395423       0.000000
      2 C                    -0.202644       0.000000
      3 C                     0.012816      -0.000000
      4 C                    -0.321496       0.000000
      5 H                     0.137514      -0.000000
      6 H                     0.113632      -0.000000
      7 H                     0.146887       0.000000
      8 H                     0.147750       0.000000
      9 H                     0.105391      -0.000000
     10 H                     0.153501      -0.000000
     11 H                     0.102071      -0.000000
  --------------------------------------------------------
  Sum of atomic charges =     0.000000

                    Cartesian Multipole Moments
 -----------------------------------------------------------------
    Charge (ESU x 10^10)
                 0.0000
    Dipole Moment (Debye)
         X      -1.8070      Y      -2.8543      Z      -0.9532
       Tot       3.5101
    Quadrupole Moments (Debye-Ang)
        XX     -27.3280     XY      -3.3524     YY     -24.9077
        XZ      -1.3563     YZ      -0.1757     ZZ     -23.9269

 Final energy is   -218.321270122579
 **  OPTIMIZATION CONVERGED  **
 Total job time:  22.40s(wall), 194.19s(cpu)
        *  Thank you very much for using Q-Chem.  Have a nice day.  *
