 Q-Chem 5.1, Q-Chem, Inc., Pleasanton, CA (2018)
 Q-Chem 5.1.1 for Intel X86 EM64T Linux

User input:
--------------------------------------------------------------

$comment
potential surface scanner
$end

$rem
JOBTYPE  PES_SCAN
UNRESTRICTED TRUE
SYM_IGNORE  TRUE
GEOM_OPT_MAX_CYCLES 400
SCF_MAX_CYCLES 400
METHOD   B3LYP
BASIS   6-31G**
PDB_PRINT 2
SCF_CONVERGENCE 6
THRESH 14
SCF_PRINT 1
$end
$molecule
0 3
F 0.691766 1.995852 -0.299382
C -0.362171 -0.521576 0.465218
C 0.687819 -1.001443 -0.426689
C -1.717190 -0.138119 -0.062701
H -0.277336 -0.724071 1.536273
H -2.245961 -1.013311 -0.473229
H 0.698468 -2.032118 -0.781658
H 1.435400 -0.326928 -0.835303
H -2.349513 0.294856 0.717980
H 0.367339 1.337515 0.283933
H -1.621724 0.584542 -0.881246
$end
$scan
stre 1 3 2.900000 2.901000 0.100000
$end
--------------------------------------------------------------

   10    -218.2512555656      4.10e-07  Convergence criterion met
 Total energy in the final basis set =     -218.2512555656
   10    -218.2506212769      4.18e-07  Convergence criterion met
 Total energy in the final basis set =     -218.2506212769
   10    -218.2507717402      4.14e-07  Convergence criterion met
 Total energy in the final basis set =     -218.2507717402
   10    -218.2507984621      4.10e-07  Convergence criterion met
 Total energy in the final basis set =     -218.2507984621
   10    -218.2507996696      4.09e-07  Convergence criterion met
 Total energy in the final basis set =     -218.2507996696
   10    -218.2508019500      4.08e-07  Convergence criterion met
 Total energy in the final basis set =     -218.2508019500
   10    -218.2508036258      4.08e-07  Convergence criterion met
 Total energy in the final basis set =     -218.2508036258
   10    -218.2508057278      4.08e-07  Convergence criterion met
 Total energy in the final basis set =     -218.2508057278
   10    -218.2508071776      4.09e-07  Convergence criterion met
 Total energy in the final basis set =     -218.2508071776
   10    -218.2508084995      4.10e-07  Convergence criterion met
 Total energy in the final basis set =     -218.2508084995
   10    -218.2508097387      4.10e-07  Convergence criterion met
 Total energy in the final basis set =     -218.2508097387
   10    -218.2508107548      4.10e-07  Convergence criterion met
 Total energy in the final basis set =     -218.2508107548

             Standard Nuclear Orientation (Angstroms)
    I     Atom           X                Y                Z
 ----------------------------------------------------------------
    1      F       0.7569652454     1.9305641787    -0.3196731191
    2      C      -0.3728699811    -0.5114097999     0.4666628997
    3      C       0.6857945518    -0.9665277946    -0.4282755539
    4      C      -1.7325643988    -0.1439281305    -0.0595235968
    5      H      -0.2876570249    -0.7250821057     1.5356457398
    6      H      -2.2549104610    -1.0271074251    -0.4615203694
    7      H       0.7105814971    -1.9958891001    -0.7869516018
    8      H       1.4324730462    -0.2831269541    -0.8206917473
    9      H      -2.3669875170     0.2886050499     0.7198352625
   10      H       0.3825390508     1.3166274338     0.2822046287
   11      H      -1.6464670085     0.5724736475    -0.8845165424
 ----------------------------------------------------------------

   10    -218.2508112128      4.10e-07  Convergence criterion met
 Total energy in the final basis set =     -218.2508112128

                    Orbital Energies (a.u.)
 --------------------------------------------------------------

 Alpha MOs
 -- Occupied --
-24.649 -10.218 -10.201 -10.195  -1.153  -0.800  -0.697  -0.584
 -0.512  -0.461  -0.449  -0.416  -0.407  -0.375  -0.364  -0.362
 -0.219  -0.215

 Beta MOs
 -- Occupied --
-24.648 -10.206 -10.195 -10.188  -1.150  -0.770  -0.672  -0.553
 -0.503  -0.448  -0.428  -0.403  -0.393  -0.366  -0.362  -0.359

          Ground-State Mulliken Net Atomic Charges

     Atom                 Charge (a.u.)    Spin (a.u.)
  --------------------------------------------------------
      1 F                    -0.368572       0.030282
      2 C                    -0.176864       0.878987
      3 C                    -0.239289       1.008206
      4 C                    -0.327616      -0.035025
      5 H                     0.120572       0.001146
      6 H                     0.126058       0.058867
      7 H                     0.117409       0.003334
      8 H                     0.143751      -0.009146
      9 H                     0.116750       0.012901
     10 H                     0.351605       0.024961
     11 H                     0.136196       0.025486
  --------------------------------------------------------
  Sum of atomic charges =     0.000000

                    Cartesian Multipole Moments
 -----------------------------------------------------------------
    Charge (ESU x 10^10)
                 0.0000
    Dipole Moment (Debye)
         X      -1.1778      Y      -1.7375      Z       0.8646
       Tot       2.2702
    Quadrupole Moments (Debye-Ang)
        XX     -25.0421     XY      -1.5839     YY     -28.8092
        XZ      -0.0594     YZ       1.6747     ZZ     -24.7800

 Final energy is   -218.250811212844
 **  OPTIMIZATION CONVERGED  **
 Total job time:  39.57s(wall), 430.39s(cpu)
        *  Thank you very much for using Q-Chem.  Have a nice day.  *
