 Q-Chem 5.1, Q-Chem, Inc., Pleasanton, CA (2018)
 Q-Chem 5.1.1 for Intel X86 EM64T Linux

User input:
--------------------------------------------------------------

$comment
potential surface scanner
$end

$rem
JOBTYPE  PES_SCAN
UNRESTRICTED TRUE
SYM_IGNORE  TRUE
GEOM_OPT_MAX_CYCLES 400
SCF_MAX_CYCLES 400
METHOD   B3LYP
BASIS   6-31G**
PDB_PRINT 2
SCF_CONVERGENCE 6
THRESH 14
SCF_PRINT 1
$end
$molecule
0 1
F 1.378715 1.500015 0.307468
C -0.710825 -0.762319 0.239872
C 0.602525 -0.880879 -0.391724
C -1.434710 0.545524 -0.125297
H -0.620617 -0.887003 1.322661
H -1.294370 -1.633668 -0.125785
H 1.433625 -1.379831 0.095705
H 0.731784 -0.619165 -1.437547
H -2.385846 0.615747 0.408792
H -0.755738 1.357801 0.148930
H -1.637643 0.598978 -1.199874
$end
$scan
stre 1 3 2.700000 2.701000 0.100000
$end
--------------------------------------------------------------

   12    -218.2392085265      6.16e-07  Convergence criterion met
 Total energy in the final basis set =     -218.2392085265
   12    -218.2312223799      1.94e-07  Convergence criterion met
 Total energy in the final basis set =     -218.2312223799
   12    -218.2311196833      2.03e-07  Convergence criterion met
 Total energy in the final basis set =     -218.2311196833
   12    -218.2311303843      1.98e-07  Convergence criterion met
 Total energy in the final basis set =     -218.2311303843
   12    -218.2311385936      1.90e-07  Convergence criterion met
 Total energy in the final basis set =     -218.2311385936
   12    -218.2311441844      1.86e-07  Convergence criterion met
 Total energy in the final basis set =     -218.2311441844
   12    -218.2311469381      1.85e-07  Convergence criterion met
 Total energy in the final basis set =     -218.2311469381
   12    -218.2311486232      1.83e-07  Convergence criterion met
 Total energy in the final basis set =     -218.2311486232
   12    -218.2311504028      1.77e-07  Convergence criterion met
 Total energy in the final basis set =     -218.2311504028
   12    -218.2311525892      1.66e-07  Convergence criterion met
 Total energy in the final basis set =     -218.2311525892
   12    -218.2311544463      1.57e-07  Convergence criterion met
 Total energy in the final basis set =     -218.2311544463

             Standard Nuclear Orientation (Angstroms)
    I     Atom           X                Y                Z
 ----------------------------------------------------------------
    1      F       1.3519295908     1.5932929657     0.2878779586
    2      C      -0.7146309429    -0.7762632703     0.2371643478
    3      C       0.5960440270    -0.9079641913    -0.3920832041
    4      C      -1.4204821310     0.5475322801    -0.1173828986
    5      H      -0.6347617590    -0.9175498992     1.3185055234
    6      H      -1.3130207257    -1.6299283625    -0.1473284668
    7      H       1.4340431485    -1.3828828505     0.1077118366
    8      H       0.7278589421    -0.6522871938    -1.4392308444
    9      H      -2.3718391556     0.6215958762     0.4158659996
   10      H      -0.7277765069     1.3473554400     0.1638848173
   11      H      -1.6204644874     0.6122992058    -1.1917840694
 ----------------------------------------------------------------

   12    -218.2311553096      1.53e-07  Convergence criterion met
 Total energy in the final basis set =     -218.2311553096

                    Orbital Energies (a.u.)
 --------------------------------------------------------------

 Alpha MOs
 -- Occupied --
-24.541 -10.304 -10.233 -10.186  -0.967  -0.833  -0.708  -0.621
 -0.513  -0.476  -0.450  -0.390  -0.378  -0.367  -0.250  -0.241
 -0.240

 Beta MOs
 -- Occupied --
-24.541 -10.304 -10.233 -10.186  -0.967  -0.833  -0.708  -0.621
 -0.513  -0.476  -0.450  -0.390  -0.378  -0.367  -0.250  -0.241
 -0.240

          Ground-State Mulliken Net Atomic Charges

     Atom                 Charge (a.u.)    Spin (a.u.)
  --------------------------------------------------------
      1 F                    -0.438433      -0.000000
      2 C                    -0.228138      -0.000000
      3 C                    -0.060896       0.000000
      4 C                    -0.329134      -0.000000
      5 H                     0.150323       0.000000
      6 H                     0.145382       0.000000
      7 H                     0.179167      -0.000000
      8 H                     0.179585      -0.000000
      9 H                     0.106596      -0.000000
     10 H                     0.190995       0.000000
     11 H                     0.104552       0.000000
  --------------------------------------------------------
  Sum of atomic charges =     0.000000

                    Cartesian Multipole Moments
 -----------------------------------------------------------------
    Charge (ESU x 10^10)
                 0.0000
    Dipole Moment (Debye)
         X      -2.3559      Y      -5.1795      Z      -1.1454
       Tot       5.8043
    Quadrupole Moments (Debye-Ang)
        XX     -26.8596     XY      -5.6352     YY     -27.6691
        XZ      -1.4284     YZ      -0.5262     ZZ     -23.4673

 Final energy is   -218.231155309592
 **  OPTIMIZATION CONVERGED  **
 Total job time:  38.26s(wall), 439.85s(cpu)
        *  Thank you very much for using Q-Chem.  Have a nice day.  *
