 Q-Chem 5.1, Q-Chem, Inc., Pleasanton, CA (2018)
 Q-Chem 5.1.1 for Intel X86 EM64T Linux

User input:
--------------------------------------------------------------

$comment
potential surface scanner
$end

$rem
JOBTYPE  PES_SCAN
UNRESTRICTED TRUE
SYM_IGNORE  TRUE
GEOM_OPT_MAX_CYCLES 400
SCF_MAX_CYCLES 400
METHOD   B3LYP
BASIS   6-31G**
PDB_PRINT 2
SCF_CONVERGENCE 6
THRESH 14
SCF_PRINT 1
$end
$molecule
0 1
F 1.357600 0.611300 0.151500
C -0.630200 -0.630500 0.280500
C 0.769500 -0.528800 -0.298100
C -1.496900 0.548000 -0.133900
H -0.568500 -0.651900 1.374300
H -1.098000 -1.565100 -0.046700
H 1.386100 -1.374200 0.020100
H 0.753300 -0.494500 -1.391400
H -2.499800 0.449100 0.293300
H -1.071200 1.493600 0.216700
H -1.595000 0.598200 -1.223100
$end
$scan
stre 1 3 0.800000 0.801000 0.100000
$end
--------------------------------------------------------------

    9    -218.3794177513      2.24e-07  Convergence criterion met
 Total energy in the final basis set =     -218.3794177513
    8    -218.3572752955      8.83e-07  Convergence criterion met
 Total energy in the final basis set =     -218.3572752955
    9    -218.2621521656      3.11e-07  Convergence criterion met
 Total energy in the final basis set =     -218.2621521656
    9    -218.1448517233      3.20e-07  Convergence criterion met
 Total energy in the final basis set =     -218.1448517233
    8    -217.8714493767      9.01e-07  Convergence criterion met
 Total energy in the final basis set =     -217.8714493767
    8    -217.7303038293      8.62e-07  Convergence criterion met
 Total energy in the final basis set =     -217.7303038293
    8    -217.5772139206      8.72e-07  Convergence criterion met
 Total energy in the final basis set =     -217.5772139206
    8    -217.4695775793      9.33e-07  Convergence criterion met
    9    -217.4401132591      5.61e-07  Convergence criterion met
 Total energy in the final basis set =     -217.4401132591
    9    -217.4401201383      5.60e-07  Convergence criterion met
 Total energy in the final basis set =     -217.4401201383
    9    -217.4401252683      5.60e-07  Convergence criterion met
 Total energy in the final basis set =     -217.4401252683
    9    -217.4401279451      5.60e-07  Convergence criterion met
 Total energy in the final basis set =     -217.4401279451
    9    -217.4401292891      5.61e-07  Convergence criterion met
 Total energy in the final basis set =     -217.4401292891
    9    -217.4401305019      5.62e-07  Convergence criterion met
 Total energy in the final basis set =     -217.4401305019

             Standard Nuclear Orientation (Angstroms)
    I     Atom           X                Y                Z
 ----------------------------------------------------------------
    1      F       1.3163623659     0.3182714492    -0.0121594811
    2      C      -0.6227673768    -0.5699498241     0.3229911778
    3      C       0.9262330796    -0.3450149865    -0.2309067581
    4      C      -1.5441077606     0.5721005984    -0.1128301765
    5      H      -0.6059313628    -0.6444279476     1.4230851825
    6      H      -0.9546191861    -1.5349193156    -0.0725456082
    7      H       1.4091558947    -1.4317915787     0.0446457702
    8      H       0.7350748665    -0.5455728809    -1.4252838113
    9      H      -2.5752901456     0.4427091737     0.2347614567
   10      H      -1.2035922425     1.5419866002     0.2781870813
   11      H      -1.5736181324     0.6518087120    -1.2067448333
 ----------------------------------------------------------------

    9    -217.4401314994      5.62e-07  Convergence criterion met
 Total energy in the final basis set =     -217.4401314994

                    Orbital Energies (a.u.)
 --------------------------------------------------------------

 Alpha MOs
 -- Occupied --
-24.869 -10.364 -10.168 -10.149  -1.691  -0.827  -0.819  -0.789
 -0.734  -0.625  -0.521  -0.423  -0.395  -0.350  -0.332  -0.236
 -0.227

 Beta MOs
 -- Occupied --
-24.869 -10.364 -10.168 -10.149  -1.691  -0.827  -0.819  -0.789
 -0.734  -0.625  -0.521  -0.423  -0.395  -0.350  -0.332  -0.236
 -0.227

          Ground-State Mulliken Net Atomic Charges

     Atom                 Charge (a.u.)    Spin (a.u.)
  --------------------------------------------------------
      1 F                     0.637742      -0.000000
      2 C                    -0.315106      -0.000000
      3 C                    -0.195175       0.000000
      4 C                    -0.323308      -0.000000
      5 H                     0.071722       0.000000
      6 H                     0.093306       0.000000
      7 H                    -0.126397      -0.000000
      8 H                    -0.132078      -0.000000
      9 H                     0.107435       0.000000
     10 H                     0.076955      -0.000000
     11 H                     0.104903       0.000000
  --------------------------------------------------------
  Sum of atomic charges =    -0.000000

                    Cartesian Multipole Moments
 -----------------------------------------------------------------
    Charge (ESU x 10^10)
                 0.0000
    Dipole Moment (Debye)
         X       1.0731      Y       1.9114      Z       0.7596
       Tot       2.3199
    Quadrupole Moments (Debye-Ang)
        XX     -24.3997     XY       2.7301     YY     -27.4059
        XZ       0.7957     YZ      -0.2489     ZZ     -27.2875

 Final energy is   -217.440131499404
 **  OPTIMIZATION CONVERGED  **
 Total job time:  59.11s(wall), 674.93s(cpu)
        *  Thank you very much for using Q-Chem.  Have a nice day.  *
