 Q-Chem 5.1, Q-Chem, Inc., Pleasanton, CA (2018)
 Q-Chem 5.1.1 for Intel X86 EM64T Linux

User input:
--------------------------------------------------------------

$comment
potential surface scanner
$end

$rem
JOBTYPE  PES_SCAN
UNRESTRICTED TRUE
SYM_IGNORE  TRUE
GEOM_OPT_MAX_CYCLES 400
SCF_MAX_CYCLES 400
METHOD   B3LYP
BASIS   6-31G**
PDB_PRINT 2
SCF_CONVERGENCE 6
THRESH 14
SCF_PRINT 1
$end
$molecule
0 3
F 0.735454 1.731746 -0.486334
C -0.384418 -0.501323 0.479606
C 0.695076 -0.867408 -0.433676
C -1.744325 -0.123647 -0.037389
H -0.319263 -0.823202 1.523309
H -2.269276 -1.002962 -0.445652
H 0.727582 -1.883108 -0.834403
H 1.541202 -0.230777 -0.650268
H -2.377725 0.296235 0.750316
H 0.359916 1.258622 0.231119
H -1.657326 0.601023 -0.853434
$end
$scan
stre 1 3 2.500000 2.501000 0.100000
$end
--------------------------------------------------------------

   10    -218.2455484134      4.01e-07  Convergence criterion met
 Total energy in the final basis set =     -218.2455484134
   10    -218.2407744881      4.26e-07  Convergence criterion met
 Total energy in the final basis set =     -218.2407744881
   10    -218.2417312355      4.04e-07  Convergence criterion met
 Total energy in the final basis set =     -218.2417312355
   10    -218.2418491532      4.06e-07  Convergence criterion met
 Total energy in the final basis set =     -218.2418491532
   10    -218.2419161002      4.04e-07  Convergence criterion met
 Total energy in the final basis set =     -218.2419161002
   10    -218.2419507692      4.01e-07  Convergence criterion met
 Total energy in the final basis set =     -218.2419507692
   10    -218.2419670373      3.99e-07  Convergence criterion met
 Total energy in the final basis set =     -218.2419670373
   10    -218.2419962080      3.97e-07  Convergence criterion met
 Total energy in the final basis set =     -218.2419962080
   10    -218.2420265428      3.96e-07  Convergence criterion met
 Total energy in the final basis set =     -218.2420265428
   10    -218.2420502073      3.97e-07  Convergence criterion met
 Total energy in the final basis set =     -218.2420502073
   10    -218.2420572204      3.98e-07  Convergence criterion met
 Total energy in the final basis set =     -218.2420572204
   10    -218.2420588475      3.99e-07  Convergence criterion met
 Total energy in the final basis set =     -218.2420588475
   10    -218.2420599464      3.98e-07  Convergence criterion met
 Total energy in the final basis set =     -218.2420599464

             Standard Nuclear Orientation (Angstroms)
    I     Atom           X                Y                Z
 ----------------------------------------------------------------
    1      F       0.6924156395     1.6682769611    -0.5910914652
    2      C      -0.3860237691    -0.5065835307     0.4884123878
    3      C       0.7034632197    -0.8266969454    -0.4330299612
    4      C      -1.7432795411    -0.1101299523    -0.0217377712
    5      H      -0.3409045335    -0.9053436423     1.5067827214
    6      H      -2.2774064692    -0.9834103119    -0.4319728053
    7      H       0.7255616043    -1.8240372342    -0.8815288683
    8      H       1.6154439717    -0.2524683684    -0.5128577459
    9      H      -2.3715238999     0.3067932085     0.7720675474
   10      H       0.3425584294     1.2701243867     0.1809252360
   11      H      -1.6534076517     0.6186744289    -0.8327752754
 ----------------------------------------------------------------

   10    -218.2420603807      3.98e-07  Convergence criterion met
 Total energy in the final basis set =     -218.2420603807

                    Orbital Energies (a.u.)
 --------------------------------------------------------------

 Alpha MOs
 -- Occupied --
-24.654 -10.214 -10.194 -10.191  -1.161  -0.796  -0.694  -0.578
 -0.520  -0.459  -0.446  -0.415  -0.403  -0.373  -0.368  -0.358
 -0.218  -0.206

 Beta MOs
 -- Occupied --
-24.652 -10.202 -10.191 -10.181  -1.156  -0.767  -0.669  -0.547
 -0.510  -0.447  -0.426  -0.403  -0.388  -0.367  -0.362  -0.351

          Ground-State Mulliken Net Atomic Charges

     Atom                 Charge (a.u.)    Spin (a.u.)
  --------------------------------------------------------
      1 F                    -0.347187       0.036869
      2 C                    -0.181979       0.881070
      3 C                    -0.224193       1.002257
      4 C                    -0.328325      -0.039261
      5 H                     0.110392       0.006398
      6 H                     0.125077       0.062105
      7 H                     0.106267       0.009173
      8 H                     0.139308      -0.013970
      9 H                     0.114487       0.014048
     10 H                     0.350710       0.024089
     11 H                     0.135443       0.017221
  --------------------------------------------------------
  Sum of atomic charges =    -0.000000

                    Cartesian Multipole Moments
 -----------------------------------------------------------------
    Charge (ESU x 10^10)
                -0.0000
    Dipole Moment (Debye)
         X      -0.9357      Y      -1.2469      Z       1.2527
       Tot       1.9999
    Quadrupole Moments (Debye-Ang)
        XX     -24.5583     XY      -1.0629     YY     -27.3190
        XZ       0.3547     YZ       1.9949     ZZ     -25.6535

 Final energy is   -218.242060380684
 **  OPTIMIZATION CONVERGED  **
 Total job time:  41.02s(wall), 464.32s(cpu)
        *  Thank you very much for using Q-Chem.  Have a nice day.  *
