 Q-Chem 5.1, Q-Chem, Inc., Pleasanton, CA (2018)
 Q-Chem 5.1.1 for Intel X86 EM64T Linux

User input:
--------------------------------------------------------------

$comment
potential surface scanner
$end

$rem
JOBTYPE  PES_SCAN
UNRESTRICTED TRUE
SYM_IGNORE  TRUE
GEOM_OPT_MAX_CYCLES 400
SCF_MAX_CYCLES 400
METHOD   B3LYP
BASIS   6-31G**
PDB_PRINT 2
SCF_CONVERGENCE 6
THRESH 14
SCF_PRINT 1
$end
$molecule
0 1
F 1.357600 0.611300 0.151500
C -0.630200 -0.630500 0.280500
C 0.769500 -0.528800 -0.298100
C -1.496900 0.548000 -0.133900
H -0.568500 -0.651900 1.374300
H -1.098000 -1.565100 -0.046700
H 1.386100 -1.374200 0.020100
H 0.753300 -0.494500 -1.391400
H -2.499800 0.449100 0.293300
H -1.071200 1.493600 0.216700
H -1.595000 0.598200 -1.223100
$end
$scan
stre 1 3 1.200000 1.201000 0.100000
$end
--------------------------------------------------------------

    9    -218.3794177513      2.24e-07  Convergence criterion met
 Total energy in the final basis set =     -218.3794177513
    8    -218.3572752955      8.83e-07  Convergence criterion met
 Total energy in the final basis set =     -218.3572752955
    8    -218.3461149618      6.52e-07  Convergence criterion met
 Total energy in the final basis set =     -218.3461149618
    8    -218.3465928625      8.08e-07  Convergence criterion met
 Total energy in the final basis set =     -218.3465928625
    9    -218.3473123898      3.74e-07  Convergence criterion met
 Total energy in the final basis set =     -218.3473123898
    9    -218.3473381028      3.75e-07  Convergence criterion met
 Total energy in the final basis set =     -218.3473381028
    8    -218.3473725315      9.91e-07  Convergence criterion met
 Total energy in the final basis set =     -218.3473725315
    8    -218.3473746406      9.89e-07  Convergence criterion met
    9    -218.3473902913      3.74e-07  Convergence criterion met
 Total energy in the final basis set =     -218.3473902913
    9    -218.3473957968      3.72e-07  Convergence criterion met
 Total energy in the final basis set =     -218.3473957968
    9    -218.3474012823      3.71e-07  Convergence criterion met
 Total energy in the final basis set =     -218.3474012823
    9    -218.3474044733      3.72e-07  Convergence criterion met
 Total energy in the final basis set =     -218.3474044733
    9    -218.3474064749      3.72e-07  Convergence criterion met
 Total energy in the final basis set =     -218.3474064749
    9    -218.3474076392      3.73e-07  Convergence criterion met
 Total energy in the final basis set =     -218.3474076392

             Standard Nuclear Orientation (Angstroms)
    I     Atom           X                Y                Z
 ----------------------------------------------------------------
    1      F       1.3516427103     0.5388943991     0.1053590677
    2      C      -0.6222815596    -0.6133602584     0.2785874245
    3      C       0.8153650151    -0.4694184872    -0.2630311617
    4      C      -1.5190373744     0.5594100224    -0.1289276622
    5      H      -0.5780565873    -0.6829272329     1.3740752064
    6      H      -1.0358429711    -1.5623729706    -0.0827146200
    7      H       1.3793482233    -1.3791594316     0.0388498982
    8      H       0.7575427443    -0.5284936193    -1.3737097697
    9      H      -2.5184219212     0.4720900408     0.3079120730
   10      H      -1.0903117644     1.5099040235     0.2048140174
   11      H      -1.6330465149     0.6106335142    -1.2180144737
 ----------------------------------------------------------------

    9    -218.3474082813      3.73e-07  Convergence criterion met
 Total energy in the final basis set =     -218.3474082813

                    Orbital Energies (a.u.)
 --------------------------------------------------------------

 Alpha MOs
 -- Occupied --
-24.698 -10.249 -10.179 -10.174  -1.281  -0.774  -0.680  -0.601
 -0.535  -0.526  -0.489  -0.430  -0.395  -0.366  -0.344  -0.304
 -0.300

 Beta MOs
 -- Occupied --
-24.698 -10.249 -10.179 -10.174  -1.281  -0.774  -0.680  -0.601
 -0.535  -0.526  -0.489  -0.430  -0.395  -0.366  -0.344  -0.304
 -0.300

          Ground-State Mulliken Net Atomic Charges

     Atom                 Charge (a.u.)    Spin (a.u.)
  --------------------------------------------------------
      1 F                    -0.183312      -0.000000
      2 C                    -0.229437       0.000000
      3 C                     0.135994      -0.000000
      4 C                    -0.319867      -0.000000
      5 H                     0.098810       0.000000
      6 H                     0.091057       0.000000
      7 H                     0.045274       0.000000
      8 H                     0.042677       0.000000
      9 H                     0.104403       0.000000
     10 H                     0.111922       0.000000
     11 H                     0.102480       0.000000
  --------------------------------------------------------
  Sum of atomic charges =     0.000000

                    Cartesian Multipole Moments
 -----------------------------------------------------------------
    Charge (ESU x 10^10)
                 0.0000
    Dipole Moment (Debye)
         X      -0.4401      Y      -0.5810      Z      -0.1308
       Tot       0.7405
    Quadrupole Moments (Debye-Ang)
        XX     -26.0843     XY      -0.6329     YY     -25.4411
        XZ      -0.2098     YZ       0.0501     ZZ     -25.0708

 Final energy is   -218.347408281294
 **  OPTIMIZATION CONVERGED  **
 Total job time:  44.44s(wall), 513.59s(cpu)
        *  Thank you very much for using Q-Chem.  Have a nice day.  *
