 Q-Chem 5.1, Q-Chem, Inc., Pleasanton, CA (2018)
 Q-Chem 5.1.1 for Intel X86 EM64T Linux

User input:
--------------------------------------------------------------

$comment
potential surface scanner
$end

$rem
JOBTYPE  PES_SCAN
UNRESTRICTED TRUE
SYM_IGNORE  TRUE
GEOM_OPT_MAX_CYCLES 400
SCF_MAX_CYCLES 400
METHOD   B3LYP
BASIS   6-31G**
PDB_PRINT 2
SCF_CONVERGENCE 6
THRESH 14
SCF_PRINT 1
$end
$molecule
0 3
F 0.776629 1.861953 -0.350890
C -0.378731 -0.501438 0.469853
C 0.686865 -0.935546 -0.427977
C -1.740268 -0.142765 -0.056435
H -0.294031 -0.728604 1.536202
H -2.255551 -1.028709 -0.461590
H 0.718289 -1.964574 -0.788312
H 1.438323 -0.251296 -0.805474
H -2.379400 0.282297 0.723306
H 0.392022 1.287529 0.283645
H -1.657250 0.576351 -0.879133
$end
$scan
stre 1 3 2.700000 2.701000 0.100000
$end
--------------------------------------------------------------

   10    -218.2498430754      4.09e-07  Convergence criterion met
 Total energy in the final basis set =     -218.2498430754
   10    -218.2480019889      4.15e-07  Convergence criterion met
 Total energy in the final basis set =     -218.2480019889
   10    -218.2480984842      4.11e-07  Convergence criterion met
 Total energy in the final basis set =     -218.2480984842
   10    -218.2481179985      4.09e-07  Convergence criterion met
 Total energy in the final basis set =     -218.2481179985
   10    -218.2481229597      4.09e-07  Convergence criterion met
 Total energy in the final basis set =     -218.2481229597
   10    -218.2481307605      4.09e-07  Convergence criterion met
 Total energy in the final basis set =     -218.2481307605
   10    -218.2481348678      4.09e-07  Convergence criterion met
 Total energy in the final basis set =     -218.2481348678
   10    -218.2481381828      4.09e-07  Convergence criterion met
 Total energy in the final basis set =     -218.2481381828
   10    -218.2481404205      4.09e-07  Convergence criterion met
 Total energy in the final basis set =     -218.2481404205
   10    -218.2481423320      4.08e-07  Convergence criterion met
 Total energy in the final basis set =     -218.2481423320
   10    -218.2481435280      4.07e-07  Convergence criterion met
 Total energy in the final basis set =     -218.2481435280

             Standard Nuclear Orientation (Angstroms)
    I     Atom           X                Y                Z
 ----------------------------------------------------------------
    1      F       0.7871694198     1.7970371828    -0.3957635572
    2      C      -0.3836401094    -0.4946171801     0.4717620931
    3      C       0.6874259787    -0.9008652992    -0.4328361113
    4      C      -1.7476911143    -0.1383069786    -0.0497263712
    5      H      -0.3047481364    -0.7552877280     1.5311916378
    6      H      -2.2619026421    -1.0262015472    -0.4523590888
    7      H       0.7244306203    -1.9274181339    -0.8014817137
    8      H       1.4733461517    -0.2299431219    -0.7548106219
    9      H      -2.3855703385     0.2836476615     0.7328678243
   10      H       0.3874649488     1.2666293360     0.2670794245
   11      H      -1.6693877784     0.5805238087    -0.8727285156
 ----------------------------------------------------------------

   10    -218.2481442019      4.06e-07  Convergence criterion met
 Total energy in the final basis set =     -218.2481442019

                    Orbital Energies (a.u.)
 --------------------------------------------------------------

 Alpha MOs
 -- Occupied --
-24.651 -10.217 -10.198 -10.194  -1.156  -0.799  -0.696  -0.582
 -0.516  -0.460  -0.448  -0.416  -0.406  -0.374  -0.366  -0.359
 -0.217  -0.214

 Beta MOs
 -- Occupied --
-24.649 -10.205 -10.194 -10.185  -1.152  -0.770  -0.671  -0.551
 -0.505  -0.447  -0.428  -0.403  -0.392  -0.366  -0.363  -0.355

          Ground-State Mulliken Net Atomic Charges

     Atom                 Charge (a.u.)    Spin (a.u.)
  --------------------------------------------------------
      1 F                    -0.361226       0.035027
      2 C                    -0.182777       0.874571
      3 C                    -0.240270       1.008700
      4 C                    -0.325782      -0.035570
      5 H                     0.118560       0.003145
      6 H                     0.126149       0.059678
      7 H                     0.112633       0.003989
      8 H                     0.149813      -0.011164
      9 H                     0.115789       0.013304
     10 H                     0.351360       0.025298
     11 H                     0.135750       0.023020
  --------------------------------------------------------
  Sum of atomic charges =    -0.000000

                    Cartesian Multipole Moments
 -----------------------------------------------------------------
    Charge (ESU x 10^10)
                -0.0000
    Dipole Moment (Debye)
         X      -1.1597      Y      -1.5262      Z       0.9899
       Tot       2.1573
    Quadrupole Moments (Debye-Ang)
        XX     -24.9644     XY      -1.4641     YY     -28.1657
        XZ       0.0666     YZ       1.7078     ZZ     -24.9847

 Final energy is   -218.248144201877
 **  OPTIMIZATION CONVERGED  **
 Total job time:  35.36s(wall), 393.60s(cpu)
        *  Thank you very much for using Q-Chem.  Have a nice day.  *
