 Q-Chem 5.1, Q-Chem, Inc., Pleasanton, CA (2018)
 Q-Chem 5.1.1 for Intel X86 EM64T Linux

User input:
--------------------------------------------------------------

$comment
potential surface scanner
$end

$rem
JOBTYPE  PES_SCAN
UNRESTRICTED TRUE
SYM_IGNORE  TRUE
GEOM_OPT_MAX_CYCLES 400
SCF_MAX_CYCLES 400
METHOD   B3LYP
BASIS   6-31G**
PDB_PRINT 2
SCF_CONVERGENCE 6
THRESH 14
SCF_PRINT 1
$end
$molecule
0 3
F 0.272288 2.282737 0.036377
C -0.281375 -0.522064 0.395685
C 0.700229 -1.152469 -0.479595
C -1.633019 -0.099497 -0.112002
H -0.182790 -0.668998 1.475614
H -2.258957 -0.979085 -0.334162
H 0.621796 -2.205151 -0.752058
H 1.509843 -0.587775 -0.936776
H -2.167351 0.508064 0.623951
H 0.272599 1.404567 0.365648
H -1.546364 0.474869 -1.039483
$end
$scan
stre 1 3 3.400000 3.401000 0.100000
$end
--------------------------------------------------------------

   10    -218.2506544941      4.22e-07  Convergence criterion met
 Total energy in the final basis set =     -218.2506544941
   10    -218.2501332296      4.35e-07  Convergence criterion met
 Total energy in the final basis set =     -218.2501332296
   10    -218.2505668135      4.35e-07  Convergence criterion met
 Total energy in the final basis set =     -218.2505668135
   10    -218.2507305070      4.28e-07  Convergence criterion met
 Total energy in the final basis set =     -218.2507305070
   10    -218.2507354701      4.26e-07  Convergence criterion met
 Total energy in the final basis set =     -218.2507354701
   10    -218.2507434308      4.22e-07  Convergence criterion met
 Total energy in the final basis set =     -218.2507434308
   10    -218.2507521659      4.19e-07  Convergence criterion met
 Total energy in the final basis set =     -218.2507521659
   10    -218.2507632854      4.16e-07  Convergence criterion met
   10    -218.2508218262      4.12e-07  Convergence criterion met
 Total energy in the final basis set =     -218.2508218262
   10    -218.2508275876      4.09e-07  Convergence criterion met
 Total energy in the final basis set =     -218.2508275876
   10    -218.2508339410      4.06e-07  Convergence criterion met
 Total energy in the final basis set =     -218.2508339410
   10    -218.2508391340      4.05e-07  Convergence criterion met
 Total energy in the final basis set =     -218.2508391340
   10    -218.2508417646      4.06e-07  Convergence criterion met
 Total energy in the final basis set =     -218.2508417646
   10    -218.2508427769      4.07e-07  Convergence criterion met
 Total energy in the final basis set =     -218.2508427769

             Standard Nuclear Orientation (Angstroms)
    I     Atom           X                Y                Z
 ----------------------------------------------------------------
    1      F       0.3739378059     2.2364383526    -0.1164517541
    2      C      -0.3029413110    -0.5327901674     0.4253845851
    3      C       0.6928968254    -1.1314522899    -0.4564237375
    4      C      -1.6510938512    -0.1075480643    -0.0899355919
    5      H      -0.2066898188    -0.6922947160     1.5032113446
    6      H      -2.2272757061    -0.9756688775    -0.4478428278
    7      H       0.6336859037    -2.1801340026    -0.7481110082
    8      H       1.4908094811    -0.5418435512    -0.9027352759
    9      H      -2.2421746444     0.3871198013     0.6860343465
   10      H       0.2927438699     1.4154572296     0.3279652790
   11      H      -1.5469995546     0.5779142854    -0.9378963599
 ----------------------------------------------------------------

   10    -218.2508433705      4.08e-07  Convergence criterion met
 Total energy in the final basis set =     -218.2508433705

                    Orbital Energies (a.u.)
 --------------------------------------------------------------

 Alpha MOs
 -- Occupied --
-24.644 -10.220 -10.208 -10.194  -1.148  -0.801  -0.699  -0.586
 -0.507  -0.462  -0.451  -0.417  -0.408  -0.375  -0.360  -0.358
 -0.222  -0.218

 Beta MOs
 -- Occupied --
-24.643 -10.208 -10.195 -10.194  -1.145  -0.771  -0.674  -0.556
 -0.498  -0.449  -0.429  -0.403  -0.394  -0.367  -0.358  -0.357

          Ground-State Mulliken Net Atomic Charges

     Atom                 Charge (a.u.)    Spin (a.u.)
  --------------------------------------------------------
      1 F                    -0.378597       0.027780
      2 C                    -0.171944       0.879578
      3 C                    -0.231452       1.009916
      4 C                    -0.330574      -0.033918
      5 H                     0.122956       0.002168
      6 H                     0.123189       0.057047
      7 H                     0.122465       0.004336
      8 H                     0.132459      -0.010478
      9 H                     0.119597       0.011786
     10 H                     0.350927       0.025054
     11 H                     0.140974       0.026731
  --------------------------------------------------------
  Sum of atomic charges =    -0.000000

                    Cartesian Multipole Moments
 -----------------------------------------------------------------
    Charge (ESU x 10^10)
                 0.0000
    Dipole Moment (Debye)
         X      -0.6382      Y      -2.2562      Z       0.5920
       Tot       2.4183
    Quadrupole Moments (Debye-Ang)
        XX     -24.4079     XY      -0.7952     YY     -30.6286
        XZ      -0.3650     YZ       1.2512     ZZ     -24.5917

 Final energy is   -218.250843370495
 **  OPTIMIZATION CONVERGED  **
 Total job time:  64.28s(wall), 657.40s(cpu)
        *  Thank you very much for using Q-Chem.  Have a nice day.  *
