 Q-Chem 5.1, Q-Chem, Inc., Pleasanton, CA (2018)
 Q-Chem 5.1.1 for Intel X86 EM64T Linux

User input:
--------------------------------------------------------------

$comment
potential surface scanner
$end

$rem
JOBTYPE  PES_SCAN
UNRESTRICTED TRUE
SYM_IGNORE  TRUE
GEOM_OPT_MAX_CYCLES 400
SCF_MAX_CYCLES 400
METHOD   B3LYP
BASIS   6-31G**
PDB_PRINT 2
SCF_CONVERGENCE 6
THRESH 14
SCF_PRINT 1
$end
$molecule
0 1
F 1.357600 0.611300 0.151500
C -0.630200 -0.630500 0.280500
C 0.769500 -0.528800 -0.298100
C -1.496900 0.548000 -0.133900
H -0.568500 -0.651900 1.374300
H -1.098000 -1.565100 -0.046700
H 1.386100 -1.374200 0.020100
H 0.753300 -0.494500 -1.391400
H -2.499800 0.449100 0.293300
H -1.071200 1.493600 0.216700
H -1.595000 0.598200 -1.223100
$end
$scan
stre 1 3 1.000000 1.001000 0.100000
$end
--------------------------------------------------------------

    9    -218.3794177513      2.24e-07  Convergence criterion met
 Total energy in the final basis set =     -218.3794177513
    8    -218.3572752955      8.83e-07  Convergence criterion met
 Total energy in the final basis set =     -218.3572752955
    9    -218.2621521656      3.11e-07  Convergence criterion met
 Total energy in the final basis set =     -218.2621521656
    8    -218.1738236868      9.86e-07  Convergence criterion met
 Total energy in the final basis set =     -218.1738236868
    8    -218.1543825405      8.87e-07  Convergence criterion met
 Total energy in the final basis set =     -218.1543825405
    8    -218.1529033067      8.01e-07  Convergence criterion met
 Total energy in the final basis set =     -218.1529033067
    8    -218.1530631549      7.88e-07  Convergence criterion met
 Total energy in the final basis set =     -218.1530631549
    8    -218.1531264179      8.01e-07  Convergence criterion met
    8    -218.1531707558      8.29e-07  Convergence criterion met
 Total energy in the final basis set =     -218.1531707558
    8    -218.1531733427      8.26e-07  Convergence criterion met
 Total energy in the final basis set =     -218.1531733427
    8    -218.1531766320      8.25e-07  Convergence criterion met
 Total energy in the final basis set =     -218.1531766320
    8    -218.1531799019      8.28e-07  Convergence criterion met
 Total energy in the final basis set =     -218.1531799019
    8    -218.1531821317      8.33e-07  Convergence criterion met
 Total energy in the final basis set =     -218.1531821317
    8    -218.1531833497      8.35e-07  Convergence criterion met
 Total energy in the final basis set =     -218.1531833497

             Standard Nuclear Orientation (Angstroms)
    I     Atom           X                Y                Z
 ----------------------------------------------------------------
    1      F       1.3258738191     0.4353461470     0.0359471072
    2      C      -0.6138744081    -0.5942309510     0.2924282244
    3      C       0.8631589474    -0.4052626540    -0.2456054482
    4      C      -1.5256745646     0.5657303075    -0.1209340644
    5      H      -0.5856786315    -0.6687324818     1.3902527768
    6      H      -0.9959499039    -1.5486337862    -0.0862008902
    7      H       1.3773374810    -1.3864839113     0.0454184524
    8      H       0.7438446560    -0.5568948784    -1.3769746026
    9      H      -2.5400551515     0.4515597259     0.2744369418
   10      H      -1.1416868177     1.5252052512     0.2471139254
   11      H      -1.6003954262     0.6375972311    -1.2126824226
 ----------------------------------------------------------------

    8    -218.1531840699      8.34e-07  Convergence criterion met
 Total energy in the final basis set =     -218.1531840699

                    Orbital Energies (a.u.)
 --------------------------------------------------------------

 Alpha MOs
 -- Occupied --
-24.753 -10.267 -10.171 -10.165  -1.457  -0.765  -0.698  -0.638
 -0.625  -0.613  -0.520  -0.428  -0.398  -0.359  -0.339  -0.275
 -0.268

 Beta MOs
 -- Occupied --
-24.753 -10.267 -10.171 -10.165  -1.457  -0.765  -0.698  -0.638
 -0.625  -0.613  -0.520  -0.428  -0.398  -0.359  -0.339  -0.275
 -0.268

          Ground-State Mulliken Net Atomic Charges

     Atom                 Charge (a.u.)    Spin (a.u.)
  --------------------------------------------------------
      1 F                     0.119668      -0.000000
      2 C                    -0.264263      -0.000000
      3 C                     0.038442       0.000000
      4 C                    -0.321972       0.000000
      5 H                     0.085651       0.000000
      6 H                     0.089496       0.000000
      7 H                    -0.024059      -0.000000
      8 H                    -0.028089      -0.000000
      9 H                     0.105738       0.000000
     10 H                     0.096241       0.000000
     11 H                     0.103146       0.000000
  --------------------------------------------------------
  Sum of atomic charges =     0.000000

                    Cartesian Multipole Moments
 -----------------------------------------------------------------
    Charge (ESU x 10^10)
                 0.0000
    Dipole Moment (Debye)
         X       0.1783      Y       0.4414      Z       0.2279
       Tot       0.5277
    Quadrupole Moments (Debye-Ang)
        XX     -25.3935     XY       0.7028     YY     -26.1281
        XZ       0.2203     YZ      -0.0383     ZZ     -25.8545

 Final energy is   -218.153184069934
 **  OPTIMIZATION CONVERGED  **
 Total job time:  50.66s(wall), 581.19s(cpu)
        *  Thank you very much for using Q-Chem.  Have a nice day.  *
