 Q-Chem 5.1, Q-Chem, Inc., Pleasanton, CA (2018)
 Q-Chem 5.1.1 for Intel X86 EM64T Linux

User input:
--------------------------------------------------------------

$comment
potential surface scanner
$end

$rem
JOBTYPE  PES_SCAN
UNRESTRICTED TRUE
SYM_IGNORE  TRUE
GEOM_OPT_MAX_CYCLES 400
SCF_MAX_CYCLES 400
METHOD   B3LYP
BASIS   6-31G**
PDB_PRINT 2
SCF_CONVERGENCE 6
THRESH 14
SCF_PRINT 1
$end
$molecule
0 3
F 0.617742 2.059066 -0.275430
C -0.350353 -0.530310 0.462063
C 0.689879 -1.036394 -0.426855
C -1.700803 -0.131333 -0.066733
H -0.264541 -0.721539 1.535019
H -2.236449 -0.998952 -0.483960
H 0.684549 -2.069583 -0.774228
H 1.440956 -0.374381 -0.851137
H -2.330336 0.303144 0.715253
H 0.353076 1.359059 0.288881
H -1.596822 0.596421 -0.879677
$end
$scan
stre 1 3 3.000000 3.001000 0.100000
$end
--------------------------------------------------------------

   10    -218.2513635079      4.09e-07  Convergence criterion met
 Total energy in the final basis set =     -218.2513635079
   10    -218.2510156742      4.18e-07  Convergence criterion met
 Total energy in the final basis set =     -218.2510156742
   10    -218.2511994011      4.14e-07  Convergence criterion met
 Total energy in the final basis set =     -218.2511994011
   10    -218.2512400946      4.10e-07  Convergence criterion met
 Total energy in the final basis set =     -218.2512400946
   10    -218.2512413315      4.09e-07  Convergence criterion met
 Total energy in the final basis set =     -218.2512413315
   10    -218.2512434985      4.07e-07  Convergence criterion met
 Total energy in the final basis set =     -218.2512434985
   10    -218.2512453402      4.07e-07  Convergence criterion met
 Total energy in the final basis set =     -218.2512453402
   10    -218.2512478370      4.07e-07  Convergence criterion met
 Total energy in the final basis set =     -218.2512478370
   10    -218.2512498045      4.07e-07  Convergence criterion met
 Total energy in the final basis set =     -218.2512498045
   10    -218.2512515712      4.09e-07  Convergence criterion met
 Total energy in the final basis set =     -218.2512515712
   10    -218.2512532731      4.10e-07  Convergence criterion met
 Total energy in the final basis set =     -218.2512532731
   10    -218.2512547835      4.11e-07  Convergence criterion met
 Total energy in the final basis set =     -218.2512547835

             Standard Nuclear Orientation (Angstroms)
    I     Atom           X                Y                Z
 ----------------------------------------------------------------
    1      F       0.6917660002     1.9958519421    -0.2993819679
    2      C      -0.3621712576    -0.5215761503     0.4652175815
    3      C       0.6878194005    -1.0014433860    -0.4266891682
    4      C      -1.7171896619    -0.1381194199    -0.0627005476
    5      H      -0.2773358348    -0.7240707974     1.5362729484
    6      H      -2.2459613207    -1.0133107592    -0.4732285578
    7      H       0.6984684205    -2.0321181017    -0.7816580914
    8      H       1.4354002405    -0.3269281431    -0.8353032337
    9      H      -2.3495132713     0.2948560862     0.7179796082
   10      H       0.3673389125     1.3375150722     0.2839329811
   11      H      -1.6217236277     0.5845416573    -0.8812455525
 ----------------------------------------------------------------

   10    -218.2512555668      4.10e-07  Convergence criterion met
 Total energy in the final basis set =     -218.2512555668

                    Orbital Energies (a.u.)
 --------------------------------------------------------------

 Alpha MOs
 -- Occupied --
-24.649 -10.218 -10.203 -10.195  -1.152  -0.801  -0.698  -0.584
 -0.511  -0.461  -0.449  -0.417  -0.407  -0.375  -0.363  -0.362
 -0.220  -0.216

 Beta MOs
 -- Occupied --
-24.647 -10.206 -10.195 -10.190  -1.149  -0.771  -0.672  -0.554
 -0.502  -0.448  -0.428  -0.402  -0.393  -0.366  -0.361  -0.360

          Ground-State Mulliken Net Atomic Charges

     Atom                 Charge (a.u.)    Spin (a.u.)
  --------------------------------------------------------
      1 F                    -0.371455       0.028801
      2 C                    -0.174820       0.880393
      3 C                    -0.237158       1.008156
      4 C                    -0.328789      -0.034863
      5 H                     0.121052       0.000714
      6 H                     0.125641       0.058201
      7 H                     0.119142       0.003428
      8 H                     0.140384      -0.008775
      9 H                     0.117099       0.012565
     10 H                     0.351609       0.024741
     11 H                     0.137296       0.026640
  --------------------------------------------------------
  Sum of atomic charges =    -0.000000

                    Cartesian Multipole Moments
 -----------------------------------------------------------------
    Charge (ESU x 10^10)
                 0.0000
    Dipole Moment (Debye)
         X      -1.0962      Y      -1.8464      Z       0.8294
       Tot       2.3019
    Quadrupole Moments (Debye-Ang)
        XX     -24.9393     XY      -1.4942     YY     -29.1655
        XZ      -0.1164     YZ       1.6822     ZZ     -24.7366

 Final energy is   -218.251255566766
 **  OPTIMIZATION CONVERGED  **
 Total job time:  37.75s(wall), 427.69s(cpu)
        *  Thank you very much for using Q-Chem.  Have a nice day.  *
