 Q-Chem 5.1, Q-Chem, Inc., Pleasanton, CA (2018)
 Q-Chem 5.1.1 for Intel X86 EM64T Linux

User input:
--------------------------------------------------------------

$comment
potential surface scanner
$end

$rem
JOBTYPE  PES_SCAN
UNRESTRICTED TRUE
SYM_IGNORE  TRUE
GEOM_OPT_MAX_CYCLES 400
SCF_MAX_CYCLES 400
METHOD   B3LYP
BASIS   6-31G**
PDB_PRINT 2
SCF_CONVERGENCE 6
THRESH 14
SCF_PRINT 1
$end
$molecule
0 3
F 0.421125 1.170898 -1.444133
C -0.549339 -0.894171 0.253245
C 0.785868 -0.403252 -0.102860
C -1.797327 -0.075097 0.151229
H -0.609821 -1.865703 0.747193
H -2.689104 -0.708458 0.111384
H 1.297797 -0.853329 -0.952180
H 1.482559 -0.171636 0.718538
H -1.924928 0.594296 1.020658
H 0.662327 1.098669 -0.523372
H -1.772262 0.562984 -0.736507
$end
$scan
stre 1 3 2.000000 2.001000 0.100000
$end
--------------------------------------------------------------

   10    -218.2230448359      4.46e-07  Convergence criterion met
 Total energy in the final basis set =     -218.2230448359
   10    -218.2103039656      4.31e-07  Convergence criterion met
 Total energy in the final basis set =     -218.2103039656
   10    -218.2112297237      4.39e-07  Convergence criterion met
 Total energy in the final basis set =     -218.2112297237
   10    -218.2116306221      4.46e-07  Convergence criterion met
 Total energy in the final basis set =     -218.2116306221
   10    -218.2116632932      4.46e-07  Convergence criterion met
 Total energy in the final basis set =     -218.2116632932
   10    -218.2116750440      4.47e-07  Convergence criterion met
 Total energy in the final basis set =     -218.2116750440
   10    -218.2116823752      4.46e-07  Convergence criterion met
 Total energy in the final basis set =     -218.2116823752
   10    -218.2116888757      4.46e-07  Convergence criterion met
   10    -218.2150534438      4.35e-07  Convergence criterion met
 Total energy in the final basis set =     -218.2150534438
   10    -218.2150667894      4.42e-07  Convergence criterion met
 Total energy in the final basis set =     -218.2150667894
   10    -218.2150741268      4.42e-07  Convergence criterion met
 Total energy in the final basis set =     -218.2150741268
   10    -218.2150900746      4.34e-07  Convergence criterion met
 Total energy in the final basis set =     -218.2150900746
   10    -218.2150903049      4.39e-07  Convergence criterion met
 Total energy in the final basis set =     -218.2150903049
   10    -218.2150784447      4.40e-07  Convergence criterion met
 Total energy in the final basis set =     -218.2150784447

             Standard Nuclear Orientation (Angstroms)
    I     Atom           X                Y                Z
 ----------------------------------------------------------------
    1      F       0.6326531110     1.2299891191    -0.7330275879
    2      C      -0.5779294839    -1.0585686866     0.2522787694
    3      C       0.7808239775    -0.6584963122    -0.0914167503
    4      C      -1.7562521671    -0.1350737683     0.1515899319
    5      H      -0.7568562733    -2.0594108750     0.6524969583
    6      H      -2.6921222459    -0.6453819827     0.3986041133
    7      H       1.2320363902    -0.9752693246    -1.0307354184
    8      H       1.4892113808    -0.3736003117     0.6858376859
    9      H      -1.6584725110     0.7277346992     0.8299602153
   10      H       0.4688657746     2.1154947204    -1.0140582907
   11      H      -1.8550629530     0.2877837225    -0.8583346269
 ----------------------------------------------------------------

   10    -218.2150788802      4.41e-07  Convergence criterion met
 Total energy in the final basis set =     -218.2150788802

                    Orbital Energies (a.u.)
 --------------------------------------------------------------

 Alpha MOs
 -- Occupied --
-24.681 -10.176 -10.169 -10.167  -1.183  -0.764  -0.673  -0.571
 -0.518  -0.439  -0.428  -0.391  -0.388  -0.375  -0.373  -0.346
 -0.168  -0.157

 Beta MOs
 -- Occupied --
-24.679 -10.169 -10.163 -10.153  -1.180  -0.735  -0.649  -0.549
 -0.498  -0.429  -0.412  -0.384  -0.381  -0.364  -0.358  -0.336

          Ground-State Mulliken Net Atomic Charges

     Atom                 Charge (a.u.)    Spin (a.u.)
  --------------------------------------------------------
      1 F                    -0.279083      -0.017983
      2 C                    -0.086191       0.967553
      3 C                    -0.210193       0.923194
      4 C                    -0.319889      -0.054393
      5 H                     0.086373      -0.004017
      6 H                     0.096370       0.005064
      7 H                     0.098165       0.002217
      8 H                     0.097267       0.004982
      9 H                     0.102746       0.051226
     10 H                     0.312807       0.081671
     11 H                     0.101629       0.040487
  --------------------------------------------------------
  Sum of atomic charges =     0.000000

                    Cartesian Multipole Moments
 -----------------------------------------------------------------
    Charge (ESU x 10^10)
                -0.0000
    Dipole Moment (Debye)
         X      -0.0894      Y       1.8527      Z      -0.5898
       Tot       1.9464
    Quadrupole Moments (Debye-Ang)
        XX     -25.5786     XY       0.5550     YY     -20.3302
        XZ      -0.2271     YZ      -2.3630     ZZ     -24.6606

 Final energy is   -218.215078880156
 **  OPTIMIZATION CONVERGED  **
 Total job time:  247.83s(wall), 2837.36s(cpu)
        *  Thank you very much for using Q-Chem.  Have a nice day.  *
