 Q-Chem 5.1, Q-Chem, Inc., Pleasanton, CA (2018)
 Q-Chem 5.1.1 for Intel X86 EM64T Linux

User input:
--------------------------------------------------------------

$comment
potential surface scanner
$end

$rem
JOBTYPE  PES_SCAN
UNRESTRICTED TRUE
SYM_IGNORE  TRUE
GEOM_OPT_MAX_CYCLES 400
SCF_MAX_CYCLES 400
METHOD   B3LYP
BASIS   6-31G**
PDB_PRINT 2
SCF_CONVERGENCE 6
THRESH 14
SCF_PRINT 1
$end
$molecule
0 3
F 0.415438 1.206122 -1.519660
C -0.544611 -0.883245 0.303142
C 0.789497 -0.420939 -0.086917
C -1.793209 -0.068919 0.168287
H -0.609789 -1.847856 0.810409
H -2.663241 -0.703540 -0.035009
H 1.276511 -0.878871 -0.947579
H 1.503202 -0.144955 0.703478
H -2.025595 0.488502 1.092371
H 0.649067 1.047520 -0.607817
H -1.690374 0.661382 -0.637509
$end
$scan
stre 1 3 2.100000 2.101000 0.100000
$end
--------------------------------------------------------------

   10    -218.2317577759      4.50e-07  Convergence criterion met
 Total energy in the final basis set =     -218.2317577759
   10    -218.2211889288      4.30e-07  Convergence criterion met
 Total energy in the final basis set =     -218.2211889288
   10    -218.2224360020      4.40e-07  Convergence criterion met
 Total energy in the final basis set =     -218.2224360020
   10    -218.2229276038      4.49e-07  Convergence criterion met
 Total energy in the final basis set =     -218.2229276038
   10    -218.2229675684      4.50e-07  Convergence criterion met
 Total energy in the final basis set =     -218.2229675684
   10    -218.2229828156      4.50e-07  Convergence criterion met
 Total energy in the final basis set =     -218.2229828156
   10    -218.2229920603      4.49e-07  Convergence criterion met
 Total energy in the final basis set =     -218.2229920603
   10    -218.2229973850      4.49e-07  Convergence criterion met
   10    -218.2230359712      4.48e-07  Convergence criterion met
 Total energy in the final basis set =     -218.2230359712
   10    -218.2230383212      4.47e-07  Convergence criterion met
 Total energy in the final basis set =     -218.2230383212
   10    -218.2230402868      4.46e-07  Convergence criterion met
 Total energy in the final basis set =     -218.2230402868
   10    -218.2230418219      4.46e-07  Convergence criterion met
 Total energy in the final basis set =     -218.2230418219
   10    -218.2230431126      4.46e-07  Convergence criterion met
 Total energy in the final basis set =     -218.2230431126
   10    -218.2230442494      4.46e-07  Convergence criterion met
 Total energy in the final basis set =     -218.2230442494

             Standard Nuclear Orientation (Angstroms)
    I     Atom           X                Y                Z
 ----------------------------------------------------------------
    1      F       0.4211254187     1.1708981055    -1.4441330652
    2      C      -0.5493392287    -0.8941710036     0.2532447619
    3      C       0.7858680830    -0.4032522950    -0.1028599970
    4      C      -1.7973269706    -0.0750970500     0.1512287093
    5      H      -0.6098207290    -1.8657033621     0.7471931887
    6      H      -2.6891035217    -0.7084582122     0.1113842524
    7      H       1.2977966067    -0.8533289076    -0.9521799442
    8      H       1.4825591230    -0.1716357631     0.7185382552
    9      H      -1.9249282687     0.5942961677     1.0206582412
   10      H       0.6623274303     1.0986689299    -0.5233718456
   11      H      -1.7722619430     0.5629843905    -0.7365065566
 ----------------------------------------------------------------

   10    -218.2230448701      4.46e-07  Convergence criterion met
 Total energy in the final basis set =     -218.2230448701

                    Orbital Energies (a.u.)
 --------------------------------------------------------------

 Alpha MOs
 -- Occupied --
-24.663 -10.204 -10.197 -10.180  -1.173  -0.788  -0.697  -0.581
 -0.524  -0.460  -0.449  -0.405  -0.399  -0.380  -0.370  -0.361
 -0.214  -0.188

 Beta MOs
 -- Occupied --
-24.657 -10.192 -10.184 -10.181  -1.157  -0.757  -0.676  -0.550
 -0.502  -0.447  -0.426  -0.393  -0.384  -0.369  -0.359  -0.353

          Ground-State Mulliken Net Atomic Charges

     Atom                 Charge (a.u.)    Spin (a.u.)
  --------------------------------------------------------
      1 F                    -0.308211       0.131017
      2 C                    -0.060650       0.973920
      3 C                    -0.342790       0.791883
      4 C                    -0.350875      -0.059651
      5 H                     0.100508      -0.005563
      6 H                     0.111816       0.012031
      7 H                     0.142477       0.008084
      8 H                     0.119463       0.031408
      9 H                     0.110252       0.062926
     10 H                     0.342031       0.034596
     11 H                     0.135979       0.019350
  --------------------------------------------------------
  Sum of atomic charges =    -0.000000

                    Cartesian Multipole Moments
 -----------------------------------------------------------------
    Charge (ESU x 10^10)
                -0.0000
    Dipole Moment (Debye)
         X       0.2539      Y      -0.4578      Z       1.4937
       Tot       1.5828
    Quadrupole Moments (Debye-Ang)
        XX     -23.9300     XY       0.1104     YY     -25.5880
        XZ       0.3369     YZ       1.7559     ZZ     -27.9153

 Final energy is   -218.223044870070
 **  OPTIMIZATION CONVERGED  **
 Total job time:  87.63s(wall), 952.99s(cpu)
        *  Thank you very much for using Q-Chem.  Have a nice day.  *
