 Q-Chem 5.1, Q-Chem, Inc., Pleasanton, CA (2018)
 Q-Chem 5.1.1 for Intel X86 EM64T Linux

User input:
--------------------------------------------------------------

$comment
potential surface scanner
$end

$rem
JOBTYPE  PES_SCAN
UNRESTRICTED TRUE
SYM_IGNORE  TRUE
GEOM_OPT_MAX_CYCLES 400
SCF_MAX_CYCLES 400
METHOD   B3LYP
BASIS   6-31G**
PDB_PRINT 2
SCF_CONVERGENCE 6
THRESH 14
SCF_PRINT 1
$end
$molecule
0 3
F 0.643778 1.519369 -0.817219
C -0.396850 -0.535515 0.512234
C 0.732846 -0.741101 -0.402074
C -1.744828 -0.089853 0.018668
H -0.394950 -1.085184 1.459432
H -2.298986 -0.938881 -0.416990
H 0.752769 -1.672626 -0.978994
H 1.708769 -0.304582 -0.231341
H -2.366172 0.306070 0.829673
H 0.320409 1.333818 0.037467
H -1.649888 0.663685 -0.767661
$end
$scan
stre 1 3 2.200000 2.201000 0.100000
$end
--------------------------------------------------------------

   10    -218.2324902915      4.07e-07  Convergence criterion met
 Total energy in the final basis set =     -218.2324902915
   10    -218.2246699035      4.00e-07  Convergence criterion met
 Total energy in the final basis set =     -218.2246699035
   10    -218.2255982638      4.13e-07  Convergence criterion met
 Total energy in the final basis set =     -218.2255982638
   10    -218.2258127187      4.20e-07  Convergence criterion met
 Total energy in the final basis set =     -218.2258127187
   10    -218.2258423321      4.21e-07  Convergence criterion met
 Total energy in the final basis set =     -218.2258423321
   10    -218.2258876935      4.20e-07  Convergence criterion met
 Total energy in the final basis set =     -218.2258876935
   10    -218.2259232098      4.19e-07  Convergence criterion met
 Total energy in the final basis set =     -218.2259232098
   10    -218.2259558185      4.17e-07  Convergence criterion met
   10    -218.2317080030      4.55e-07  Convergence criterion met
 Total energy in the final basis set =     -218.2317080030
   10    -218.2317272232      4.53e-07  Convergence criterion met
 Total energy in the final basis set =     -218.2317272232
   10    -218.2317412082      4.51e-07  Convergence criterion met
 Total energy in the final basis set =     -218.2317412082
   10    -218.2317498049      4.50e-07  Convergence criterion met
 Total energy in the final basis set =     -218.2317498049
   10    -218.2317552765      4.50e-07  Convergence criterion met
 Total energy in the final basis set =     -218.2317552765
   10    -218.2317572994      4.50e-07  Convergence criterion met
 Total energy in the final basis set =     -218.2317572994

             Standard Nuclear Orientation (Angstroms)
    I     Atom           X                Y                Z
 ----------------------------------------------------------------
    1      F       0.4154380160     1.2061221963    -1.5196601103
    2      C      -0.5446109295    -0.8832454552     0.3031415543
    3      C       0.7894969048    -0.4209390809    -0.0869174326
    4      C      -1.7932089732    -0.0689189931     0.1682872116
    5      H      -0.6097888858    -1.8478560913     0.8104092411
    6      H      -2.6632413769    -0.7035404964    -0.0350092031
    7      H       1.2765114380    -0.8788711387    -0.9475785501
    8      H       1.5032018531    -0.1449548593     0.7034778061
    9      H      -2.0255945386     0.4885021597     1.0923706675
   10      H       0.6490674272     1.0475201256    -0.6078170887
   11      H      -1.6903739351     0.6613816333    -0.6375090957
 ----------------------------------------------------------------

   10    -218.2317577689      4.50e-07  Convergence criterion met
 Total energy in the final basis set =     -218.2317577689

                    Orbital Energies (a.u.)
 --------------------------------------------------------------

 Alpha MOs
 -- Occupied --
-24.657 -10.210 -10.201 -10.182  -1.165  -0.792  -0.700  -0.583
 -0.519  -0.461  -0.451  -0.405  -0.401  -0.376  -0.372  -0.360
 -0.226  -0.191

 Beta MOs
 -- Occupied --
-24.651 -10.198 -10.188 -10.182  -1.150  -0.760  -0.679  -0.553
 -0.496  -0.448  -0.428  -0.394  -0.385  -0.366  -0.360  -0.354

          Ground-State Mulliken Net Atomic Charges

     Atom                 Charge (a.u.)    Spin (a.u.)
  --------------------------------------------------------
      1 F                    -0.325441       0.125550
      2 C                    -0.063020       0.971927
      3 C                    -0.346130       0.802538
      4 C                    -0.352642      -0.057146
      5 H                     0.103587      -0.002951
      6 H                     0.115682       0.020688
      7 H                     0.147716       0.009965
      8 H                     0.126074       0.028045
      9 H                     0.113699       0.060883
     10 H                     0.344996       0.029634
     11 H                     0.135480       0.010867
  --------------------------------------------------------
  Sum of atomic charges =    -0.000000

                    Cartesian Multipole Moments
 -----------------------------------------------------------------
    Charge (ESU x 10^10)
                -0.0000
    Dipole Moment (Debye)
         X       0.2166      Y      -0.7411      Z       1.6257
       Tot       1.7998
    Quadrupole Moments (Debye-Ang)
        XX     -23.7195     XY      -0.0093     YY     -25.8844
        XZ       0.3428     YZ       2.0079     ZZ     -28.2296

 Final energy is   -218.231757768875
 **  OPTIMIZATION CONVERGED  **
 Total job time:  223.43s(wall), 2550.03s(cpu)
        *  Thank you very much for using Q-Chem.  Have a nice day.  *
