 Q-Chem 5.1, Q-Chem, Inc., Pleasanton, CA (2018)
 Q-Chem 5.1.1 for Intel X86 EM64T Linux

User input:
--------------------------------------------------------------

$comment
potential surface scanner
$end

$rem
JOBTYPE  PES_SCAN
UNRESTRICTED TRUE
SYM_IGNORE  TRUE
GEOM_OPT_MAX_CYCLES 400
SCF_MAX_CYCLES 400
METHOD   B3LYP
BASIS   6-31G**
PDB_PRINT 2
SCF_CONVERGENCE 6
THRESH 14
SCF_PRINT 1
$end
$molecule
0 1
F 1.166326 1.933140 0.314104
C -0.704314 -0.805767 0.235319
C 0.574173 -1.021463 -0.413684
C -1.358438 0.558375 -0.101703
H -0.635489 -0.973288 1.312936
H -1.371021 -1.598568 -0.173420
H 1.425115 -1.458789 0.099593
H 0.694289 -0.798451 -1.470476
H -2.316337 0.641749 0.418714
H -0.627305 1.329300 0.199449
H -1.540102 0.648962 -1.177630
$end
$scan
stre 1 3 3.200000 3.201000 0.100000
$end
--------------------------------------------------------------

   22    -218.2064747866      8.29e-08  Convergence criterion met
 Total energy in the final basis set =     -218.2064747866
   81    -218.2027516958      7.00e-07  Convergence criterion met
 Total energy in the final basis set =     -218.2027516958
   42    -218.2027234782      4.16e-07  Convergence criterion met
 Total energy in the final basis set =     -218.2027234782
   28    -218.2019561852      4.70e-07  Convergence criterion met
 Total energy in the final basis set =     -218.2019561852
   25    -218.2016745385      2.43e-07  Convergence criterion met
 Total energy in the final basis set =     -218.2016745385
   40    -218.2204013415      4.44e-07  Convergence criterion met
 Total energy in the final basis set =     -218.2204013415
   20    -218.1999967166      7.50e-07  Convergence criterion met
 Total energy in the final basis set =     -218.1999967166
   21    -218.2017989902      7.36e-07  Convergence criterion met
    9    -218.3547056149      2.77e-07  Convergence criterion met
 Total energy in the final basis set =     -218.3547056149
    9    -218.3547148989      2.78e-07  Convergence criterion met
 Total energy in the final basis set =     -218.3547148989
    9    -218.3547210436      2.77e-07  Convergence criterion met
 Total energy in the final basis set =     -218.3547210436
    9    -218.3547266712      2.76e-07  Convergence criterion met
 Total energy in the final basis set =     -218.3547266712
    9    -218.3547318776      2.75e-07  Convergence criterion met
 Total energy in the final basis set =     -218.3547318776
    9    -218.3547354139      2.72e-07  Convergence criterion met
 Total energy in the final basis set =     -218.3547354139

             Standard Nuclear Orientation (Angstroms)
    I     Atom           X                Y                Z
 ----------------------------------------------------------------
    1      F       0.3431797421     2.0714142457     0.6091021995
    2      C      -0.4535660256    -0.7549962437     0.2707191786
    3      C       0.6961043464    -0.9495252999    -0.3857870947
    4      C      -1.6842637182    -0.1180167853    -0.3045120621
    5      H      -0.5140664939    -1.0519404597     1.3181506798
    6      H      -2.5708247364    -0.7327521206    -0.1127736448
    7      H       1.5581054721    -1.4074871111     0.0907205060
    8      H       0.8008894486    -0.6808772365    -1.4347191735
    9      H      -1.8455053961     0.8580659943     0.1654439464
   10      H       0.5679226734     1.1857110411     0.4104118152
   11      H      -1.5910783123     0.0356039757    -1.3835543505
 ----------------------------------------------------------------

    9    -218.3547362125      2.74e-07  Convergence criterion met
 Total energy in the final basis set =     -218.3547362125

                    Orbital Energies (a.u.)
 --------------------------------------------------------------

 Alpha MOs
 -- Occupied --
-24.640 -10.212 -10.198 -10.190  -1.144  -0.803  -0.698  -0.569
 -0.498  -0.480  -0.434  -0.422  -0.381  -0.360  -0.357  -0.355
 -0.277

 Beta MOs
 -- Occupied --
-24.640 -10.212 -10.198 -10.190  -1.144  -0.803  -0.698  -0.569
 -0.498  -0.480  -0.434  -0.422  -0.381  -0.360  -0.357  -0.355
 -0.277

          Ground-State Mulliken Net Atomic Charges

     Atom                 Charge (a.u.)    Spin (a.u.)
  --------------------------------------------------------
      1 F                    -0.382240       0.000000
      2 C                    -0.059128      -0.000000
      3 C                    -0.265331       0.000000
      4 C                    -0.351849       0.000000
      5 H                     0.106321      -0.000000
      6 H                     0.119347      -0.000000
      7 H                     0.113534       0.000000
      8 H                     0.112129      -0.000000
      9 H                     0.146424      -0.000000
     10 H                     0.344333      -0.000000
     11 H                     0.116460      -0.000000
  --------------------------------------------------------
  Sum of atomic charges =    -0.000000

                    Cartesian Multipole Moments
 -----------------------------------------------------------------
    Charge (ESU x 10^10)
                 0.0000
    Dipole Moment (Debye)
         X      -0.2172      Y      -2.1345      Z      -0.4186
       Tot       2.1860
    Quadrupole Moments (Debye-Ang)
        XX     -23.1871     XY      -0.9683     YY     -31.4410
        XZ      -0.4219     YZ      -2.2149     ZZ     -24.4554

 Final energy is   -218.354736212525
 **  OPTIMIZATION CONVERGED  **
 Total job time:  366.55s(wall), 4184.87s(cpu)
        *  Thank you very much for using Q-Chem.  Have a nice day.  *
