 Q-Chem 5.1, Q-Chem, Inc., Pleasanton, CA (2018)
 Q-Chem 5.1.1 for Intel X86 EM64T Linux

User input:
--------------------------------------------------------------

$comment
potential surface scanner
$end

$rem
JOBTYPE  PES_SCAN
UNRESTRICTED TRUE
SYM_IGNORE  TRUE
GEOM_OPT_MAX_CYCLES 400
SCF_MAX_CYCLES 400
METHOD   B3LYP
BASIS   6-31G**
PDB_PRINT 2
SCF_CONVERGENCE 6
THRESH 14
SCF_PRINT 1
$end
$molecule
0 3
F 0.632653 1.229989 -0.733028
C -0.577929 -1.058569 0.252279
C 0.780824 -0.658496 -0.091417
C -1.756252 -0.135074 0.151590
H -0.756856 -2.059411 0.652497
H -2.692122 -0.645382 0.398604
H 1.232036 -0.975269 -1.030735
H 1.489211 -0.373600 0.685838
H -1.658473 0.727735 0.829960
H 0.468866 2.115495 -1.014058
H -1.855063 0.287784 -0.858335
$end
$scan
stre 1 3 1.900000 1.901000 0.100000
$end
--------------------------------------------------------------

   10    -218.2150788476      4.41e-07  Convergence criterion met
 Total energy in the final basis set =     -218.2150788476
   10    -218.2042887193      5.34e-07  Convergence criterion met
 Total energy in the final basis set =     -218.2042887193
   10    -218.2041464738      5.37e-07  Convergence criterion met
 Total energy in the final basis set =     -218.2041464738
   10    -218.2042290837      5.37e-07  Convergence criterion met
 Total energy in the final basis set =     -218.2042290837
   10    -218.2042536146      5.35e-07  Convergence criterion met
 Total energy in the final basis set =     -218.2042536146
   10    -218.2042635094      5.34e-07  Convergence criterion met
 Total energy in the final basis set =     -218.2042635094
   10    -218.2042647567      5.33e-07  Convergence criterion met
 Total energy in the final basis set =     -218.2042647567

             Standard Nuclear Orientation (Angstroms)
    I     Atom           X                Y                Z
 ----------------------------------------------------------------
    1      F       0.6311164709     1.1786341300    -0.7120143211
    2      C      -0.5720222489    -1.0351491278     0.2433231475
    3      C       0.7812592932    -0.6162525765    -0.1071676538
    4      C      -1.7624840422    -0.1278056992     0.1495990475
    5      H      -0.7349052860    -2.0393237803     0.6416285573
    6      H      -2.6895215714    -0.6502041664     0.4041517636
    7      H       1.2388016840    -0.9792155261    -1.0273400198
    8      H       1.4957083968    -0.3801613172     0.6818244931
    9      H      -1.6721964111     0.7384336092     0.8246895774
   10      H       0.4655510393     2.0746803718    -0.9948797052
   11      H      -1.8744123245     0.2915660824    -0.8606198865
 ----------------------------------------------------------------

   10    -218.2042651748      5.33e-07  Convergence criterion met
 Total energy in the final basis set =     -218.2042651748

                    Orbital Energies (a.u.)
 --------------------------------------------------------------

 Alpha MOs
 -- Occupied --
-24.685 -10.176 -10.169 -10.169  -1.186  -0.765  -0.677  -0.576
 -0.517  -0.443  -0.432  -0.393  -0.390  -0.374  -0.371  -0.347
 -0.168  -0.149

 Beta MOs
 -- Occupied --
-24.682 -10.169 -10.163 -10.156  -1.181  -0.737  -0.654  -0.554
 -0.496  -0.434  -0.417  -0.385  -0.382  -0.362  -0.357  -0.336

          Ground-State Mulliken Net Atomic Charges

     Atom                 Charge (a.u.)    Spin (a.u.)
  --------------------------------------------------------
      1 F                    -0.264166      -0.029230
      2 C                    -0.086906       0.972666
      3 C                    -0.201730       0.886220
      4 C                    -0.320895      -0.057524
      5 H                     0.085725      -0.005794
      6 H                     0.097175       0.004523
      7 H                     0.097801       0.004564
      8 H                     0.096990       0.007252
      9 H                     0.102676       0.051465
     10 H                     0.291814       0.124609
     11 H                     0.101516       0.041250
  --------------------------------------------------------
  Sum of atomic charges =    -0.000000

                    Cartesian Multipole Moments
 -----------------------------------------------------------------
    Charge (ESU x 10^10)
                -0.0000
    Dipole Moment (Debye)
         X      -0.0616      Y       1.6868      Z      -0.5347
       Tot       1.7706
    Quadrupole Moments (Debye-Ang)
        XX     -25.5772     XY       0.4579     YY     -20.8337
        XZ      -0.2068     YZ      -2.1490     ZZ     -24.8198

 Final energy is   -218.204265174805
 **  OPTIMIZATION CONVERGED  **
 Total job time:  23.26s(wall), 264.53s(cpu)
        *  Thank you very much for using Q-Chem.  Have a nice day.  *
