 Q-Chem 5.1, Q-Chem, Inc., Pleasanton, CA (2018)
 Q-Chem 5.1.1 for Intel X86 EM64T Linux

User input:
--------------------------------------------------------------

$comment
potential surface scanner
$end

$rem
JOBTYPE  PES_SCAN
UNRESTRICTED TRUE
SYM_IGNORE  TRUE
GEOM_OPT_MAX_CYCLES 400
SCF_MAX_CYCLES 400
METHOD   B3LYP
BASIS   6-31G**
PDB_PRINT 2
SCF_CONVERGENCE 6
THRESH 14
SCF_PRINT 1
$end
$molecule
0 1
F 0.269593 2.132059 0.774656
C -0.424864 -0.731647 0.253033
C 0.689500 -1.019740 -0.429436
C -1.666550 -0.115778 -0.324896
H -0.451346 -0.942907 1.322773
H -2.550367 -0.721340 -0.094559
H 1.556964 -1.460415 0.053040
H 0.763823 -0.838786 -1.499371
H -1.823155 0.876981 0.110478
H 0.536874 1.284444 0.488383
H -1.593575 -0.007671 -1.410897
$end
$scan
stre 1 3 3.500000 3.501000 0.100000
$end
--------------------------------------------------------------

    9    -218.3544794536      2.60e-07  Convergence criterion met
 Total energy in the final basis set =     -218.3544794536
    9    -218.3531325462      3.83e-07  Convergence criterion met
 Total energy in the final basis set =     -218.3531325462
    8    -218.3538011633      5.02e-07  Convergence criterion met
 Total energy in the final basis set =     -218.3538011633
    9    -218.3541168716      2.81e-07  Convergence criterion met
 Total energy in the final basis set =     -218.3541168716
    9    -218.3541240136      2.80e-07  Convergence criterion met
 Total energy in the final basis set =     -218.3541240136
    9    -218.3541267499      2.80e-07  Convergence criterion met
 Total energy in the final basis set =     -218.3541267499
    9    -218.3541294084      2.78e-07  Convergence criterion met
 Total energy in the final basis set =     -218.3541294084

             Standard Nuclear Orientation (Angstroms)
    I     Atom           X                Y                Z
 ----------------------------------------------------------------
    1      F       0.2232920797     2.1805987487     0.8062469080
    2      C      -0.4129245001    -0.7373010550     0.2481408959
    3      C       0.6880376607    -1.0559272337    -0.4423167138
    4      C      -1.6523742475    -0.1114272049    -0.3250653456
    5      H      -0.4323391912    -0.9363013946     1.3204824952
    6      H      -2.5392206740    -0.7130512268    -0.0956464076
    7      H       1.5524789891    -1.5061023310     0.0367084778
    8      H       0.7544951928    -0.8895272020    -1.5151680946
    9      H      -1.8034455788     0.8804938654     0.1139275491
   10      H       0.5096148943     1.3440943487     0.5068250561
   11      H      -1.5807176250    -0.0003493149    -1.4109308205
 ----------------------------------------------------------------

    9    -218.3541301299      2.77e-07  Convergence criterion met
 Total energy in the final basis set =     -218.3541301299

                    Orbital Energies (a.u.)
 --------------------------------------------------------------

 Alpha MOs
 -- Occupied --
-24.650 -10.208 -10.196 -10.188  -1.153  -0.799  -0.695  -0.567
 -0.504  -0.477  -0.432  -0.421  -0.380  -0.364  -0.362  -0.358
 -0.274

 Beta MOs
 -- Occupied --
-24.650 -10.208 -10.196 -10.188  -1.153  -0.799  -0.695  -0.567
 -0.504  -0.477  -0.432  -0.421  -0.380  -0.364  -0.362  -0.358
 -0.274

          Ground-State Mulliken Net Atomic Charges

     Atom                 Charge (a.u.)    Spin (a.u.)
  --------------------------------------------------------
      1 F                    -0.371066      -0.000000
      2 C                    -0.070390      -0.000000
      3 C                    -0.246684       0.000000
      4 C                    -0.354509      -0.000000
      5 H                     0.104974       0.000000
      6 H                     0.120823      -0.000000
      7 H                     0.109502       0.000000
      8 H                     0.106159      -0.000000
      9 H                     0.140878       0.000000
     10 H                     0.346576       0.000000
     11 H                     0.113737       0.000000
  --------------------------------------------------------
  Sum of atomic charges =    -0.000000

                    Cartesian Multipole Moments
 -----------------------------------------------------------------
    Charge (ESU x 10^10)
                -0.0000
    Dipole Moment (Debye)
         X       0.0203      Y      -1.9226      Z      -0.5978
       Tot       2.0135
    Quadrupole Moments (Debye-Ang)
        XX     -23.3596     XY      -0.5816     YY     -31.5389
        XZ      -0.2466     YZ      -2.4651     ZZ     -24.7514

 Final energy is   -218.354130129897
 **  OPTIMIZATION CONVERGED  **
 Total job time:  25.71s(wall), 262.21s(cpu)
        *  Thank you very much for using Q-Chem.  Have a nice day.  *
