 Q-Chem 5.1, Q-Chem, Inc., Pleasanton, CA (2018)
 Q-Chem 5.1.1 for Intel X86 EM64T Linux

User input:
--------------------------------------------------------------

$comment
potential surface scanner
$end

$rem
JOBTYPE  PES_SCAN
UNRESTRICTED TRUE
SYM_IGNORE  TRUE
GEOM_OPT_MAX_CYCLES 400
SCF_MAX_CYCLES 400
METHOD   B3LYP
BASIS   6-31G**
PDB_PRINT 2
SCF_CONVERGENCE 6
THRESH 14
SCF_PRINT 1
$end
$molecule
0 1
F 1.416551 1.319716 0.327605
C -0.700617 -0.734427 0.246021
C 0.618776 -0.827857 -0.387580
C -1.459384 0.543626 -0.136319
H -0.596143 -0.831621 1.330554
H -1.257133 -1.633352 -0.090380
H 1.431590 -1.378246 0.073997
H 0.740656 -0.562882 -1.433109
H -2.414345 0.598369 0.392613
H -0.813205 1.381870 0.132022
H -1.659845 0.580004 -1.212224
$end
$scan
stre 1 3 2.500000 2.501000 0.100000
$end
--------------------------------------------------------------

   10    -218.2578432347      7.05e-07  Convergence criterion met
 Total energy in the final basis set =     -218.2578432347
   11    -218.2481463132      3.84e-07  Convergence criterion met
 Total energy in the final basis set =     -218.2481463132
   11    -218.2480256928      4.11e-07  Convergence criterion met
 Total energy in the final basis set =     -218.2480256928
   11    -218.2480425411      4.08e-07  Convergence criterion met
 Total energy in the final basis set =     -218.2480425411
   11    -218.2480580836      4.15e-07  Convergence criterion met
 Total energy in the final basis set =     -218.2480580836
   11    -218.2480618257      4.60e-07  Convergence criterion met
 Total energy in the final basis set =     -218.2480618257
   11    -218.2480667376      6.18e-07  Convergence criterion met
 Total energy in the final basis set =     -218.2480667376
   11    -218.2480690907      7.09e-07  Convergence criterion met
 Total energy in the final basis set =     -218.2480690907
   11    -218.2480716941      7.84e-07  Convergence criterion met
 Total energy in the final basis set =     -218.2480716941
   11    -218.2480736104      8.06e-07  Convergence criterion met
 Total energy in the final basis set =     -218.2480736104
   11    -218.2480754391      8.00e-07  Convergence criterion met
 Total energy in the final basis set =     -218.2480754391
   11    -218.2480766343      7.79e-07  Convergence criterion met
 Total energy in the final basis set =     -218.2480766343

             Standard Nuclear Orientation (Angstroms)
    I     Atom           X                Y                Z
 ----------------------------------------------------------------
    1      F       1.3958209737     1.4121666952     0.3140500407
    2      C      -0.7066162035    -0.7496845386     0.2423711806
    3      C       0.6103826139    -0.8547947241    -0.3887817339
    4      C      -1.4463949455     0.5448048489    -0.1302506570
    5      H      -0.6117115450    -0.8641155024     1.3259748201
    6      H      -1.2767435351    -1.6339248675    -0.1120149361
    7      H       1.4338987309    -1.3754789422     0.0882975305
    8      H       0.7369753363    -0.5911374790    -1.4342168574
    9      H      -2.3976356261     0.6100428571     0.4041459623
   10      H      -0.7800492879     1.3680510954     0.1385875593
   11      H      -1.6510255117     0.5892705572    -1.2049629091
 ----------------------------------------------------------------

   11    -218.2480772350      7.65e-07  Convergence criterion met
 Total energy in the final basis set =     -218.2480772350

                    Orbital Energies (a.u.)
 --------------------------------------------------------------

 Alpha MOs
 -- Occupied --
-24.550 -10.301 -10.228 -10.185  -0.975  -0.829  -0.706  -0.618
 -0.508  -0.473  -0.448  -0.387  -0.375  -0.366  -0.262  -0.249
 -0.248

 Beta MOs
 -- Occupied --
-24.550 -10.301 -10.228 -10.185  -0.975  -0.829  -0.706  -0.618
 -0.508  -0.473  -0.448  -0.387  -0.375  -0.366  -0.262  -0.249
 -0.248

          Ground-State Mulliken Net Atomic Charges

     Atom                 Charge (a.u.)    Spin (a.u.)
  --------------------------------------------------------
      1 F                    -0.431000      -0.000000
      2 C                    -0.222040      -0.000000
      3 C                    -0.051751       0.000000
      4 C                    -0.327496       0.000000
      5 H                     0.150430       0.000000
      6 H                     0.138049      -0.000000
      7 H                     0.174942      -0.000000
      8 H                     0.175769      -0.000000
      9 H                     0.106533      -0.000000
     10 H                     0.183224      -0.000000
     11 H                     0.103341      -0.000000
  --------------------------------------------------------
  Sum of atomic charges =    -0.000000

                    Cartesian Multipole Moments
 -----------------------------------------------------------------
    Charge (ESU x 10^10)
                -0.0000
    Dipole Moment (Debye)
         X      -2.3216      Y      -4.6416      Z      -1.1741
       Tot       5.3210
    Quadrupole Moments (Debye-Ang)
        XX     -27.1713     XY      -5.1750     YY     -26.6044
        XZ      -1.5551     YZ      -0.4994     ZZ     -23.5374

 Final energy is   -218.248077234950
 **  OPTIMIZATION CONVERGED  **
 Total job time:  39.12s(wall), 450.34s(cpu)
        *  Thank you very much for using Q-Chem.  Have a nice day.  *
