 Q-Chem 5.1, Q-Chem, Inc., Pleasanton, CA (2018)
 Q-Chem 5.1.1 for Intel X86 EM64T Linux

User input:
--------------------------------------------------------------

$comment
potential surface scanner
$end

$rem
JOBTYPE  PES_SCAN
UNRESTRICTED TRUE
SYM_IGNORE  TRUE
GEOM_OPT_MAX_CYCLES 400
SCF_MAX_CYCLES 400
METHOD   B3LYP
BASIS   6-31G**
PDB_PRINT 2
SCF_CONVERGENCE 6
THRESH 14
SCF_PRINT 1
$end
$molecule
0 1
F 1.357600 0.611300 0.151500
C -0.630200 -0.630500 0.280500
C 0.769500 -0.528800 -0.298100
C -1.496900 0.548000 -0.133900
H -0.568500 -0.651900 1.374300
H -1.098000 -1.565100 -0.046700
H 1.386100 -1.374200 0.020100
H 0.753300 -0.494500 -1.391400
H -2.499800 0.449100 0.293300
H -1.071200 1.493600 0.216700
H -1.595000 0.598200 -1.223100
$end
$scan
stre 1 3 3.900000 3.901000 0.100000
$end
--------------------------------------------------------------

    9    -218.3794177513      2.24e-07  Convergence criterion met
 Total energy in the final basis set =     -218.3794177513
    9    -218.3750395377      2.52e-07  Convergence criterion met
 Total energy in the final basis set =     -218.3750395377
    9    -218.3568182288      3.29e-07  Convergence criterion met
 Total energy in the final basis set =     -218.3568182288
    9    -218.3348042936      4.62e-07  Convergence criterion met
 Total energy in the final basis set =     -218.3348042936
    9    -218.3142371921      7.05e-07  Convergence criterion met
 Total energy in the final basis set =     -218.3142371921
   10    -218.2957808607      4.39e-07  Convergence criterion met
 Total energy in the final basis set =     -218.2957808607
   11    -218.2790976041      2.57e-07  Convergence criterion met
 Total energy in the final basis set =     -218.2790976041
   11    -218.2640848223      2.79e-07  Convergence criterion met
    9    -218.3522090490      3.17e-07  Convergence criterion met
 Total energy in the final basis set =     -218.3522090490
    9    -218.3522105533      3.17e-07  Convergence criterion met
 Total energy in the final basis set =     -218.3522105533
    9    -218.3522118985      3.18e-07  Convergence criterion met
 Total energy in the final basis set =     -218.3522118985
    9    -218.3522125033      3.18e-07  Convergence criterion met
 Total energy in the final basis set =     -218.3522125033
    9    -218.3522127043      3.18e-07  Convergence criterion met
 Total energy in the final basis set =     -218.3522127043
    9    -218.3522128249      3.18e-07  Convergence criterion met
 Total energy in the final basis set =     -218.3522128249

             Standard Nuclear Orientation (Angstroms)
    I     Atom           X                Y                Z
 ----------------------------------------------------------------
    1      F       0.0661401784     2.3274293602     1.0204911616
    2      C      -0.3571446612    -0.7399234184     0.2085698899
    3      C       0.6603977437    -1.2039745243    -0.5241905077
    4      C      -1.5993956141    -0.0886071249    -0.3319072051
    5      H      -0.3101862656    -0.8456246699     1.2936858028
    6      H      -2.4957416368    -0.6442637508    -0.0314579891
    7      H       1.5273710857    -1.6718815180    -0.0672460375
    8      H       0.6561882038    -1.1375095622    -1.6097780383
    9      H      -1.7001169790     0.9256958319     0.0694581262
   10      H       0.4403402801     1.5650352043     0.6399604861
   11      H      -1.5809523351    -0.0311758278    -1.4243856889
 ----------------------------------------------------------------

    9    -218.3522130016      3.18e-07  Convergence criterion met
 Total energy in the final basis set =     -218.3522130016

                    Orbital Energies (a.u.)
 --------------------------------------------------------------

 Alpha MOs
 -- Occupied --
-24.660 -10.203 -10.192 -10.186  -1.163  -0.794  -0.692  -0.563
 -0.513  -0.474  -0.428  -0.419  -0.380  -0.374  -0.369  -0.354
 -0.268

 Beta MOs
 -- Occupied --
-24.660 -10.203 -10.192 -10.186  -1.163  -0.794  -0.692  -0.563
 -0.513  -0.474  -0.428  -0.419  -0.380  -0.374  -0.369  -0.354
 -0.268

          Ground-State Mulliken Net Atomic Charges

     Atom                 Charge (a.u.)    Spin (a.u.)
  --------------------------------------------------------
      1 F                    -0.358833       0.000000
      2 C                    -0.071493       0.000000
      3 C                    -0.237658      -0.000000
      4 C                    -0.359235      -0.000000
      5 H                     0.100432       0.000000
      6 H                     0.121973       0.000000
      7 H                     0.104684      -0.000000
      8 H                     0.101185       0.000000
      9 H                     0.132582       0.000000
     10 H                     0.354564      -0.000000
     11 H                     0.111800       0.000000
  --------------------------------------------------------
  Sum of atomic charges =    -0.000000

                    Cartesian Multipole Moments
 -----------------------------------------------------------------
    Charge (ESU x 10^10)
                -0.0000
    Dipole Moment (Debye)
         X       0.3121      Y      -1.5902      Z      -0.7061
       Tot       1.7677
    Quadrupole Moments (Debye-Ang)
        XX     -23.6694     XY      -0.0048     YY     -31.4603
        XZ       0.1256     YZ      -2.6551     ZZ     -25.1695

 Final energy is   -218.352213001643
 **  OPTIMIZATION CONVERGED  **
 Total job time:  297.15s(wall), 3468.36s(cpu)
        *  Thank you very much for using Q-Chem.  Have a nice day.  *
