 Q-Chem 5.1, Q-Chem, Inc., Pleasanton, CA (2018)
 Q-Chem 5.1.1 for Intel X86 EM64T Linux

User input:
--------------------------------------------------------------

$comment
potential surface scanner
$end

$rem
JOBTYPE  PES_SCAN
UNRESTRICTED TRUE
SYM_IGNORE  TRUE
GEOM_OPT_MAX_CYCLES 400
SCF_MAX_CYCLES 400
METHOD   B3LYP
BASIS   6-31G**
PDB_PRINT 2
SCF_CONVERGENCE 6
THRESH 14
SCF_PRINT 1
$end
$molecule
0 3
F 0.787169 1.797037 -0.395764
C -0.383640 -0.494617 0.471762
C 0.687426 -0.900865 -0.432836
C -1.747691 -0.138307 -0.049726
H -0.304748 -0.755288 1.531192
H -2.261903 -1.026202 -0.452359
H 0.724431 -1.927418 -0.801482
H 1.473346 -0.229943 -0.754811
H -2.385570 0.283648 0.732868
H 0.387465 1.266629 0.267079
H -1.669388 0.580524 -0.872729
$end
$scan
stre 1 3 2.600000 2.601000 0.100000
$end
--------------------------------------------------------------

   10    -218.2481441911      4.06e-07  Convergence criterion met
 Total energy in the final basis set =     -218.2481441911
   10    -218.2453532652      4.11e-07  Convergence criterion met
 Total energy in the final basis set =     -218.2453532652
   10    -218.2454410914      4.08e-07  Convergence criterion met
 Total energy in the final basis set =     -218.2454410914
   10    -218.2454697302      4.07e-07  Convergence criterion met
 Total energy in the final basis set =     -218.2454697302
   10    -218.2454811941      4.07e-07  Convergence criterion met
 Total energy in the final basis set =     -218.2454811941
   10    -218.2454995941      4.07e-07  Convergence criterion met
 Total energy in the final basis set =     -218.2454995941
   10    -218.2455121192      4.06e-07  Convergence criterion met
 Total energy in the final basis set =     -218.2455121192
   10    -218.2455247661      4.05e-07  Convergence criterion met
 Total energy in the final basis set =     -218.2455247661
   10    -218.2455340592      4.04e-07  Convergence criterion met
 Total energy in the final basis set =     -218.2455340592
   10    -218.2455407254      4.02e-07  Convergence criterion met
 Total energy in the final basis set =     -218.2455407254
   10    -218.2455442761      4.01e-07  Convergence criterion met
 Total energy in the final basis set =     -218.2455442761
   10    -218.2455462349      4.00e-07  Convergence criterion met
 Total energy in the final basis set =     -218.2455462349
   10    -218.2455475642      4.00e-07  Convergence criterion met
 Total energy in the final basis set =     -218.2455475642

             Standard Nuclear Orientation (Angstroms)
    I     Atom           X                Y                Z
 ----------------------------------------------------------------
    1      F       0.7354544069     1.7317457044    -0.4863338890
    2      C      -0.3844178212    -0.5013232304     0.4796062320
    3      C       0.6950763329    -0.8674075242    -0.4336759777
    4      C      -1.7443252859    -0.1236469339    -0.0373890741
    5      H      -0.3192630341    -0.8232020460     1.5233085909
    6      H      -2.2692756933    -1.0029624573    -0.4456522526
    7      H       0.7275815934    -1.8831079601    -0.8344031532
    8      H       1.5412015969    -0.2307773970    -0.6502676778
    9      H      -2.3777254302     0.2962350936     0.7503160677
   10      H       0.3599164243     1.2586220769     0.2311193173
   11      H      -1.6573260897     0.6010226741    -0.8534341835
 ----------------------------------------------------------------

   10    -218.2455483897      4.01e-07  Convergence criterion met
 Total energy in the final basis set =     -218.2455483897

                    Orbital Energies (a.u.)
 --------------------------------------------------------------

 Alpha MOs
 -- Occupied --
-24.652 -10.216 -10.196 -10.193  -1.158  -0.798  -0.695  -0.580
 -0.518  -0.460  -0.448  -0.415  -0.405  -0.374  -0.367  -0.358
 -0.217  -0.211

 Beta MOs
 -- Occupied --
-24.651 -10.204 -10.192 -10.183  -1.154  -0.769  -0.670  -0.550
 -0.507  -0.447  -0.428  -0.403  -0.390  -0.366  -0.363  -0.353

          Ground-State Mulliken Net Atomic Charges

     Atom                 Charge (a.u.)    Spin (a.u.)
  --------------------------------------------------------
      1 F                    -0.355142       0.036077
      2 C                    -0.183669       0.875955
      3 C                    -0.234346       1.007348
      4 C                    -0.326767      -0.037083
      5 H                     0.115110       0.004776
      6 H                     0.125739       0.060817
      7 H                     0.109539       0.005681
      8 H                     0.147306      -0.012611
      9 H                     0.115157       0.013650
     10 H                     0.350987       0.024956
     11 H                     0.136087       0.020432
  --------------------------------------------------------
  Sum of atomic charges =    -0.000000

                    Cartesian Multipole Moments
 -----------------------------------------------------------------
    Charge (ESU x 10^10)
                 0.0000
    Dipole Moment (Debye)
         X      -1.0445      Y      -1.3962      Z       1.1203
       Tot       2.0725
    Quadrupole Moments (Debye-Ang)
        XX     -24.7369     XY      -1.2534     YY     -27.7808
        XZ       0.1844     YZ       1.8382     ZZ     -25.2815

 Final energy is   -218.245548389741
 **  OPTIMIZATION CONVERGED  **
 Total job time:  40.47s(wall), 460.50s(cpu)
        *  Thank you very much for using Q-Chem.  Have a nice day.  *
