 Q-Chem 5.1, Q-Chem, Inc., Pleasanton, CA (2018)
 Q-Chem 5.1.1 for Intel X86 EM64T Linux

User input:
--------------------------------------------------------------

$comment
potential surface scanner
$end

$rem
JOBTYPE  PES_SCAN
UNRESTRICTED TRUE
SYM_IGNORE  TRUE
GEOM_OPT_MAX_CYCLES 400
SCF_MAX_CYCLES 400
METHOD   B3LYP
BASIS   6-31G**
PDB_PRINT 2
SCF_CONVERGENCE 6
THRESH 14
SCF_PRINT 1
$end
$molecule
0 3
F 0.174531 2.319316 0.186178
C -0.264177 -0.509939 0.367122
C 0.698948 -1.175101 -0.502324
C -1.621559 -0.092496 -0.129014
H -0.152815 -0.629251 1.449504
H -2.270467 -0.971801 -0.272883
H 0.613587 -2.237645 -0.731673
H 1.525161 -0.642011 -0.967687
H -2.118815 0.575063 0.579717
H 0.276034 1.403152 0.359801
H -1.553529 0.415910 -1.095541
$end
$scan
stre 1 3 3.500000 3.501000 0.100000
$end
--------------------------------------------------------------

   10    -218.2505999030      4.25e-07  Convergence criterion met
 Total energy in the final basis set =     -218.2505999030
   10    -218.2497555078      4.40e-07  Convergence criterion met
 Total energy in the final basis set =     -218.2497555078
   10    -218.2503204779      4.41e-07  Convergence criterion met
 Total energy in the final basis set =     -218.2503204779
   10    -218.2505321331      4.35e-07  Convergence criterion met
 Total energy in the final basis set =     -218.2505321331
   10    -218.2505378592      4.34e-07  Convergence criterion met
 Total energy in the final basis set =     -218.2505378592
   10    -218.2505451834      4.32e-07  Convergence criterion met
 Total energy in the final basis set =     -218.2505451834
   10    -218.2505552349      4.29e-07  Convergence criterion met
 Total energy in the final basis set =     -218.2505552349
   10    -218.2505671020      4.28e-07  Convergence criterion met
   10    -218.2506441953      4.16e-07  Convergence criterion met
 Total energy in the final basis set =     -218.2506441953
   10    -218.2506479711      4.17e-07  Convergence criterion met
 Total energy in the final basis set =     -218.2506479711
   10    -218.2506496227      4.18e-07  Convergence criterion met
 Total energy in the final basis set =     -218.2506496227
   10    -218.2506507376      4.20e-07  Convergence criterion met
 Total energy in the final basis set =     -218.2506507376
   10    -218.2506521437      4.21e-07  Convergence criterion met
 Total energy in the final basis set =     -218.2506521437
   10    -218.2506535517      4.22e-07  Convergence criterion met
 Total energy in the final basis set =     -218.2506535517

             Standard Nuclear Orientation (Angstroms)
    I     Atom           X                Y                Z
 ----------------------------------------------------------------
    1      F       0.2722879475     2.2827366629     0.0363772397
    2      C      -0.2813753990    -0.5220641696     0.3956854521
    3      C       0.7002285130    -1.1524692660    -0.4795947569
    4      C      -1.6330185397    -0.0994970833    -0.1120022613
    5      H      -0.1827899984    -0.6689981013     1.4756142192
    6      H      -2.2589565097    -0.9790854454    -0.3341621711
    7      H       0.6217962768    -2.2051507625    -0.7520578352
    8      H       1.5098427964    -0.5877749287    -0.9367758835
    9      H      -2.1673511788     0.5080643689     0.6239514345
   10      H       0.2725992889     1.4045668771     0.3656478738
   11      H      -1.5463641968     0.4748688478    -1.0394833112
 ----------------------------------------------------------------

   10    -218.2506544945      4.22e-07  Convergence criterion met
 Total energy in the final basis set =     -218.2506544945

                    Orbital Energies (a.u.)
 --------------------------------------------------------------

 Alpha MOs
 -- Occupied --
-24.642 -10.221 -10.209 -10.195  -1.146  -0.802  -0.700  -0.587
 -0.505  -0.463  -0.451  -0.418  -0.408  -0.376  -0.357  -0.356
 -0.223  -0.220

 Beta MOs
 -- Occupied --
-24.640 -10.209 -10.196 -10.194  -1.142  -0.772  -0.675  -0.557
 -0.495  -0.450  -0.430  -0.403  -0.395  -0.367  -0.356  -0.355

          Ground-State Mulliken Net Atomic Charges

     Atom                 Charge (a.u.)    Spin (a.u.)
  --------------------------------------------------------
      1 F                    -0.381871       0.031328
      2 C                    -0.175374       0.874413
      3 C                    -0.230873       1.010472
      4 C                    -0.327264      -0.031905
      5 H                     0.124665       0.003327
      6 H                     0.122592       0.058681
      7 H                     0.123121       0.005308
      8 H                     0.131506      -0.011167
      9 H                     0.123799       0.013728
     10 H                     0.351089       0.025535
     11 H                     0.138610       0.020279
  --------------------------------------------------------
  Sum of atomic charges =     0.000000

                    Cartesian Multipole Moments
 -----------------------------------------------------------------
    Charge (ESU x 10^10)
                -0.0000
    Dipole Moment (Debye)
         X      -0.5159      Y      -2.4186      Z       0.3775
       Tot       2.5017
    Quadrupole Moments (Debye-Ang)
        XX     -24.2244     XY      -0.5046     YY     -31.0817
        XZ      -0.4697     YZ       0.7148     ZZ     -24.5423

 Final energy is   -218.250654494525
 **  OPTIMIZATION CONVERGED  **
 Total job time:  70.09s(wall), 752.12s(cpu)
        *  Thank you very much for using Q-Chem.  Have a nice day.  *
