 Q-Chem 5.1, Q-Chem, Inc., Pleasanton, CA (2018)
 Q-Chem 5.1.1 for Intel X86 EM64T Linux

User input:
--------------------------------------------------------------

$comment
potential surface scanner
$end

$rem
JOBTYPE  PES_SCAN
UNRESTRICTED TRUE
SYM_IGNORE  TRUE
GEOM_OPT_MAX_CYCLES 400
SCF_MAX_CYCLES 400
METHOD   B3LYP
BASIS   6-31G**
PDB_PRINT 2
SCF_CONVERGENCE 6
THRESH 14
SCF_PRINT 1
$end
$molecule
0 3
F 0.802220 0.802332 -0.813580
C -0.652683 -1.040409 -0.080888
C 0.696837 -0.521909 0.078206
C -1.819699 -0.341811 0.524754
H -0.831369 -1.781198 -0.856038
H -2.704748 -0.982650 0.574999
H 1.488323 -1.159896 -0.311383
H 0.927638 -0.147502 1.076698
H -1.592573 0.026298 1.532262
H 1.077376 3.060613 -2.404199
H -2.084428 0.541333 -0.077634
$end
$scan
stre 1 3 1.500000 1.501000 0.100000
$end
--------------------------------------------------------------

   11    -218.2013589888      4.39e-07  Convergence criterion met
 Total energy in the final basis set =     -218.2013589888
   10    -218.2082910642      4.83e-07  Convergence criterion met
 Total energy in the final basis set =     -218.2082910642
   10    -218.2090103029      5.09e-07  Convergence criterion met
 Total energy in the final basis set =     -218.2090103029
   10    -218.2091328378      5.33e-07  Convergence criterion met
 Total energy in the final basis set =     -218.2091328378
   10    -218.2091350837      5.33e-07  Convergence criterion met
 Total energy in the final basis set =     -218.2091350837
   10    -218.2091435639      5.30e-07  Convergence criterion met
 Total energy in the final basis set =     -218.2091435639
   10    -218.2091489356      5.29e-07  Convergence criterion met
 Total energy in the final basis set =     -218.2091489356
   10    -218.2091534995      5.27e-07  Convergence criterion met
 Total energy in the final basis set =     -218.2091534995
   10    -218.2091556301      5.27e-07  Convergence criterion met
 Total energy in the final basis set =     -218.2091556301
   10    -218.2091574957      5.28e-07  Convergence criterion met
 Total energy in the final basis set =     -218.2091574957
   10    -218.2091591025      5.27e-07  Convergence criterion met
 Total energy in the final basis set =     -218.2091591025
   10    -218.2091602499      5.27e-07  Convergence criterion met
 Total energy in the final basis set =     -218.2091602499

             Standard Nuclear Orientation (Angstroms)
    I     Atom           X                Y                Z
 ----------------------------------------------------------------
    1      F       0.8013747589     0.7593146306    -0.7653606750
    2      C      -0.6503237423    -1.0488743478    -0.0732529070
    3      C       0.7077993131    -0.4977548143     0.0476714468
    4      C      -1.8154283581    -0.3221811184     0.5033921589
    5      H      -0.8283727496    -1.8390383059    -0.7978487722
    6      H      -2.7023219835    -0.9579402820     0.5799067316
    7      H       1.4835842933    -1.1615426241    -0.3386107294
    8      H       0.9505116916    -0.1817372370     1.0674781130
    9      H      -1.5862969030     0.0808429901     1.4976553684
   10      H       1.0288899250     3.0822888405    -2.3520086868
   11      H      -2.0825222454     0.5418232683    -0.1258250483
 ----------------------------------------------------------------

   10    -218.2091607177      5.26e-07  Convergence criterion met
 Total energy in the final basis set =     -218.2091607177

                    Orbital Energies (a.u.)
 --------------------------------------------------------------

 Alpha MOs
 -- Occupied --
-24.644 -10.256 -10.209 -10.189  -1.126  -0.794  -0.696  -0.583
 -0.486  -0.459  -0.444  -0.413  -0.392  -0.377  -0.328  -0.321
 -0.296  -0.215

 Beta MOs
 -- Occupied --
-24.641 -10.256 -10.196 -10.190  -1.118  -0.775  -0.693  -0.566
 -0.482  -0.444  -0.436  -0.402  -0.388  -0.372  -0.322  -0.318

          Ground-State Mulliken Net Atomic Charges

     Atom                 Charge (a.u.)    Spin (a.u.)
  --------------------------------------------------------
      1 F                    -0.354009       0.074798
      2 C                    -0.084076       0.971129
      3 C                     0.094052      -0.029725
      4 C                    -0.341322      -0.073484
      5 H                     0.106404      -0.042408
      6 H                     0.115775       0.010134
      7 H                     0.104774       0.000040
      8 H                     0.102899       0.013837
      9 H                     0.115573       0.018725
     10 H                    -0.001838       0.997847
     11 H                     0.141769       0.059107
  --------------------------------------------------------
  Sum of atomic charges =     0.000000

                    Cartesian Multipole Moments
 -----------------------------------------------------------------
    Charge (ESU x 10^10)
                 0.0000
    Dipole Moment (Debye)
         X      -0.7405      Y      -1.5958      Z       1.0318
       Tot       2.0395
    Quadrupole Moments (Debye-Ang)
        XX     -24.3782     XY      -1.2818     YY     -26.0101
        XZ       0.9357     YZ       1.6557     ZZ     -26.1135

 Final energy is   -218.209160717739
 **  OPTIMIZATION CONVERGED  **
 Total job time:  39.49s(wall), 423.03s(cpu)
        *  Thank you very much for using Q-Chem.  Have a nice day.  *
