 Q-Chem 5.1, Q-Chem, Inc., Pleasanton, CA (2018)
 Q-Chem 5.1.1 for Intel X86 EM64T Linux

User input:
--------------------------------------------------------------

$comment
potential surface scanner
$end

$rem
JOBTYPE  PES_SCAN
UNRESTRICTED TRUE
SYM_IGNORE  TRUE
GEOM_OPT_MAX_CYCLES 400
SCF_MAX_CYCLES 400
METHOD   B3LYP
BASIS   6-31G**
PDB_PRINT 2
SCF_CONVERGENCE 6
THRESH 14
SCF_PRINT 1
$end
$molecule
0 3
F 0.050253 2.353286 0.570440
C -0.231726 -0.482003 0.291559
C 0.703108 -1.219121 -0.548350
C -1.606164 -0.095381 -0.182802
H -0.087015 -0.513641 1.376506
H -2.308267 -0.938260 -0.074920
H 0.610460 -2.296817 -0.686762
H 1.521327 -0.731936 -1.074414
H -1.998623 0.742302 0.400144
H 0.255070 1.452006 0.412241
H -1.601524 0.184763 -1.240442
$end
$scan
stre 1 3 3.700000 3.701000 0.100000
$end
--------------------------------------------------------------

   10    -218.2507410886      4.20e-07  Convergence criterion met
 Total energy in the final basis set =     -218.2507410886
   10    -218.2495547791      4.38e-07  Convergence criterion met
 Total energy in the final basis set =     -218.2495547791
   10    -218.2502828528      4.42e-07  Convergence criterion met
 Total energy in the final basis set =     -218.2502828528
   10    -218.2505575546      4.37e-07  Convergence criterion met
 Total energy in the final basis set =     -218.2505575546
   10    -218.2505637355      4.35e-07  Convergence criterion met
 Total energy in the final basis set =     -218.2505637355
   10    -218.2505685473      4.34e-07  Convergence criterion met
 Total energy in the final basis set =     -218.2505685473
   10    -218.2505751269      4.32e-07  Convergence criterion met
 Total energy in the final basis set =     -218.2505751269
   10    -218.2505812283      4.32e-07  Convergence criterion met
   10    -218.2506052414      4.25e-07  Convergence criterion met
 Total energy in the final basis set =     -218.2506052414
   10    -218.2506081014      4.25e-07  Convergence criterion met
 Total energy in the final basis set =     -218.2506081014
   10    -218.2506102971      4.26e-07  Convergence criterion met
 Total energy in the final basis set =     -218.2506102971
   10    -218.2506128206      4.27e-07  Convergence criterion met
 Total energy in the final basis set =     -218.2506128206
   10    -218.2506155471      4.28e-07  Convergence criterion met
 Total energy in the final basis set =     -218.2506155471
   10    -218.2506172375      4.28e-07  Convergence criterion met
 Total energy in the final basis set =     -218.2506172375

             Standard Nuclear Orientation (Angstroms)
    I     Atom           X                Y                Z
 ----------------------------------------------------------------
    1      F       0.1020632886     2.3447186413     0.3623672612
    2      C      -0.2455104579    -0.4975089505     0.3319833819
    3      C       0.7036743930    -1.1964008040    -0.5256288882
    4      C      -1.6100177163    -0.0917635352    -0.1550500750
    5      H      -0.1232350602    -0.5866329429     1.4164989103
    6      H      -2.2935155418    -0.9565202913    -0.1591914193
    7      H       0.6063602063    -2.2643511435    -0.7231002885
    8      H       1.5287193801    -0.6846756214    -1.0163066863
    9      H      -2.0488149098     0.6759504476     0.4879758259
   10      H       0.2579692440     1.4203801629     0.4023953568
   11      H      -1.5707938261     0.2920020370    -1.1787433788
 ----------------------------------------------------------------

   10    -218.2506180593      4.27e-07  Convergence criterion met
 Total energy in the final basis set =     -218.2506180593

                    Orbital Energies (a.u.)
 --------------------------------------------------------------

 Alpha MOs
 -- Occupied --
-24.641 -10.221 -10.210 -10.194  -1.145  -0.803  -0.701  -0.588
 -0.504  -0.464  -0.452  -0.419  -0.408  -0.376  -0.357  -0.355
 -0.223  -0.221

 Beta MOs
 -- Occupied --
-24.639 -10.209 -10.197 -10.194  -1.141  -0.772  -0.675  -0.558
 -0.494  -0.450  -0.431  -0.404  -0.395  -0.367  -0.355  -0.353

          Ground-State Mulliken Net Atomic Charges

     Atom                 Charge (a.u.)    Spin (a.u.)
  --------------------------------------------------------
      1 F                    -0.382144       0.033388
      2 C                    -0.175785       0.869384
      3 C                    -0.233218       1.010697
      4 C                    -0.325788      -0.029973
      5 H                     0.127938       0.005149
      6 H                     0.122281       0.058943
      7 H                     0.123607       0.006931
      8 H                     0.128871      -0.011712
      9 H                     0.132989       0.017517
     10 H                     0.350876       0.026625
     11 H                     0.130373       0.013052
  --------------------------------------------------------
  Sum of atomic charges =     0.000000

                    Cartesian Multipole Moments
 -----------------------------------------------------------------
    Charge (ESU x 10^10)
                -0.0000
    Dipole Moment (Debye)
         X      -0.2371      Y      -2.5346      Z      -0.1088
       Tot       2.5480
    Quadrupole Moments (Debye-Ang)
        XX     -24.0477     XY       0.0594     YY     -31.4914
        XZ      -0.5427     YZ      -0.5468     ZZ     -24.8201

 Final energy is   -218.250618059303
 **  OPTIMIZATION CONVERGED  **
 Total job time:  67.13s(wall), 780.18s(cpu)
        *  Thank you very much for using Q-Chem.  Have a nice day.  *
