 Q-Chem 5.1, Q-Chem, Inc., Pleasanton, CA (2018)
 Q-Chem 5.1.1 for Intel X86 EM64T Linux

User input:
--------------------------------------------------------------

$comment
potential surface scanner
$end

$rem
JOBTYPE  PES_SCAN
UNRESTRICTED TRUE
SYM_IGNORE  TRUE
GEOM_OPT_MAX_CYCLES 400
SCF_MAX_CYCLES 400
METHOD   B3LYP
BASIS   6-31G**
PDB_PRINT 2
SCF_CONVERGENCE 6
THRESH 14
SCF_PRINT 1
$end
$molecule
0 3
F 0.623826 1.129793 -0.687776
C -0.568315 -1.013584 0.234577
C 0.778960 -0.571674 -0.121257
C -1.773103 -0.125530 0.149663
H -0.711448 -2.024060 0.623586
H -2.687634 -0.660575 0.422051
H 1.241629 -0.977073 -1.022113
H 1.496458 -0.384751 0.679392
H -1.686631 0.748249 0.815028
H 0.500717 2.051370 -0.987389
H -1.907563 0.283037 -0.862566
$end
$scan
stre 1 3 1.700000 1.701000 0.100000
$end
--------------------------------------------------------------

   10    -218.1907419003      6.71e-07  Convergence criterion met
 Total energy in the final basis set =     -218.1907419003
   10    -218.1747592673      6.11e-07  Convergence criterion met
 Total energy in the final basis set =     -218.1747592673
   10    -218.1750153414      6.27e-07  Convergence criterion met
 Total energy in the final basis set =     -218.1750153414
   10    -218.1757797627      6.92e-07  Convergence criterion met
 Total energy in the final basis set =     -218.1757797627
   10    -218.1758336705      7.15e-07  Convergence criterion met
 Total energy in the final basis set =     -218.1758336705
   10    -218.1758390019      7.25e-07  Convergence criterion met
 Total energy in the final basis set =     -218.1758390019
   10    -218.1758405048      7.30e-07  Convergence criterion met
 Total energy in the final basis set =     -218.1758405048

             Standard Nuclear Orientation (Angstroms)
    I     Atom           X                Y                Z
 ----------------------------------------------------------------
    1      F       0.6303939708     1.0731374305    -0.6690198833
    2      C      -0.5671258146    -0.9951438902     0.2287029463
    3      C       0.7759941799    -0.5337819512    -0.1336590487
    4      C      -1.7806344495    -0.1220727616     0.1498422496
    5      H      -0.6840095929    -2.0095389578     0.6127692961
    6      H      -2.6865637858    -0.6691753591     0.4256766142
    7      H       1.2410500560    -0.9869463118    -1.0118864104
    8      H       1.4948908721    -0.3990024972     0.6779615669
    9      H      -1.7004593648     0.7520317747     0.8149423203
   10      H       0.5061692008     2.0595960440    -0.9909806307
   11      H      -1.9228092720     0.2860984797    -0.8611530204
 ----------------------------------------------------------------

   10    -218.1758413337      7.31e-07  Convergence criterion met
 Total energy in the final basis set =     -218.1758413337

                    Orbital Energies (a.u.)
 --------------------------------------------------------------

 Alpha MOs
 -- Occupied --
-24.693 -10.199 -10.184 -10.174  -1.178  -0.777  -0.691  -0.587
 -0.518  -0.457  -0.451  -0.398  -0.392  -0.374  -0.373  -0.353
 -0.176  -0.138

 Beta MOs
 -- Occupied --
-24.690 -10.188 -10.174 -10.171  -1.171  -0.749  -0.674  -0.561
 -0.498  -0.447  -0.435  -0.386  -0.385  -0.363  -0.362  -0.343

          Ground-State Mulliken Net Atomic Charges

     Atom                 Charge (a.u.)    Spin (a.u.)
  --------------------------------------------------------
      1 F                    -0.243819      -0.084669
      2 C                    -0.096319       0.989429
      3 C                    -0.137179       0.670672
      4 C                    -0.322188      -0.066950
      5 H                     0.090986      -0.016400
      6 H                     0.100830       0.003774
      7 H                     0.108017       0.014620
      8 H                     0.107443       0.017000
      9 H                     0.110210       0.051268
     10 H                     0.171846       0.377764
     11 H                     0.110172       0.043492
  --------------------------------------------------------
  Sum of atomic charges =     0.000000

                    Cartesian Multipole Moments
 -----------------------------------------------------------------
    Charge (ESU x 10^10)
                -0.0000
    Dipole Moment (Debye)
         X       0.0189      Y       0.3955      Z      -0.1059
       Tot       0.4099
    Quadrupole Moments (Debye-Ang)
        XX     -25.1393     XY      -0.1247     YY     -23.3486
        XZ      -0.1014     YZ      -0.9502     ZZ     -25.4425

 Final energy is   -218.175841333659
 **  OPTIMIZATION CONVERGED  **
 Total job time:  24.36s(wall), 265.93s(cpu)
        *  Thank you very much for using Q-Chem.  Have a nice day.  *
