 Q-Chem 5.1, Q-Chem, Inc., Pleasanton, CA (2018)
 Q-Chem 5.1.1 for Intel X86 EM64T Linux

User input:
--------------------------------------------------------------

$comment
potential surface scanner
$end

$rem
JOBTYPE  PES_SCAN
UNRESTRICTED TRUE
SYM_IGNORE  TRUE
GEOM_OPT_MAX_CYCLES 400
SCF_MAX_CYCLES 400
METHOD   B3LYP
BASIS   6-31G**
PDB_PRINT 2
SCF_CONVERGENCE 6
THRESH 14
SCF_PRINT 1
$end
$molecule
0 1
F 1.434641 0.801509 0.251419
C -0.656350 -0.653098 0.267181
C 0.716987 -0.627632 -0.325234
C -1.510523 0.548351 -0.142307
H -0.566070 -0.708696 1.357067
H -1.127530 -1.594788 -0.055138
H 1.408831 -1.387704 0.031173
H 0.767226 -0.481422 -1.403110
H -2.489335 0.519692 0.344551
H -0.998190 1.468927 0.143255
H -1.672788 0.570061 -1.225654
$end
$scan
stre 1 3 1.800000 1.801000 0.100000
$end
--------------------------------------------------------------

    9    -218.3511438318      3.52e-07  Convergence criterion met
 Total energy in the final basis set =     -218.3511438318
    9    -218.3363567939      4.53e-07  Convergence criterion met
 Total energy in the final basis set =     -218.3363567939
    9    -218.3361139388      4.48e-07  Convergence criterion met
 Total energy in the final basis set =     -218.3361139388
    9    -218.3362308803      4.44e-07  Convergence criterion met
 Total energy in the final basis set =     -218.3362308803
    9    -218.3362331304      4.45e-07  Convergence criterion met
 Total energy in the final basis set =     -218.3362331304

             Standard Nuclear Orientation (Angstroms)
    I     Atom           X                Y                Z
 ----------------------------------------------------------------
    1      F       1.4398306598     0.8629920733     0.2769390476
    2      C      -0.6638151531    -0.6639904464     0.2643195345
    3      C       0.6990664945    -0.6577567549    -0.3383581625
    4      C      -1.5060049349     0.5461716986    -0.1443583980
    5      H      -0.5646537505    -0.7182876111     1.3532094771
    6      H      -1.1473637172    -1.6031619466    -0.0508111717
    7      H       1.4144570295    -1.3864213105     0.0325775841
    8      H       0.7652879782    -0.4786922341    -1.4089143843
    9      H      -2.4805450971     0.5328516754     0.3513496742
   10      H      -0.9726067872     1.4565710932     0.1336309721
   11      H      -1.6767537222     0.5649237631    -1.2263811730
 ----------------------------------------------------------------

    9    -218.3362334944      4.45e-07  Convergence criterion met
 Total energy in the final basis set =     -218.3362334944

                    Orbital Energies (a.u.)
 --------------------------------------------------------------

 Alpha MOs
 -- Occupied --
-24.608 -10.274 -10.206 -10.181  -1.048  -0.804  -0.693  -0.600
 -0.482  -0.464  -0.430  -0.380  -0.369  -0.360  -0.339  -0.302
 -0.300

 Beta MOs
 -- Occupied --
-24.608 -10.274 -10.206 -10.181  -1.048  -0.804  -0.693  -0.600
 -0.482  -0.464  -0.430  -0.380  -0.369  -0.360  -0.339  -0.302
 -0.300

          Ground-State Mulliken Net Atomic Charges

     Atom                 Charge (a.u.)    Spin (a.u.)
  --------------------------------------------------------
      1 F                    -0.389399      -0.000000
      2 C                    -0.201386       0.000000
      3 C                     0.036002       0.000000
      4 C                    -0.320611       0.000000
      5 H                     0.132780      -0.000000
      6 H                     0.109584      -0.000000
      7 H                     0.138696      -0.000000
      8 H                     0.139255      -0.000000
      9 H                     0.105103      -0.000000
     10 H                     0.147876      -0.000000
     11 H                     0.102100      -0.000000
  --------------------------------------------------------
  Sum of atomic charges =     0.000000

                    Cartesian Multipole Moments
 -----------------------------------------------------------------
    Charge (ESU x 10^10)
                 0.0000
    Dipole Moment (Debye)
         X      -1.6601      Y      -2.5533      Z      -0.8598
       Tot       3.1646
    Quadrupole Moments (Debye-Ang)
        XX     -27.2409     XY      -3.0197     YY     -24.8451
        XZ      -1.2217     YZ      -0.1097     ZZ     -24.0269

 Final energy is   -218.336233494372
 **  OPTIMIZATION CONVERGED  **
 Total job time:  17.92s(wall), 193.09s(cpu)
        *  Thank you very much for using Q-Chem.  Have a nice day.  *
