 Q-Chem 5.1, Q-Chem, Inc., Pleasanton, CA (2018)
 Q-Chem 5.1.1 for Intel X86 EM64T Linux

User input:
--------------------------------------------------------------

$comment
potential surface scanner
$end

$rem
JOBTYPE  PES_SCAN
UNRESTRICTED TRUE
SYM_IGNORE  TRUE
GEOM_OPT_MAX_CYCLES 400
SCF_MAX_CYCLES 400
METHOD   B3LYP
BASIS   6-31G**
PDB_PRINT 2
SCF_CONVERGENCE 6
THRESH 14
SCF_PRINT 1
$end
$molecule
0 1
F 0.313896 2.108160 0.672386
C -0.438490 -0.740854 0.265037
C 0.692279 -0.987279 -0.407002
C -1.675462 -0.115166 -0.311153
H -0.481121 -0.995535 1.324720
H -2.555948 -0.739782 -0.123263
H 1.555381 -1.438279 0.073664
H 0.783033 -0.764620 -1.467787
H -1.851691 0.857993 0.159264
H 0.547597 1.231643 0.447366
H -1.582577 0.038920 -1.390028
$end
$scan
stre 1 3 3.400000 3.401000 0.100000
$end
--------------------------------------------------------------

    9    -218.3546869297      2.67e-07  Convergence criterion met
 Total energy in the final basis set =     -218.3546869297
    9    -218.3515402298      2.69e-07  Convergence criterion met
 Total energy in the final basis set =     -218.3515402298
    9    -218.3532915763      2.65e-07  Convergence criterion met
 Total energy in the final basis set =     -218.3532915763
    9    -218.3543543984      2.56e-07  Convergence criterion met
 Total energy in the final basis set =     -218.3543543984
    9    -218.3544397162      2.58e-07  Convergence criterion met
 Total energy in the final basis set =     -218.3544397162
    9    -218.3544429407      2.58e-07  Convergence criterion met
 Total energy in the final basis set =     -218.3544429407
    9    -218.3544451539      2.58e-07  Convergence criterion met
 Total energy in the final basis set =     -218.3544451539
    9    -218.3544484729      2.58e-07  Convergence criterion met
    9    -218.3544595449      2.59e-07  Convergence criterion met
 Total energy in the final basis set =     -218.3544595449
    9    -218.3544658416      2.60e-07  Convergence criterion met
 Total energy in the final basis set =     -218.3544658416
    9    -218.3544719145      2.60e-07  Convergence criterion met
 Total energy in the final basis set =     -218.3544719145
    9    -218.3544759680      2.60e-07  Convergence criterion met
 Total energy in the final basis set =     -218.3544759680
    9    -218.3544775736      2.60e-07  Convergence criterion met
 Total energy in the final basis set =     -218.3544775736
    9    -218.3544785841      2.60e-07  Convergence criterion met
 Total energy in the final basis set =     -218.3544785841

             Standard Nuclear Orientation (Angstroms)
    I     Atom           X                Y                Z
 ----------------------------------------------------------------
    1      F       0.2695931799     2.1320586791     0.7746561460
    2      C      -0.4248640993    -0.7316468949     0.2530332215
    3      C       0.6894997653    -1.0197402924    -0.4294362325
    4      C      -1.6665497848    -0.1157776324    -0.3248955013
    5      H      -0.4513463724    -0.9429067235     1.3227729010
    6      H      -2.5503667530    -0.7213396819    -0.0945593438
    7      H       1.5569641022    -1.4604147177     0.0530398580
    8      H       0.7638225434    -0.8387857065    -1.4993709337
    9      H      -1.8231545761     0.8769807640     0.1104775805
   10      H       0.5368735402     1.2844439745     0.4883832477
   11      H      -1.5935745455    -0.0076707683    -1.4108969434
 ----------------------------------------------------------------

    9    -218.3544794532      2.60e-07  Convergence criterion met
 Total energy in the final basis set =     -218.3544794532

                    Orbital Energies (a.u.)
 --------------------------------------------------------------

 Alpha MOs
 -- Occupied --
-24.646 -10.210 -10.197 -10.189  -1.150  -0.800  -0.696  -0.568
 -0.502  -0.478  -0.433  -0.421  -0.380  -0.362  -0.360  -0.358
 -0.275

 Beta MOs
 -- Occupied --
-24.646 -10.210 -10.197 -10.189  -1.150  -0.800  -0.696  -0.568
 -0.502  -0.478  -0.433  -0.421  -0.380  -0.362  -0.360  -0.358
 -0.275

          Ground-State Mulliken Net Atomic Charges

     Atom                 Charge (a.u.)    Spin (a.u.)
  --------------------------------------------------------
      1 F                    -0.374532      -0.000000
      2 C                    -0.068606      -0.000000
      3 C                    -0.250843       0.000000
      4 C                    -0.353001      -0.000000
      5 H                     0.106166      -0.000000
      6 H                     0.120528      -0.000000
      7 H                     0.110807       0.000000
      8 H                     0.107695      -0.000000
      9 H                     0.142587       0.000000
     10 H                     0.344906       0.000000
     11 H                     0.114293      -0.000000
  --------------------------------------------------------
  Sum of atomic charges =    -0.000000

                    Cartesian Multipole Moments
 -----------------------------------------------------------------
    Charge (ESU x 10^10)
                -0.0000
    Dipole Moment (Debye)
         X      -0.0570      Y      -1.9838      Z      -0.5827
       Tot       2.0684
    Quadrupole Moments (Debye-Ang)
        XX     -23.2826     XY      -0.7295     YY     -31.4835
        XZ      -0.3076     YZ      -2.4311     ZZ     -24.6895

 Final energy is   -218.354479453177
 **  OPTIMIZATION CONVERGED  **
 Total job time:  44.90s(wall), 518.43s(cpu)
        *  Thank you very much for using Q-Chem.  Have a nice day.  *
