 Q-Chem 5.1, Q-Chem, Inc., Pleasanton, CA (2018)
 Q-Chem 5.1.1 for Intel X86 EM64T Linux

User input:
--------------------------------------------------------------

$comment
potential surface scanner
$end

$rem
JOBTYPE  PES_SCAN
UNRESTRICTED TRUE
SYM_IGNORE  TRUE
GEOM_OPT_MAX_CYCLES 400
SCF_MAX_CYCLES 400
METHOD   B3LYP
BASIS   6-31G**
PDB_PRINT 2
SCF_CONVERGENCE 6
THRESH 14
SCF_PRINT 1
$end
$molecule
0 1
F 1.446194 1.072106 0.319833
C -0.683919 -0.697541 0.254967
C 0.652473 -0.745667 -0.369883
C -1.487686 0.543334 -0.144005
H -0.572333 -0.764543 1.341458
H -1.203651 -1.622210 -0.058371
H 1.427180 -1.377923 0.050212
H 0.754994 -0.505297 -1.423507
H -2.452267 0.566313 0.369995
H -0.898179 1.420754 0.125310
H -1.675906 0.565875 -1.222807
$end
$scan
stre 1 3 2.200000 2.201000 0.100000
$end
--------------------------------------------------------------

   10    -218.2930789450      5.49e-07  Convergence criterion met
 Total energy in the final basis set =     -218.2930789450
   11    -218.2804860392      2.51e-07  Convergence criterion met
 Total energy in the final basis set =     -218.2804860392
   11    -218.2803072739      1.97e-07  Convergence criterion met
 Total energy in the final basis set =     -218.2803072739
   11    -218.2803258027      1.94e-07  Convergence criterion met
 Total energy in the final basis set =     -218.2803258027
   11    -218.2803289261      1.95e-07  Convergence criterion met
 Total energy in the final basis set =     -218.2803289261
   11    -218.2803300007      1.93e-07  Convergence criterion met
 Total energy in the final basis set =     -218.2803300007

             Standard Nuclear Orientation (Angstroms)
    I     Atom           X                Y                Z
 ----------------------------------------------------------------
    1      F       1.4419909644     1.1457595557     0.3362253113
    2      C      -0.6889934290    -0.7080385868     0.2524048249
    3      C       0.6395261422    -0.7736203979    -0.3793379552
    4      C      -1.4801519060     0.5423309227    -0.1443154669
    5      H      -0.5737495263    -0.7789780204     1.3381464120
    6      H      -1.2215871960    -1.6273811815    -0.0595015056
    7      H       1.4274282606    -1.3815029468     0.0518235118
    8      H       0.7502658641    -0.5145453924    -1.4275065706
    9      H      -2.4410768524     0.5767642938     0.3756688855
   10      H      -0.8729446572     1.4088973265     0.1216383326
   11      H      -1.6738076646     0.5655154270    -1.2220437799
 ----------------------------------------------------------------

   11    -218.2803307558      1.89e-07  Convergence criterion met
 Total energy in the final basis set =     -218.2803307558

                    Orbital Energies (a.u.)
 --------------------------------------------------------------

 Alpha MOs
 -- Occupied --
-24.569 -10.292 -10.220 -10.184  -0.995  -0.820  -0.702  -0.611
 -0.497  -0.469  -0.442  -0.382  -0.372  -0.365  -0.289  -0.266
 -0.265

 Beta MOs
 -- Occupied --
-24.569 -10.292 -10.220 -10.184  -0.995  -0.820  -0.702  -0.611
 -0.497  -0.469  -0.442  -0.382  -0.372  -0.365  -0.289  -0.266
 -0.265

          Ground-State Mulliken Net Atomic Charges

     Atom                 Charge (a.u.)    Spin (a.u.)
  --------------------------------------------------------
      1 F                    -0.415244       0.000000
      2 C                    -0.210982      -0.000000
      3 C                    -0.030898       0.000000
      4 C                    -0.324341      -0.000000
      5 H                     0.147833       0.000000
      6 H                     0.125880       0.000000
      7 H                     0.164590      -0.000000
      8 H                     0.165669       0.000000
      9 H                     0.106218       0.000000
     10 H                     0.168829       0.000000
     11 H                     0.102448       0.000000
  --------------------------------------------------------
  Sum of atomic charges =    -0.000000

                    Cartesian Multipole Moments
 -----------------------------------------------------------------
    Charge (ESU x 10^10)
                 0.0000
    Dipole Moment (Debye)
         X      -2.1691      Y      -3.7489      Z      -1.1491
       Tot       4.4810
    Quadrupole Moments (Debye-Ang)
        XX     -27.4455     XY      -4.3210     YY     -25.4225
        XZ      -1.6164     YZ      -0.3817     ZZ     -23.6954

 Final energy is   -218.280330755827
 **  OPTIMIZATION CONVERGED  **
 Total job time:  21.23s(wall), 244.90s(cpu)
        *  Thank you very much for using Q-Chem.  Have a nice day.  *
