 Q-Chem 5.1, Q-Chem, Inc., Pleasanton, CA (2018)
 Q-Chem 5.1.1 for Intel X86 EM64T Linux

User input:
--------------------------------------------------------------

$comment
potential surface scanner
$end

$rem
JOBTYPE  PES_SCAN
UNRESTRICTED TRUE
SYM_IGNORE  TRUE
GEOM_OPT_MAX_CYCLES 400
SCF_MAX_CYCLES 400
METHOD   B3LYP
BASIS   6-31G**
PDB_PRINT 2
SCF_CONVERGENCE 6
THRESH 14
SCF_PRINT 1
$end
$molecule
0 3
Br -5.035798 2.230740 0.002033
Br 2.927377 0.848698 0.013439
C 0.135373 -0.047264 0.021645
C -0.844003 -1.173498 -0.002328
C 1.569800 -0.597176 -0.003000
H 0.007289 0.563040 0.922301
H -0.004791 0.609648 -0.843766
H -1.160271 -1.615676 -0.941144
H -1.154987 -1.661802 0.915044
H 1.771617 -1.170303 -0.907212
H 1.788297 -1.207708 0.872387
$end
$scan
stre 1 4 5.300000 5.301000 0.100000
$end
--------------------------------------------------------------

   15   -5265.6027472133      7.16e-07  Convergence criterion met
 Total energy in the final basis set =    -5265.6027472133
   16   -5265.6021752410      3.05e-07  Convergence criterion met
 Total energy in the final basis set =    -5265.6021752410
   16   -5265.6025385808      2.99e-07  Convergence criterion met
 Total energy in the final basis set =    -5265.6025385808
   16   -5265.6027216483      2.93e-07  Convergence criterion met
 Total energy in the final basis set =    -5265.6027216483
   16   -5265.6027473471      2.92e-07  Convergence criterion met
 Total energy in the final basis set =    -5265.6027473471
   16   -5265.6027703625      2.90e-07  Convergence criterion met
 Total energy in the final basis set =    -5265.6027703625
   16   -5265.6027716581      2.90e-07  Convergence criterion met
 Total energy in the final basis set =    -5265.6027716581
   16   -5265.6027744131      2.91e-07  Convergence criterion met
 Total energy in the final basis set =    -5265.6027744131
   16   -5265.6027754181      2.92e-07  Convergence criterion met
 Total energy in the final basis set =    -5265.6027754181
   16   -5265.6027764920      2.94e-07  Convergence criterion met
 Total energy in the final basis set =    -5265.6027764920

             Standard Nuclear Orientation (Angstroms)
    I     Atom           X                Y                Z
 ----------------------------------------------------------------
    1      Br     -4.9776746281     2.1734026082     0.0031456871
    2      Br      2.9300484872     0.8372383807     0.0134206923
    3      C       0.1312945039    -0.0370042560     0.0211969876
    4      C      -0.8550658143    -1.1573729022    -0.0027309265
    5      C       1.5618633186    -0.5976678386    -0.0024782542
    6      H       0.0073426999     0.5744828520     0.9216090438
    7      H      -0.0037151782     0.6202739187    -0.8447027446
    8      H      -1.1675061199    -1.6021998144    -0.9417202755
    9      H      -1.1608621610    -1.6494681037     0.9145240750
   10      H       1.7592600116    -1.1732896706    -0.9061312921
   11      H       1.7749178802    -1.2096961740     0.8732660069
 ----------------------------------------------------------------

   16   -5265.6027773475      2.95e-07  Convergence criterion met
 Total energy in the final basis set =    -5265.6027773475

                    Orbital Energies (a.u.)
 --------------------------------------------------------------

 Alpha MOs
 -- Occupied --
*******-482.846 -62.559 -62.505 -56.384 -56.376 -56.376 -56.326
-56.322 -56.322 -10.248 -10.209 -10.207  -8.747  -8.692  -6.583
 -6.561  -6.561  -6.522  -6.509  -6.509  -2.674  -2.669  -2.669
 -2.652  -2.652  -2.615  -2.611  -2.611  -2.602  -2.602  -0.827
 -0.799  -0.763  -0.666  -0.601  -0.493  -0.433  -0.430  -0.417
 -0.374  -0.360  -0.359  -0.325  -0.325  -0.277  -0.274  -0.222

 Beta MOs
 -- Occupied --
*******-482.846 -62.558 -62.505 -56.378 -56.375 -56.375 -56.326
-56.322 -56.322 -10.246 -10.208 -10.196  -8.743  -8.691  -6.573
 -6.559  -6.559  -6.521  -6.509  -6.509  -2.666  -2.663  -2.663
 -2.651  -2.651  -2.615  -2.611  -2.611  -2.602  -2.601  -0.821
 -0.756  -0.753  -0.649  -0.589  -0.489  -0.426  -0.424  -0.407
 -0.357  -0.355  -0.311  -0.311  -0.275  -0.273

          Ground-State Mulliken Net Atomic Charges

     Atom                 Charge (a.u.)    Spin (a.u.)
  --------------------------------------------------------
      1 Br                   -0.000132       1.000140
      2 Br                   -0.130560       0.032418
      3 C                    -0.194774      -0.074061
      4 C                    -0.228148       1.065104
      5 C                    -0.243020       0.042892
      6 H                     0.130158       0.013528
      7 H                     0.130497       0.013824
      8 H                     0.115404      -0.046979
      9 H                     0.115437      -0.046975
     10 H                     0.152551       0.000031
     11 H                     0.152588       0.000078
  --------------------------------------------------------
  Sum of atomic charges =     0.000000

                    Cartesian Multipole Moments
 -----------------------------------------------------------------
    Charge (ESU x 10^10)
                 0.0000
    Dipole Moment (Debye)
         X      -1.7445      Y      -1.5691      Z      -0.0162
       Tot       2.3464
    Quadrupole Moments (Debye-Ang)
        XX     -64.0517     XY      -2.7621     YY     -53.7631
        XZ      -0.0235     YZ      -0.0133     ZZ     -56.1363

 Final energy is   -5265.60277734752
 **  OPTIMIZATION CONVERGED  **
 Total job time:  67.78s(wall), 789.55s(cpu)
        *  Thank you very much for using Q-Chem.  Have a nice day.  *
