 Q-Chem 5.1, Q-Chem, Inc., Pleasanton, CA (2018)
 Q-Chem 5.1.1 for Intel X86 EM64T Linux

User input:
--------------------------------------------------------------

$comment
potential surface scanner
$end

$rem
JOBTYPE  PES_SCAN
UNRESTRICTED TRUE
SYM_IGNORE  TRUE
GEOM_OPT_MAX_CYCLES 400
SCF_MAX_CYCLES 400
METHOD   B3LYP
BASIS   6-31G**
PDB_PRINT 2
SCF_CONVERGENCE 6
THRESH 14
SCF_PRINT 1
$end
$molecule
0 3
Br -2.673218 0.854237 0.677912
Br 2.754855 0.828630 0.136457
C -0.063138 0.100393 -0.231051
C -1.139250 -0.930764 -0.165127
C 1.294552 -0.506540 0.154902
H -0.238094 0.947647 0.475511
H -0.013879 0.557858 -1.223052
H -1.600703 -1.288079 -1.077855
H -1.192445 -1.587134 0.697098
H 1.588074 -1.277245 -0.557914
H 1.283144 -0.920298 1.162526
$end
$scan
stre 1 4 2.400000 2.401000 0.100000
$end
--------------------------------------------------------------

   15   -5265.5802710510      6.24e-07  Convergence criterion met
 Total energy in the final basis set =    -5265.5802710510
   14   -5265.5728061492      7.34e-07  Convergence criterion met
 Total energy in the final basis set =    -5265.5728061492
   14   -5265.5727424225      9.06e-07  Convergence criterion met
 Total energy in the final basis set =    -5265.5727424225
   14   -5265.5728020058      9.91e-07  Convergence criterion met
 Total energy in the final basis set =    -5265.5728020058
   15   -5265.5728263986      4.83e-07  Convergence criterion met
 Total energy in the final basis set =    -5265.5728263986
   14   -5265.5728375903      9.91e-07  Convergence criterion met
 Total energy in the final basis set =    -5265.5728375903
   14   -5265.5728400297      9.79e-07  Convergence criterion met
 Total energy in the final basis set =    -5265.5728400297

             Standard Nuclear Orientation (Angstroms)
    I     Atom           X                Y                Z
 ----------------------------------------------------------------
    1      Br     -2.6620492944     0.7862832357     0.6568933921
    2      Br      2.7671116994     0.8061264871     0.1259149026
    3      C      -0.0650807694     0.1186317474    -0.2266542382
    4      C      -1.1583495425    -0.9007615931    -0.1510468072
    5      C       1.2826742911    -0.5083230426     0.1562792023
    6      H      -0.2237025727     0.9726796422     0.4750944483
    7      H      -0.0167997179     0.5690610844    -1.2219559409
    8      H      -1.5849012559    -1.2814890972    -1.0722292166
    9      H      -1.1717582113    -1.5820719981     0.6941235486
   10      H       1.5627583423    -1.2864731707    -0.5536876928
   11      H       1.2699950313    -0.9149582952     1.1666754018
 ----------------------------------------------------------------

   14   -5265.5728406430      9.71e-07  Convergence criterion met
 Total energy in the final basis set =    -5265.5728406430

                    Orbital Energies (a.u.)
 --------------------------------------------------------------

 Alpha MOs
 -- Occupied --
*******-482.855 -62.546 -62.514 -56.370 -56.364 -56.363 -56.335
-56.331 -56.331 -10.259 -10.225 -10.198  -8.734  -8.701  -6.568
 -6.551  -6.549  -6.531  -6.519  -6.518  -2.660  -2.656  -2.654
 -2.641  -2.641  -2.624  -2.621  -2.620  -2.611  -2.611  -0.842
 -0.803  -0.763  -0.670  -0.613  -0.502  -0.449  -0.439  -0.428
 -0.377  -0.368  -0.343  -0.338  -0.316  -0.284  -0.282  -0.172

 Beta MOs
 -- Occupied --
*******-482.855 -62.544 -62.514 -56.364 -56.362 -56.362 -56.335
-56.331 -56.331 -10.257 -10.225 -10.185  -8.729  -8.701  -6.558
 -6.547  -6.546  -6.530  -6.518  -6.518  -2.652  -2.649  -2.648
 -2.639  -2.639  -2.624  -2.621  -2.620  -2.611  -2.611  -0.833
 -0.775  -0.740  -0.654  -0.599  -0.496  -0.439  -0.430  -0.410
 -0.370  -0.361  -0.311  -0.301  -0.282  -0.281

          Ground-State Mulliken Net Atomic Charges

     Atom                 Charge (a.u.)    Spin (a.u.)
  --------------------------------------------------------
      1 Br                    0.012625       1.017077
      2 Br                   -0.111880       0.053670
      3 C                    -0.211930       0.001696
      4 C                    -0.288781       0.888950
      5 C                    -0.249643       0.050601
      6 H                     0.132874       0.051990
      7 H                     0.146760       0.002577
      8 H                     0.124212      -0.036998
      9 H                     0.120259      -0.037071
     10 H                     0.165367       0.009233
     11 H                     0.160137      -0.001722
  --------------------------------------------------------
  Sum of atomic charges =     0.000000

                    Cartesian Multipole Moments
 -----------------------------------------------------------------
    Charge (ESU x 10^10)
                -0.0000
    Dipole Moment (Debye)
         X      -0.9226      Y      -1.7144      Z      -0.3308
       Tot       1.9748
    Quadrupole Moments (Debye-Ang)
        XX     -62.0490     XY      -0.3510     YY     -56.8379
        XZ       0.5065     YZ      -0.7219     ZZ     -56.2819

 Final energy is   -5265.57284064301
 **  OPTIMIZATION CONVERGED  **
 Total job time:  54.55s(wall), 635.45s(cpu)
        *  Thank you very much for using Q-Chem.  Have a nice day.  *
