 Q-Chem 5.1, Q-Chem, Inc., Pleasanton, CA (2018)
 Q-Chem 5.1.1 for Intel X86 EM64T Linux

User input:
--------------------------------------------------------------

$comment
potential surface scanner
$end

$rem
JOBTYPE  PES_SCAN
UNRESTRICTED TRUE
SYM_IGNORE  TRUE
GEOM_OPT_MAX_CYCLES 400
SCF_MAX_CYCLES 400
METHOD   B3LYP
BASIS   6-31G**
PDB_PRINT 2
SCF_CONVERGENCE 6
THRESH 14
SCF_PRINT 1
$end
$molecule
0 1
Br -3.013305 0.582706 0.032023
Br 2.897361 0.514135 0.024830
C 0.011306 0.231540 0.016570
C -1.203986 -0.668238 -0.006759
C 1.280751 -0.624103 -0.003379
H 0.000926 0.852889 0.915249
H 0.001991 0.898258 -0.849012
H -1.353257 -1.232407 -0.924519
H -1.350851 -1.280268 0.880364
H 1.365218 -1.226859 -0.908022
H 1.363747 -1.268952 0.872056
$end
$scan
stre 1 4 2.300000 2.301000 0.100000
$end
--------------------------------------------------------------

   10   -5265.7055782813      4.13e-07  Convergence criterion met
 Total energy in the final basis set =    -5265.7055782813
   10   -5265.6981788275      7.70e-07  Convergence criterion met
 Total energy in the final basis set =    -5265.6981788275
   10   -5265.6981903269      7.95e-07  Convergence criterion met
 Total energy in the final basis set =    -5265.6981903269
   10   -5265.6982670100      8.17e-07  Convergence criterion met
 Total energy in the final basis set =    -5265.6982670100

             Standard Nuclear Orientation (Angstroms)
    I     Atom           X                Y                Z
 ----------------------------------------------------------------
    1      Br     -3.0704379217     0.6255236595     0.0301125438
    2      Br      2.9002383200     0.5251788403     0.0234712189
    3      C       0.0163410551     0.2237130160     0.0176045386
    4      C      -1.1827091304    -0.6879262635    -0.0063411946
    5      C       1.2932684930    -0.6252400416    -0.0033503804
    6      H       0.0016672522     0.8436219612     0.9168751669
    7      H       0.0026915741     0.8887361306    -0.8488428506
    8      H      -1.3617705513    -1.2347067393    -0.9282566933
    9      H      -1.3603683565    -1.2838545371     0.8850389446
   10      H       1.3801495315    -1.2265714396    -0.9086154225
   11      H       1.3808307340    -1.2697735863     0.8717051287
 ----------------------------------------------------------------

   10   -5265.6982683315      8.18e-07  Convergence criterion met
 Total energy in the final basis set =    -5265.6982683315

                    Orbital Energies (a.u.)
 --------------------------------------------------------------

 Alpha MOs
 -- Occupied --
*******-482.846 -62.523 -62.504 -56.344 -56.340 -56.340 -56.325
-56.321 -56.321 -10.281 -10.268 -10.229  -8.710  -8.690  -6.540
 -6.527  -6.527  -6.520  -6.507  -6.507  -2.634  -2.630  -2.630
 -2.620  -2.619  -2.613  -2.610  -2.610  -2.600  -2.600  -0.852
 -0.793  -0.741  -0.680  -0.627  -0.519  -0.458  -0.456  -0.441
 -0.384  -0.382  -0.335  -0.291  -0.290  -0.276  -0.276

 Beta MOs
 -- Occupied --
*******-482.846 -62.523 -62.504 -56.344 -56.340 -56.340 -56.325
-56.321 -56.321 -10.281 -10.268 -10.229  -8.710  -8.690  -6.540
 -6.527  -6.527  -6.520  -6.507  -6.507  -2.634  -2.630  -2.630
 -2.620  -2.619  -2.613  -2.610  -2.610  -2.600  -2.600  -0.852
 -0.793  -0.741  -0.680  -0.627  -0.519  -0.458  -0.456  -0.441
 -0.384  -0.382  -0.335  -0.291  -0.290  -0.276  -0.276

          Ground-State Mulliken Net Atomic Charges

     Atom                 Charge (a.u.)    Spin (a.u.)
  --------------------------------------------------------
      1 Br                   -0.205636       0.000000
      2 Br                   -0.089412      -0.000000
      3 C                    -0.185638      -0.000000
      4 C                    -0.226288       0.000000
      5 C                    -0.268333       0.000000
      6 H                     0.156995       0.000000
      7 H                     0.156965      -0.000000
      8 H                     0.171513      -0.000000
      9 H                     0.171416      -0.000000
     10 H                     0.159189      -0.000000
     11 H                     0.159228      -0.000000
  --------------------------------------------------------
  Sum of atomic charges =    -0.000000

                    Cartesian Multipole Moments
 -----------------------------------------------------------------
    Charge (ESU x 10^10)
                 0.0000
    Dipole Moment (Debye)
         X       1.1262      Y      -2.5423      Z      -0.0659
       Tot       2.7814
    Quadrupole Moments (Debye-Ang)
        XX     -70.7519     XY       1.1407     YY     -54.7563
        XZ       0.0543     YZ      -0.0011     ZZ     -55.9209

 Final energy is   -5265.69826833149
 **  OPTIMIZATION CONVERGED  **
 Total job time:  26.17s(wall), 301.25s(cpu)
        *  Thank you very much for using Q-Chem.  Have a nice day.  *
