 Q-Chem 5.1, Q-Chem, Inc., Pleasanton, CA (2018)
 Q-Chem 5.1.1 for Intel X86 EM64T Linux

User input:
--------------------------------------------------------------

$comment
potential surface scanner
$end

$rem
JOBTYPE  PES_SCAN
UNRESTRICTED TRUE
SYM_IGNORE  TRUE
GEOM_OPT_MAX_CYCLES 400
SCF_MAX_CYCLES 400
METHOD   B3LYP
BASIS   6-31G**
PDB_PRINT 2
SCF_CONVERGENCE 6
THRESH 14
SCF_PRINT 1
$end
$molecule
0 1
Br -2.833200 0.507100 -0.012400
Br 2.833200 0.507100 -0.012500
C 0.000000 0.236900 0.032600
C -1.249900 -0.625600 -0.004000
C 1.249800 -0.625500 -0.003800
H 0.000000 0.860400 0.936100
H 0.000100 0.929600 -0.819100
H -1.300300 -1.235900 -0.909900
H -1.328900 -1.269800 0.875900
H 1.300200 -1.236000 -0.909700
H 1.328900 -1.269600 0.876200
$end
$scan
stre 1 4 4.400000 4.401000 0.100000
$end
--------------------------------------------------------------

    9   -5265.7130673012      5.26e-07  Convergence criterion met
 Total energy in the final basis set =    -5265.7130673012
   10   -5265.7103419285      3.62e-07  Convergence criterion met
 Total energy in the final basis set =    -5265.7103419285
   10   -5265.7004159107      4.95e-07  Convergence criterion met
 Total energy in the final basis set =    -5265.7004159107
   11   -5265.6887816216      1.28e-07  Convergence criterion met
 Total energy in the final basis set =    -5265.6887816216
   11   -5265.6772527924      2.89e-07  Convergence criterion met
 Total energy in the final basis set =    -5265.6772527924
   11   -5265.6661831981      4.55e-07  Convergence criterion met
 Total energy in the final basis set =    -5265.6661831981
   12   -5265.6556464166      1.80e-07  Convergence criterion met
 Total energy in the final basis set =    -5265.6556464166
   11   -5265.6456341778      8.18e-07  Convergence criterion met
   16   -5265.6004845384      4.52e-07  Convergence criterion met
 Total energy in the final basis set =    -5265.6004845384
   16   -5265.5956787593      9.20e-07  Convergence criterion met
 Total energy in the final basis set =    -5265.5956787593
   18   -5265.5914871499      4.84e-07  Convergence criterion met
 Total energy in the final basis set =    -5265.5914871499
   22   -5265.5878807538      1.56e-07  Convergence criterion met
 Total energy in the final basis set =    -5265.5878807538
   22   -5265.5860947610      4.45e-07  Convergence criterion met
 Total energy in the final basis set =    -5265.5860947610
   24   -5265.5860746377      9.85e-07  Convergence criterion met
 Total energy in the final basis set =    -5265.5860746377

             Standard Nuclear Orientation (Angstroms)
    I     Atom           X                Y                Z
 ----------------------------------------------------------------
    1      Br     -4.6087913791     1.4709147849     0.0059243340
    2      Br      2.9925364426     0.6321223642     0.0120923788
    3      C       0.1406528048     0.0837604006     0.0234162806
    4      C      -0.9183424766    -0.9250166344    -0.0040504659
    5      C       1.5166909704    -0.6636808012    -0.0035126875
    6      H       0.0965637749     0.6856827375     0.9347943084
    7      H       0.0917115424     0.7361822596    -0.8527402645
    8      H      -1.2873674388    -1.3293171776    -0.9417235594
    9      H      -1.3063835819    -1.3629728003     0.9104087821
   10      H       1.6346393519    -1.2552529936    -0.9098211733
   11      H       1.6479899894    -1.2937221397     0.8746120668
 ----------------------------------------------------------------

   21   -5265.5860814718      9.54e-07  Convergence criterion met
 Total energy in the final basis set =    -5265.5860814718

                    Orbital Energies (a.u.)
 --------------------------------------------------------------

 Alpha MOs
 -- Occupied --
*******-482.797 -62.548 -62.455 -56.369 -56.365 -56.365 -56.276
-56.272 -56.272 -10.317 -10.302 -10.267  -8.735  -8.640  -6.566
 -6.552  -6.552  -6.469  -6.458  -6.458  -2.659  -2.655  -2.655
 -2.644  -2.644  -2.562  -2.559  -2.559  -2.551  -2.551  -0.884
 -0.819  -0.717  -0.681  -0.657  -0.556  -0.500  -0.492  -0.464
 -0.420  -0.413  -0.316  -0.313  -0.237  -0.231  -0.231

 Beta MOs
 -- Occupied --
*******-482.797 -62.548 -62.455 -56.369 -56.365 -56.365 -56.276
-56.272 -56.272 -10.317 -10.302 -10.267  -8.735  -8.640  -6.566
 -6.552  -6.552  -6.469  -6.458  -6.458  -2.659  -2.655  -2.655
 -2.644  -2.644  -2.562  -2.559  -2.559  -2.551  -2.551  -0.884
 -0.819  -0.717  -0.681  -0.657  -0.556  -0.500  -0.492  -0.464
 -0.420  -0.413  -0.316  -0.313  -0.237  -0.231  -0.231

          Ground-State Mulliken Net Atomic Charges

     Atom                 Charge (a.u.)    Spin (a.u.)
  --------------------------------------------------------
      1 Br                   -0.428431      -0.000000
      2 Br                   -0.046631       0.000000
      3 C                    -0.230761      -0.000000
      4 C                    -0.114105       0.000000
      5 C                    -0.274106       0.000000
      6 H                     0.181281       0.000000
      7 H                     0.183023       0.000000
      8 H                     0.190334      -0.000000
      9 H                     0.190642      -0.000000
     10 H                     0.174248       0.000000
     11 H                     0.174505       0.000000
  --------------------------------------------------------
  Sum of atomic charges =    -0.000000

                    Cartesian Multipole Moments
 -----------------------------------------------------------------
    Charge (ESU x 10^10)
                 0.0000
    Dipole Moment (Debye)
         X       7.1525      Y      -5.2295      Z      -0.0238
       Tot       8.8604
    Quadrupole Moments (Debye-Ang)
        XX     -99.2119     XY      12.5263     YY     -57.8660
        XZ       0.0350     YZ      -0.0181     ZZ     -55.7445

 Final energy is   -5265.58608147179
 **  OPTIMIZATION CONVERGED  **
 Total job time:  126.42s(wall), 1477.95s(cpu)
        *  Thank you very much for using Q-Chem.  Have a nice day.  *
