 Q-Chem 5.1, Q-Chem, Inc., Pleasanton, CA (2018)
 Q-Chem 5.1.1 for Intel X86 EM64T Linux

User input:
--------------------------------------------------------------

$comment
potential surface scanner
$end

$rem
JOBTYPE  PES_SCAN
UNRESTRICTED TRUE
SYM_IGNORE  TRUE
GEOM_OPT_MAX_CYCLES 400
SCF_MAX_CYCLES 400
METHOD   B3LYP
BASIS   6-31G**
PDB_PRINT 2
SCF_CONVERGENCE 6
THRESH 14
SCF_PRINT 1
$end
$molecule
0 3
Br -2.639462 0.907831 0.774606
Br 2.734158 0.859440 0.156829
C -0.056977 0.072826 -0.259484
C -1.121567 -0.965303 -0.198723
C 1.300174 -0.498812 0.170422
H -0.265584 0.933758 0.426660
H 0.006357 0.519054 -1.256081
H -1.670494 -1.246691 -1.088386
H -1.181984 -1.630450 0.655555
H 1.622932 -1.280271 -0.517877
H 1.272345 -0.892676 1.185887
$end
$scan
stre 1 4 2.500000 2.501000 0.100000
$end
--------------------------------------------------------------

   14   -5265.5860138602      7.13e-07  Convergence criterion met
 Total energy in the final basis set =    -5265.5860138602
   14   -5265.5801704682      9.06e-07  Convergence criterion met
 Total energy in the final basis set =    -5265.5801704682
   14   -5265.5801335179      8.26e-07  Convergence criterion met
 Total energy in the final basis set =    -5265.5801335179
   14   -5265.5801815185      7.68e-07  Convergence criterion met
 Total energy in the final basis set =    -5265.5801815185
   14   -5265.5802079279      7.80e-07  Convergence criterion met
 Total energy in the final basis set =    -5265.5802079279
   14   -5265.5802277631      8.47e-07  Convergence criterion met
 Total energy in the final basis set =    -5265.5802277631
   14   -5265.5802344588      9.10e-07  Convergence criterion met
 Total energy in the final basis set =    -5265.5802344588
   14   -5265.5802376488      9.57e-07  Convergence criterion met
   15   -5265.5802457138      5.63e-07  Convergence criterion met
 Total energy in the final basis set =    -5265.5802457138
   15   -5265.5802536881      6.21e-07  Convergence criterion met
 Total energy in the final basis set =    -5265.5802536881
   15   -5265.5802609168      6.48e-07  Convergence criterion met
 Total energy in the final basis set =    -5265.5802609168
   15   -5265.5802668645      6.49e-07  Convergence criterion met
 Total energy in the final basis set =    -5265.5802668645
   15   -5265.5802692298      6.38e-07  Convergence criterion met
 Total energy in the final basis set =    -5265.5802692298
   15   -5265.5802702359      6.29e-07  Convergence criterion met
 Total energy in the final basis set =    -5265.5802702359

             Standard Nuclear Orientation (Angstroms)
    I     Atom           X                Y                Z
 ----------------------------------------------------------------
    1      Br     -2.6732181728     0.8542369967     0.6779124575
    2      Br      2.7548546160     0.8286299912     0.1364572510
    3      C      -0.0631378772     0.1003933512    -0.2310513769
    4      C      -1.1392499769    -0.9307635901    -0.1651266679
    5      C       1.2945522046    -0.5065401558     0.1549016851
    6      H      -0.2380938628     0.9476474944     0.4755107832
    7      H      -0.0138794634     0.5578578122    -1.2230518621
    8      H      -1.6007031491    -1.2880785074    -1.0778547907
    9      H      -1.1924448595    -1.5871344135     0.6970982855
   10      H       1.5880741635    -1.2772450841    -0.5579138198
   11      H       1.2831443775    -0.9202978948     1.1625260552
 ----------------------------------------------------------------

   15   -5265.5802710424      6.24e-07  Convergence criterion met
 Total energy in the final basis set =    -5265.5802710424

                    Orbital Energies (a.u.)
 --------------------------------------------------------------

 Alpha MOs
 -- Occupied --
*******-482.856 -62.544 -62.514 -56.368 -56.362 -56.361 -56.335
-56.332 -56.332 -10.259 -10.226 -10.201  -8.732  -8.701  -6.567
 -6.548  -6.547  -6.531  -6.519  -6.518  -2.658  -2.654  -2.653
 -2.639  -2.639  -2.625  -2.621  -2.621  -2.611  -2.611  -0.841
 -0.800  -0.765  -0.671  -0.613  -0.503  -0.449  -0.440  -0.429
 -0.377  -0.370  -0.338  -0.337  -0.315  -0.284  -0.283  -0.184

 Beta MOs
 -- Occupied --
*******-482.856 -62.543 -62.514 -56.363 -56.360 -56.360 -56.335
-56.332 -56.332 -10.258 -10.225 -10.187  -8.728  -8.701  -6.556
 -6.545  -6.545  -6.531  -6.519  -6.518  -2.650  -2.648  -2.647
 -2.638  -2.637  -2.625  -2.621  -2.621  -2.611  -2.611  -0.833
 -0.772  -0.740  -0.655  -0.599  -0.496  -0.440  -0.431  -0.410
 -0.371  -0.363  -0.307  -0.300  -0.283  -0.282

          Ground-State Mulliken Net Atomic Charges

     Atom                 Charge (a.u.)    Spin (a.u.)
  --------------------------------------------------------
      1 Br                   -0.008106       0.990316
      2 Br                   -0.110081       0.046214
      3 C                    -0.212861      -0.005453
      4 C                    -0.272970       0.933879
      5 C                    -0.250148       0.050285
      6 H                     0.134869       0.054845
      7 H                     0.146516       0.002322
      8 H                     0.125669      -0.040253
      9 H                     0.121764      -0.039868
     10 H                     0.165323       0.009480
     11 H                     0.160023      -0.001767
  --------------------------------------------------------
  Sum of atomic charges =    -0.000000

                    Cartesian Multipole Moments
 -----------------------------------------------------------------
    Charge (ESU x 10^10)
                 0.0000
    Dipole Moment (Debye)
         X      -0.8591      Y      -1.7568      Z      -0.3539
       Tot       1.9874
    Quadrupole Moments (Debye-Ang)
        XX     -61.8633     XY      -0.5089     YY     -56.9225
        XZ       0.4403     YZ      -0.7160     ZZ     -56.2546

 Final energy is   -5265.58027104242
 **  OPTIMIZATION CONVERGED  **
 Total job time:  110.60s(wall), 1278.45s(cpu)
        *  Thank you very much for using Q-Chem.  Have a nice day.  *
