 Q-Chem 5.1, Q-Chem, Inc., Pleasanton, CA (2018)
 Q-Chem 5.1.1 for Intel X86 EM64T Linux

User input:
--------------------------------------------------------------

$comment
potential surface scanner
$end

$rem
JOBTYPE  PES_SCAN
UNRESTRICTED TRUE
SYM_IGNORE  TRUE
GEOM_OPT_MAX_CYCLES 400
SCF_MAX_CYCLES 400
METHOD   B3LYP
BASIS   6-31G**
PDB_PRINT 2
SCF_CONVERGENCE 6
THRESH 14
SCF_PRINT 1
$end
$molecule
0 1
Br -2.833200 0.507100 -0.012400
Br 2.833200 0.507100 -0.012500
C 0.000000 0.236900 0.032600
C -1.249900 -0.625600 -0.004000
C 1.249800 -0.625500 -0.003800
H 0.000000 0.860400 0.936100
H 0.000100 0.929600 -0.819100
H -1.300300 -1.235900 -0.909900
H -1.328900 -1.269800 0.875900
H 1.300200 -1.236000 -0.909700
H 1.328900 -1.269600 0.876200
$end
$scan
stre 1 4 4.000000 4.001000 0.100000
$end
--------------------------------------------------------------

    9   -5265.7130673013      5.26e-07  Convergence criterion met
 Total energy in the final basis set =    -5265.7130673013
   10   -5265.7103419285      3.62e-07  Convergence criterion met
 Total energy in the final basis set =    -5265.7103419285
   10   -5265.7004159107      4.95e-07  Convergence criterion met
 Total energy in the final basis set =    -5265.7004159107
   11   -5265.6887816216      1.28e-07  Convergence criterion met
 Total energy in the final basis set =    -5265.6887816216
   11   -5265.6772527924      2.89e-07  Convergence criterion met
 Total energy in the final basis set =    -5265.6772527924
   11   -5265.6661831981      4.55e-07  Convergence criterion met
 Total energy in the final basis set =    -5265.6661831981
   12   -5265.6556464166      1.80e-07  Convergence criterion met
 Total energy in the final basis set =    -5265.6556464166
   11   -5265.6456341778      8.18e-07  Convergence criterion met
   16   -5265.6004845384      4.52e-07  Convergence criterion met
 Total energy in the final basis set =    -5265.6004845384
   15   -5265.5960954394      8.33e-07  Convergence criterion met
 Total energy in the final basis set =    -5265.5960954394
   22   -5265.5959523336      1.60e-07  Convergence criterion met
 Total energy in the final basis set =    -5265.5959523336
   15   -5265.5860105399      8.29e-07  Convergence criterion met
 Total energy in the final basis set =    -5265.5860105399
   20   -5265.5959070511      3.74e-07  Convergence criterion met
 Total energy in the final basis set =    -5265.5959070511
   16   -5265.5959572406      8.29e-07  Convergence criterion met
 Total energy in the final basis set =    -5265.5959572406

             Standard Nuclear Orientation (Angstroms)
    I     Atom           X                Y                Z
 ----------------------------------------------------------------
    1      Br     -4.2866473492     1.3163965057     0.0058981128
    2      Br      2.9666136352     0.6308999940     0.0113268810
    3      C       0.1134735836     0.1028840397     0.0235590028
    4      C      -0.9556498910    -0.8981803623    -0.0042763217
    5      C       1.4813919668    -0.6549202470    -0.0034421727
    6      H       0.0711282734     0.7050007683     0.9344906377
    7      H       0.0668076588     0.7562120284    -0.8515920740
    8      H      -1.3227817020    -1.3063645164    -0.9413266514
    9      H      -1.3422336477    -1.3401033633     0.9092368464
   10      H       1.5970972106    -1.2477886634    -0.9093529712
   11      H       1.6107002616    -1.2853361838     0.8748787104
 ----------------------------------------------------------------

   16   -5265.5959591365      8.50e-07  Convergence criterion met
 Total energy in the final basis set =    -5265.5959591365

                    Orbital Energies (a.u.)
 --------------------------------------------------------------

 Alpha MOs
 -- Occupied --
*******-482.800 -62.546 -62.458 -56.368 -56.364 -56.364 -56.279
-56.275 -56.275 -10.319 -10.300 -10.265  -8.733  -8.643  -6.564
 -6.550  -6.550  -6.472  -6.461  -6.461  -2.657  -2.654  -2.653
 -2.643  -2.643  -2.565  -2.562  -2.562  -2.554  -2.554  -0.883
 -0.818  -0.715  -0.684  -0.656  -0.554  -0.498  -0.490  -0.463
 -0.417  -0.412  -0.314  -0.312  -0.243  -0.234  -0.234

 Beta MOs
 -- Occupied --
*******-482.800 -62.546 -62.458 -56.368 -56.364 -56.364 -56.279
-56.275 -56.275 -10.319 -10.300 -10.265  -8.733  -8.643  -6.564
 -6.550  -6.550  -6.472  -6.461  -6.461  -2.657  -2.654  -2.653
 -2.643  -2.643  -2.565  -2.562  -2.562  -2.554  -2.554  -0.883
 -0.818  -0.715  -0.684  -0.656  -0.554  -0.498  -0.490  -0.463
 -0.417  -0.412  -0.314  -0.312  -0.243  -0.234  -0.234

          Ground-State Mulliken Net Atomic Charges

     Atom                 Charge (a.u.)    Spin (a.u.)
  --------------------------------------------------------
      1 Br                   -0.438466       0.000000
      2 Br                   -0.047692      -0.000000
      3 C                    -0.230024       0.000000
      4 C                    -0.107759      -0.000000
      5 C                    -0.275892      -0.000000
      6 H                     0.182635      -0.000000
      7 H                     0.184558      -0.000000
      8 H                     0.192426       0.000000
      9 H                     0.192748       0.000000
     10 H                     0.173601      -0.000000
     11 H                     0.173865       0.000000
  --------------------------------------------------------
  Sum of atomic charges =     0.000000

                    Cartesian Multipole Moments
 -----------------------------------------------------------------
    Charge (ESU x 10^10)
                -0.0000
    Dipole Moment (Debye)
         X       6.4668      Y      -4.9170      Z      -0.0235
       Tot       8.1239
    Quadrupole Moments (Debye-Ang)
        XX     -93.6515     XY      10.3426     YY     -56.9743
        XZ       0.0327     YZ      -0.0149     ZZ     -55.7492

 Final energy is   -5265.59595913651
 **  OPTIMIZATION CONVERGED  **
 Total job time:  121.68s(wall), 1416.20s(cpu)
        *  Thank you very much for using Q-Chem.  Have a nice day.  *
