 Q-Chem 5.1, Q-Chem, Inc., Pleasanton, CA (2018)
 Q-Chem 5.1.1 for Intel X86 EM64T Linux

User input:
--------------------------------------------------------------

$comment
potential surface scanner
$end

$rem
JOBTYPE  PES_SCAN
UNRESTRICTED TRUE
SYM_IGNORE  TRUE
GEOM_OPT_MAX_CYCLES 400
SCF_MAX_CYCLES 400
METHOD   B3LYP
BASIS   6-31G**
PDB_PRINT 2
SCF_CONVERGENCE 6
THRESH 14
SCF_PRINT 1
$end
$molecule
0 3
Br -4.372849 1.697630 0.006505
Br 2.913861 0.796543 0.013862
C 0.090916 0.023018 0.019397
C -0.940910 -1.055857 -0.003972
C 1.499709 -0.591519 -0.000950
H -0.010315 0.640739 0.918457
H -0.016884 0.684203 -0.847322
H -1.269747 -1.489856 -0.942722
H -1.259054 -1.541616 0.912770
H 1.676675 -1.175751 -0.903316
H 1.688498 -1.208833 0.876691
$end
$scan
stre 1 4 4.300000 4.301000 0.100000
$end
--------------------------------------------------------------

   15   -5265.6029472486      9.93e-07  Convergence criterion met
 Total energy in the final basis set =    -5265.6029472486
   16   -5265.6018953161      9.04e-07  Convergence criterion met
 Total energy in the final basis set =    -5265.6018953161
   16   -5265.6026904058      9.11e-07  Convergence criterion met
 Total energy in the final basis set =    -5265.6026904058
   16   -5265.6028950378      9.52e-07  Convergence criterion met
 Total energy in the final basis set =    -5265.6028950378
   16   -5265.6029177875      9.65e-07  Convergence criterion met
 Total energy in the final basis set =    -5265.6029177875
   16   -5265.6029430296      9.91e-07  Convergence criterion met
 Total energy in the final basis set =    -5265.6029430296
   37   -5265.6025992558      1.36e-07  Convergence criterion met
 Total energy in the final basis set =    -5265.6025992558
   17   -5265.5973219356      3.16e-07  Convergence criterion met
   16   -5265.6029281711      9.83e-07  Convergence criterion met
 Total energy in the final basis set =    -5265.6029281711
   16   -5265.6026171305      9.69e-07  Convergence criterion met
 Total energy in the final basis set =    -5265.6026171305
   16   -5265.6026207074      9.68e-07  Convergence criterion met
 Total energy in the final basis set =    -5265.6026207074
   16   -5265.6026231467      9.68e-07  Convergence criterion met
 Total energy in the final basis set =    -5265.6026231467
   16   -5265.6029465028      9.98e-07  Convergence criterion met
 Total energy in the final basis set =    -5265.6029465028
   16   -5265.6029512963      9.93e-07  Convergence criterion met
 Total energy in the final basis set =    -5265.6029512963

             Standard Nuclear Orientation (Angstroms)
    I     Atom           X                Y                Z
 ----------------------------------------------------------------
    1      Br     -4.3044900916     1.6455599990     0.0067029834
    2      Br      2.9114863440     0.7929040139     0.0139508179
    3      C       0.0862114396     0.0292614104     0.0192065382
    4      C      -0.9505637645    -1.0453627527    -0.0040955318
    5      C       1.4923435817    -0.5906570442    -0.0008150048
    6      H      -0.0122376485     0.6483235192     0.9176913040
    7      H      -0.0185891232     0.6915427223    -0.8470379365
    8      H      -1.2813744558    -1.4782081563    -0.9427339431
    9      H      -1.2698080175    -1.5306322614     0.9125755252
   10      H       1.6677741468    -1.1756333059    -0.9030284067
   11      H       1.6791475890    -1.2083971442     0.8769836542
 ----------------------------------------------------------------

   16   -5265.6029531399      9.91e-07  Convergence criterion met
 Total energy in the final basis set =    -5265.6029531399

                    Orbital Energies (a.u.)
 --------------------------------------------------------------

 Alpha MOs
 -- Occupied --
*******-482.848 -62.559 -62.506 -56.383 -56.376 -56.376 -56.327
-56.323 -56.323 -10.250 -10.212 -10.209  -8.746  -8.693  -6.583
 -6.561  -6.561  -6.523  -6.510  -6.510  -2.674  -2.668  -2.668
 -2.652  -2.652  -2.617  -2.613  -2.613  -2.603  -2.603  -0.828
 -0.799  -0.765  -0.668  -0.603  -0.495  -0.435  -0.432  -0.419
 -0.373  -0.362  -0.361  -0.324  -0.324  -0.278  -0.275  -0.225

 Beta MOs
 -- Occupied --
*******-482.847 -62.557 -62.506 -56.378 -56.375 -56.375 -56.327
-56.323 -56.323 -10.248 -10.210 -10.199  -8.742  -8.693  -6.572
 -6.559  -6.559  -6.523  -6.510  -6.510  -2.666  -2.662  -2.662
 -2.651  -2.651  -2.617  -2.613  -2.613  -2.603  -2.603  -0.823
 -0.755  -0.754  -0.651  -0.591  -0.491  -0.428  -0.426  -0.409
 -0.359  -0.357  -0.310  -0.310  -0.276  -0.275

          Ground-State Mulliken Net Atomic Charges

     Atom                 Charge (a.u.)    Spin (a.u.)
  --------------------------------------------------------
      1 Br                   -0.003289       1.001466
      2 Br                   -0.127497       0.032171
      3 C                    -0.196924      -0.073314
      4 C                    -0.233928       1.062135
      5 C                    -0.243258       0.043535
      6 H                     0.131419       0.013676
      7 H                     0.131636       0.013349
      8 H                     0.117714      -0.046575
      9 H                     0.117628      -0.046565
     10 H                     0.153255       0.000058
     11 H                     0.153243       0.000064
  --------------------------------------------------------
  Sum of atomic charges =     0.000000

                    Cartesian Multipole Moments
 -----------------------------------------------------------------
    Charge (ESU x 10^10)
                 0.0000
    Dipole Moment (Debye)
         X      -1.6753      Y      -1.5305      Z      -0.0163
       Tot       2.2692
    Quadrupole Moments (Debye-Ang)
        XX     -62.8561     XY      -3.4599     YY     -55.0392
        XZ      -0.0168     YZ      -0.0298     ZZ     -56.1255

 Final energy is   -5265.60295313992
 **  OPTIMIZATION CONVERGED  **
 Total job time:  109.46s(wall), 1270.02s(cpu)
        *  Thank you very much for using Q-Chem.  Have a nice day.  *
