 Q-Chem 5.1, Q-Chem, Inc., Pleasanton, CA (2018)
 Q-Chem 5.1.1 for Intel X86 EM64T Linux

User input:
--------------------------------------------------------------

$comment
potential surface scanner
$end

$rem
JOBTYPE  PES_SCAN
UNRESTRICTED TRUE
SYM_IGNORE  TRUE
GEOM_OPT_MAX_CYCLES 400
SCF_MAX_CYCLES 400
METHOD   B3LYP
BASIS   6-31G**
PDB_PRINT 2
SCF_CONVERGENCE 6
THRESH 14
SCF_PRINT 1
$end
$molecule
0 3
Br -5.104463 2.283025 0.000643
Br 2.929560 0.851937 0.013069
C 0.140214 -0.053540 0.022441
C -0.834591 -1.183701 -0.001818
C 1.576538 -0.598365 -0.003645
H 0.010333 0.555596 0.923611
H -0.003059 0.603530 -0.842380
H -1.147036 -1.628461 -0.940691
H -1.144983 -1.672346 0.915552
H 1.779685 -1.170085 -0.908453
H 1.797706 -1.208890 0.871070
$end
$scan
stre 1 4 5.400000 5.401000 0.100000
$end
--------------------------------------------------------------

   15   -5265.6027578991      6.60e-07  Convergence criterion met
 Total energy in the final basis set =    -5265.6027578991
   15   -5265.6021431330      7.37e-07  Convergence criterion met
 Total energy in the final basis set =    -5265.6021431330
   15   -5265.6025054498      7.32e-07  Convergence criterion met
 Total energy in the final basis set =    -5265.6025054498
   15   -5265.6026846576      7.33e-07  Convergence criterion met
 Total energy in the final basis set =    -5265.6026846576
   15   -5265.6027109382      7.39e-07  Convergence criterion met
 Total energy in the final basis set =    -5265.6027109382
   15   -5265.6027351024      7.50e-07  Convergence criterion met
 Total energy in the final basis set =    -5265.6027351024
   15   -5265.6027369288      7.48e-07  Convergence criterion met
 Total energy in the final basis set =    -5265.6027369288
   15   -5265.6027414230      7.40e-07  Convergence criterion met
 Total energy in the final basis set =    -5265.6027414230
   15   -5265.6027432948      7.34e-07  Convergence criterion met
 Total energy in the final basis set =    -5265.6027432948
   15   -5265.6027450637      7.26e-07  Convergence criterion met
 Total energy in the final basis set =    -5265.6027450637
   15   -5265.6027462834      7.20e-07  Convergence criterion met
 Total energy in the final basis set =    -5265.6027462834

             Standard Nuclear Orientation (Angstroms)
    I     Atom           X                Y                Z
 ----------------------------------------------------------------
    1      Br     -5.0357977747     2.2307400744     0.0020327667
    2      Br      2.9273767248     0.8486983173     0.0134389555
    3      C       0.1353734657    -0.0472640139     0.0216449621
    4      C      -0.8440026577    -1.1734981817    -0.0023275004
    5      C       1.5697999036    -0.5971760367    -0.0030002903
    6      H       0.0072894780     0.5630402675     0.9223007154
    7      H      -0.0047910883     0.6096480182    -0.8437655851
    8      H      -1.1602713593    -1.6156759860    -0.9411437800
    9      H      -1.1549869229    -1.6618016962     0.9150440060
   10      H       1.7716173157    -1.1703028598    -0.9072121684
   11      H       1.7882969152    -1.2077079031     0.8723869186
 ----------------------------------------------------------------

   15   -5265.6027472136      7.16e-07  Convergence criterion met
 Total energy in the final basis set =    -5265.6027472136

                    Orbital Energies (a.u.)
 --------------------------------------------------------------

 Alpha MOs
 -- Occupied --
*******-482.846 -62.560 -62.504 -56.384 -56.376 -56.376 -56.325
-56.322 -56.322 -10.248 -10.208 -10.207  -8.747  -8.691  -6.584
 -6.561  -6.561  -6.521  -6.509  -6.509  -2.674  -2.669  -2.669
 -2.652  -2.652  -2.615  -2.611  -2.611  -2.601  -2.601  -0.826
 -0.799  -0.762  -0.665  -0.600  -0.492  -0.432  -0.429  -0.417
 -0.374  -0.359  -0.359  -0.325  -0.325  -0.276  -0.273  -0.220

 Beta MOs
 -- Occupied --
*******-482.846 -62.558 -62.504 -56.378 -56.375 -56.375 -56.325
-56.322 -56.322 -10.246 -10.208 -10.195  -8.743  -8.691  -6.573
 -6.560  -6.560  -6.521  -6.509  -6.509  -2.666  -2.663  -2.663
 -2.651  -2.651  -2.615  -2.611  -2.611  -2.601  -2.601  -0.821
 -0.756  -0.752  -0.649  -0.588  -0.489  -0.426  -0.423  -0.407
 -0.357  -0.354  -0.311  -0.311  -0.274  -0.273

          Ground-State Mulliken Net Atomic Charges

     Atom                 Charge (a.u.)    Spin (a.u.)
  --------------------------------------------------------
      1 Br                   -0.000057       1.000116
      2 Br                   -0.131844       0.032268
      3 C                    -0.194533      -0.074155
      4 C                    -0.226133       1.065418
      5 C                    -0.242834       0.042852
      6 H                     0.129465       0.013595
      7 H                     0.129853       0.014051
      8 H                     0.115401      -0.047141
      9 H                     0.115502      -0.047141
     10 H                     0.152566       0.000040
     11 H                     0.152616       0.000096
  --------------------------------------------------------
  Sum of atomic charges =     0.000000

                    Cartesian Multipole Moments
 -----------------------------------------------------------------
    Charge (ESU x 10^10)
                 0.0000
    Dipole Moment (Debye)
         X      -1.7722      Y      -1.5914      Z      -0.0164
       Tot       2.3819
    Quadrupole Moments (Debye-Ang)
        XX     -63.4060     XY      -1.2792     YY     -54.4132
        XZ       0.0538     YZ       0.1149     ZZ     -56.1302

 Final energy is   -5265.60274721358
 **  OPTIMIZATION CONVERGED  **
 Total job time:  71.21s(wall), 827.25s(cpu)
        *  Thank you very much for using Q-Chem.  Have a nice day.  *
