 Q-Chem 5.1, Q-Chem, Inc., Pleasanton, CA (2018)
 Q-Chem 5.1.1 for Intel X86 EM64T Linux

User input:
--------------------------------------------------------------

$comment
potential surface scanner
$end

$rem
JOBTYPE  PES_SCAN
UNRESTRICTED TRUE
SYM_IGNORE  TRUE
GEOM_OPT_MAX_CYCLES 400
SCF_MAX_CYCLES 400
METHOD   B3LYP
BASIS   6-31G**
PDB_PRINT 2
SCF_CONVERGENCE 6
THRESH 14
SCF_PRINT 1
$end
$molecule
0 3
Br -4.918957 2.113700 0.004195
Br 2.931837 0.829168 0.013475
C 0.129231 -0.029710 0.020667
C -0.865057 -1.142961 -0.003124
C 1.556552 -0.598568 -0.002034
H 0.008315 0.583299 0.920521
H -0.001583 0.628410 -0.845281
H -1.182473 -1.584658 -0.941951
H -1.174716 -1.633092 0.913919
H 1.750999 -1.175808 -0.905290
H 1.765756 -1.211081 0.874302
$end
$scan
stre 1 4 5.100000 5.101000 0.100000
$end
--------------------------------------------------------------

   15   -5265.6027769135      9.85e-07  Convergence criterion met
 Total energy in the final basis set =    -5265.6027769135
   15   -5265.6021444463      7.59e-07  Convergence criterion met
 Total energy in the final basis set =    -5265.6021444463
   15   -5265.6025273162      7.53e-07  Convergence criterion met
 Total energy in the final basis set =    -5265.6025273162
   15   -5265.6027171222      7.71e-07  Convergence criterion met
 Total energy in the final basis set =    -5265.6027171222
   15   -5265.6027424182      7.79e-07  Convergence criterion met
 Total energy in the final basis set =    -5265.6027424182
   15   -5265.6027678271      7.96e-07  Convergence criterion met
 Total energy in the final basis set =    -5265.6027678271
   15   -5265.6027695365      7.98e-07  Convergence criterion met
 Total energy in the final basis set =    -5265.6027695365
   15   -5265.6027742092      8.03e-07  Convergence criterion met
 Total energy in the final basis set =    -5265.6027742092
   15   -5265.6027757425      8.06e-07  Convergence criterion met
 Total energy in the final basis set =    -5265.6027757425
   15   -5265.6027773336      8.09e-07  Convergence criterion met
 Total energy in the final basis set =    -5265.6027773336
   15   -5265.6027784203      8.11e-07  Convergence criterion met
 Total energy in the final basis set =    -5265.6027784203

             Standard Nuclear Orientation (Angstroms)
    I     Atom           X                Y                Z
 ----------------------------------------------------------------
    1      Br     -4.8595573393     2.0551020873     0.0049041256
    2      Br      2.9332610186     0.8205985969     0.0135031551
    3      C       0.1263580646    -0.0215868167     0.0203136224
    4      C      -0.8751741089    -1.1283904585    -0.0034041289
    5      C       1.5502139404    -0.5992910816    -0.0016999315
    6      H       0.0090950142     0.5925053438     0.9199358774
    7      H       0.0000182616     0.6371347770    -0.8458449584
    8      H      -1.1947838957    -1.5686126442    -0.9422285457
    9      H      -1.1861449394    -1.6179382425     0.9135634751
   10      H       1.7412926966    -1.1781455361    -0.9046470597
   11      H       1.7553252871    -1.2126770254     0.8750033686
 ----------------------------------------------------------------

   15   -5265.6027792312      8.13e-07  Convergence criterion met
 Total energy in the final basis set =    -5265.6027792312

                    Orbital Energies (a.u.)
 --------------------------------------------------------------

 Alpha MOs
 -- Occupied --
*******-482.846 -62.559 -62.505 -56.384 -56.376 -56.376 -56.326
-56.322 -56.322 -10.248 -10.210 -10.208  -8.747  -8.692  -6.583
 -6.561  -6.561  -6.522  -6.509  -6.509  -2.674  -2.669  -2.669
 -2.652  -2.652  -2.616  -2.612  -2.612  -2.602  -2.602  -0.827
 -0.799  -0.763  -0.666  -0.602  -0.493  -0.433  -0.430  -0.418
 -0.374  -0.361  -0.360  -0.325  -0.325  -0.277  -0.274  -0.222

 Beta MOs
 -- Occupied --
*******-482.846 -62.558 -62.505 -56.378 -56.375 -56.375 -56.326
-56.322 -56.322 -10.247 -10.209 -10.197  -8.743  -8.692  -6.573
 -6.559  -6.559  -6.522  -6.509  -6.509  -2.666  -2.663  -2.663
 -2.651  -2.651  -2.616  -2.612  -2.612  -2.602  -2.602  -0.822
 -0.756  -0.753  -0.650  -0.590  -0.490  -0.427  -0.424  -0.408
 -0.358  -0.355  -0.311  -0.311  -0.275  -0.274

          Ground-State Mulliken Net Atomic Charges

     Atom                 Charge (a.u.)    Spin (a.u.)
  --------------------------------------------------------
      1 Br                   -0.000325       1.000240
      2 Br                   -0.129665       0.032157
      3 C                    -0.195205      -0.073977
      4 C                    -0.229676       1.065066
      5 C                    -0.242972       0.042974
      6 H                     0.130276       0.013636
      7 H                     0.130566       0.013679
      8 H                     0.115778      -0.046951
      9 H                     0.115776      -0.046942
     10 H                     0.152714       0.000044
     11 H                     0.152734       0.000074
  --------------------------------------------------------
  Sum of atomic charges =    -0.000000

                    Cartesian Multipole Moments
 -----------------------------------------------------------------
    Charge (ESU x 10^10)
                -0.0000
    Dipole Moment (Debye)
         X      -1.7373      Y      -1.5493      Z      -0.0160
       Tot       2.3278
    Quadrupole Moments (Debye-Ang)
        XX     -63.6733     XY      -3.3521     YY     -54.1423
        XZ      -0.0212     YZ      -0.0248     ZZ     -56.1351

 Final energy is   -5265.60277923121
 **  OPTIMIZATION CONVERGED  **
 Total job time:  71.30s(wall), 831.28s(cpu)
        *  Thank you very much for using Q-Chem.  Have a nice day.  *
