 Q-Chem 5.1, Q-Chem, Inc., Pleasanton, CA (2018)
 Q-Chem 5.1.1 for Intel X86 EM64T Linux

User input:
--------------------------------------------------------------

$comment
potential surface scanner
$end

$rem
JOBTYPE  PES_SCAN
UNRESTRICTED TRUE
SYM_IGNORE  TRUE
GEOM_OPT_MAX_CYCLES 400
SCF_MAX_CYCLES 400
METHOD   B3LYP
BASIS   6-31G**
PDB_PRINT 2
SCF_CONVERGENCE 6
THRESH 14
SCF_PRINT 1
$end
$molecule
0 1
Br -2.833200 0.507100 -0.012400
Br 2.833200 0.507100 -0.012500
C 0.000000 0.236900 0.032600
C -1.249900 -0.625600 -0.004000
C 1.249800 -0.625500 -0.003800
H 0.000000 0.860400 0.936100
H 0.000100 0.929600 -0.819100
H -1.300300 -1.235900 -0.909900
H -1.328900 -1.269800 0.875900
H 1.300200 -1.236000 -0.909700
H 1.328900 -1.269600 0.876200
$end
$scan
stre 1 4 4.300000 4.301000 0.100000
$end
--------------------------------------------------------------

    9   -5265.7130673013      5.26e-07  Convergence criterion met
 Total energy in the final basis set =    -5265.7130673013
   10   -5265.7103419285      3.62e-07  Convergence criterion met
 Total energy in the final basis set =    -5265.7103419285
   10   -5265.7004159107      4.95e-07  Convergence criterion met
 Total energy in the final basis set =    -5265.7004159107
   11   -5265.6887816216      1.28e-07  Convergence criterion met
 Total energy in the final basis set =    -5265.6887816216
   11   -5265.6772527924      2.89e-07  Convergence criterion met
 Total energy in the final basis set =    -5265.6772527924
   11   -5265.6661831981      4.55e-07  Convergence criterion met
 Total energy in the final basis set =    -5265.6661831981
   12   -5265.6556464166      1.80e-07  Convergence criterion met
 Total energy in the final basis set =    -5265.6556464166
   11   -5265.6456341778      8.18e-07  Convergence criterion met
   16   -5265.6004845384      4.52e-07  Convergence criterion met
 Total energy in the final basis set =    -5265.6004845384
   16   -5265.5956787593      9.20e-07  Convergence criterion met
 Total energy in the final basis set =    -5265.5956787593
   18   -5265.5914871499      4.84e-07  Convergence criterion met
 Total energy in the final basis set =    -5265.5914871499
   33   -5265.5882780269      3.26e-07  Convergence criterion met
 Total energy in the final basis set =    -5265.5882780269
   20   -5265.5881816121      6.99e-07  Convergence criterion met
 Total energy in the final basis set =    -5265.5881816121
   22   -5265.5881850287      3.32e-07  Convergence criterion met
 Total energy in the final basis set =    -5265.5881850287

             Standard Nuclear Orientation (Angstroms)
    I     Atom           X                Y                Z
 ----------------------------------------------------------------
    1      Br     -4.5229302103     1.4385258778     0.0038875406
    2      Br      2.9828158187     0.6362233523     0.0122802470
    3      C       0.1322977729     0.0873571514     0.0239636198
    4      C      -0.9277672837    -0.9204468955    -0.0031525858
    5      C       1.5078023397    -0.6608527886    -0.0039918437
    6      H       0.0888240142     0.6886673502     0.9357610792
    7      H       0.0831698802     0.7394027022    -0.8524439894
    8      H      -1.2961128252    -1.3266674445    -0.9405715383
    9      H      -1.3145723653    -1.3605100946     0.9111857681
   10      H       1.6261174617    -1.2513599864    -0.9109472391
   11      H       1.6402553970    -1.2916392244     0.8734289416
 ----------------------------------------------------------------

   22   -5265.5881916107      2.19e-07  Convergence criterion met
 Total energy in the final basis set =    -5265.5881916107

                    Orbital Energies (a.u.)
 --------------------------------------------------------------

 Alpha MOs
 -- Occupied --
*******-482.798 -62.547 -62.455 -56.369 -56.365 -56.365 -56.276
-56.273 -56.273 -10.318 -10.302 -10.267  -8.734  -8.641  -6.565
 -6.552  -6.551  -6.469  -6.459  -6.459  -2.659  -2.655  -2.654
 -2.644  -2.644  -2.563  -2.560  -2.560  -2.551  -2.551  -0.884
 -0.819  -0.717  -0.682  -0.657  -0.556  -0.500  -0.491  -0.464
 -0.419  -0.413  -0.315  -0.313  -0.238  -0.231  -0.231

 Beta MOs
 -- Occupied --
*******-482.798 -62.547 -62.455 -56.369 -56.365 -56.365 -56.276
-56.273 -56.273 -10.318 -10.302 -10.267  -8.734  -8.641  -6.565
 -6.552  -6.551  -6.469  -6.459  -6.459  -2.659  -2.655  -2.654
 -2.644  -2.644  -2.563  -2.560  -2.560  -2.551  -2.551  -0.884
 -0.819  -0.717  -0.682  -0.657  -0.556  -0.500  -0.491  -0.464
 -0.419  -0.413  -0.315  -0.313  -0.238  -0.231  -0.231

          Ground-State Mulliken Net Atomic Charges

     Atom                 Charge (a.u.)    Spin (a.u.)
  --------------------------------------------------------
      1 Br                   -0.431537      -0.000000
      2 Br                   -0.046730       0.000000
      3 C                    -0.230691      -0.000000
      4 C                    -0.112362       0.000000
      5 C                    -0.274545       0.000000
      6 H                     0.181773       0.000000
      7 H                     0.183604       0.000000
      8 H                     0.190808      -0.000000
      9 H                     0.191089      -0.000000
     10 H                     0.174179       0.000000
     11 H                     0.174412       0.000000
  --------------------------------------------------------
  Sum of atomic charges =    -0.000000

                    Cartesian Multipole Moments
 -----------------------------------------------------------------
    Charge (ESU x 10^10)
                -0.0000
    Dipole Moment (Debye)
         X       6.9916      Y      -5.1755      Z      -0.0195
       Tot       8.6988
    Quadrupole Moments (Debye-Ang)
        XX     -97.7541     XY      12.0223     YY     -57.6615
        XZ       0.0155     YZ      -0.0137     ZZ     -55.7436

 Final energy is   -5265.58819161075
 **  OPTIMIZATION CONVERGED  **
 Total job time:  129.22s(wall), 1504.60s(cpu)
        *  Thank you very much for using Q-Chem.  Have a nice day.  *
