 Q-Chem 5.1, Q-Chem, Inc., Pleasanton, CA (2018)
 Q-Chem 5.1.1 for Intel X86 EM64T Linux

User input:
--------------------------------------------------------------

$comment
potential surface scanner
$end

$rem
JOBTYPE  PES_SCAN
UNRESTRICTED TRUE
SYM_IGNORE  TRUE
GEOM_OPT_MAX_CYCLES 400
SCF_MAX_CYCLES 400
METHOD   B3LYP
BASIS   6-31G**
PDB_PRINT 2
SCF_CONVERGENCE 6
THRESH 14
SCF_PRINT 1
$end
$molecule
0 1
Br -3.128321 0.669223 0.027167
Br 2.902488 0.536725 0.022891
C 0.021215 0.215234 0.018527
C -1.162722 -0.707488 -0.005802
C 1.306035 -0.626518 -0.004030
H 0.002970 0.832814 0.919054
H 0.002878 0.879265 -0.848294
H -1.368647 -1.238229 -0.930615
H -1.369620 -1.285232 0.890294
H 1.395708 -1.225945 -0.910158
H 1.397918 -1.271147 0.870368
$end
$scan
stre 1 4 2.500000 2.501000 0.100000
$end
--------------------------------------------------------------

   11   -5265.6902898216      1.57e-07  Convergence criterion met
 Total energy in the final basis set =    -5265.6902898216
   11   -5265.6819829064      2.68e-07  Convergence criterion met
 Total energy in the final basis set =    -5265.6819829064
   11   -5265.6819075060      2.74e-07  Convergence criterion met
 Total energy in the final basis set =    -5265.6819075060
   11   -5265.6819785572      2.82e-07  Convergence criterion met
 Total energy in the final basis set =    -5265.6819785572

             Standard Nuclear Orientation (Angstroms)
    I     Atom           X                Y                Z
 ----------------------------------------------------------------
    1      Br     -3.1888714832     0.7110206312     0.0316913197
    2      Br      2.9052235056     0.5467258853     0.0242841641
    3      C       0.0262029320     0.2072381872     0.0171882088
    4      C      -1.1433919629    -0.7258099201    -0.0074384405
    5      C       1.3185386273    -0.6279506694    -0.0039409327
    6      H       0.0040672126     0.8230954237     0.9185928299
    7      H       0.0042932342     0.8697534394    -0.8504999368
    8      H      -1.3748772429    -1.2405781202    -0.9345647518
    9      H      -1.3760060239    -1.2864278701     0.8924700222
   10      H       1.4122118984    -1.2272574384    -0.9095879799
   11      H       1.4125113028    -1.2711075485     0.8712074970
 ----------------------------------------------------------------

   11   -5265.6819794531      2.82e-07  Convergence criterion met
 Total energy in the final basis set =    -5265.6819794531

                    Orbital Energies (a.u.)
 --------------------------------------------------------------

 Alpha MOs
 -- Occupied --
*******-482.837 -62.527 -62.495 -56.348 -56.345 -56.344 -56.316
-56.313 -56.313 -10.292 -10.274 -10.236  -8.714  -8.681  -6.545
 -6.531  -6.531  -6.510  -6.498  -6.498  -2.638  -2.634  -2.634
 -2.624  -2.624  -2.603  -2.600  -2.600  -2.591  -2.591  -0.857
 -0.795  -0.730  -0.687  -0.632  -0.526  -0.465  -0.463  -0.444
 -0.390  -0.387  -0.317  -0.294  -0.294  -0.269  -0.268

 Beta MOs
 -- Occupied --
*******-482.837 -62.527 -62.495 -56.348 -56.345 -56.344 -56.316
-56.313 -56.313 -10.292 -10.274 -10.236  -8.714  -8.681  -6.545
 -6.531  -6.531  -6.510  -6.498  -6.498  -2.638  -2.634  -2.634
 -2.624  -2.624  -2.603  -2.600  -2.600  -2.591  -2.591  -0.857
 -0.795  -0.730  -0.687  -0.632  -0.526  -0.465  -0.463  -0.444
 -0.390  -0.387  -0.317  -0.294  -0.294  -0.269  -0.268

          Ground-State Mulliken Net Atomic Charges

     Atom                 Charge (a.u.)    Spin (a.u.)
  --------------------------------------------------------
      1 Br                   -0.274935      -0.000000
      2 Br                   -0.080883       0.000000
      3 C                    -0.192371      -0.000000
      4 C                    -0.189403      -0.000000
      5 C                    -0.271746       0.000000
      6 H                     0.163828      -0.000000
      7 H                     0.163904       0.000000
      8 H                     0.178898       0.000000
      9 H                     0.179016       0.000000
     10 H                     0.161831      -0.000000
     11 H                     0.161861       0.000000
  --------------------------------------------------------
  Sum of atomic charges =     0.000000

                    Cartesian Multipole Moments
 -----------------------------------------------------------------
    Charge (ESU x 10^10)
                 0.0000
    Dipole Moment (Debye)
         X       1.9389      Y      -2.9085      Z      -0.0747
       Tot       3.4963
    Quadrupole Moments (Debye-Ang)
        XX     -73.2144     XY       2.1239     YY     -54.7998
        XZ       0.0839     YZ      -0.0054     ZZ     -55.8979

 Final energy is   -5265.68197945311
 **  OPTIMIZATION CONVERGED  **
 Total job time:  28.10s(wall), 322.50s(cpu)
        *  Thank you very much for using Q-Chem.  Have a nice day.  *
