 Q-Chem 5.1, Q-Chem, Inc., Pleasanton, CA (2018)
 Q-Chem 5.1.1 for Intel X86 EM64T Linux

User input:
--------------------------------------------------------------

$comment
potential surface scanner
$end

$rem
JOBTYPE  PES_SCAN
UNRESTRICTED TRUE
SYM_IGNORE  TRUE
GEOM_OPT_MAX_CYCLES 400
SCF_MAX_CYCLES 400
METHOD   B3LYP
BASIS   6-31G**
PDB_PRINT 2
SCF_CONVERGENCE 6
THRESH 14
SCF_PRINT 1
$end
$molecule
0 3
Br -4.737318 1.945876 0.005216
Br 2.933464 0.803488 0.013378
C 0.118141 -0.004229 0.020052
C -0.897685 -1.098323 -0.003412
C 1.534255 -0.600191 -0.001381
H 0.008680 0.613426 0.918296
H 0.000448 0.657685 -0.844925
H -1.210106 -1.545174 -0.941906
H -1.199718 -1.596263 0.912436
H 1.718273 -1.181860 -0.904008
H 1.731469 -1.215736 0.875652
$end
$scan
stre 1 4 4.800000 4.801000 0.100000
$end
--------------------------------------------------------------

   15   -5265.6027943832      7.64e-07  Convergence criterion met
 Total energy in the final basis set =    -5265.6027943832
   15   -5265.6021324225      6.54e-07  Convergence criterion met
 Total energy in the final basis set =    -5265.6021324225
   15   -5265.6025593878      6.46e-07  Convergence criterion met
 Total energy in the final basis set =    -5265.6025593878
   15   -5265.6027684152      6.58e-07  Convergence criterion met
 Total energy in the final basis set =    -5265.6027684152
   15   -5265.6027961593      6.63e-07  Convergence criterion met
 Total energy in the final basis set =    -5265.6027961593
   15   -5265.6028308098      6.82e-07  Convergence criterion met
 Total energy in the final basis set =    -5265.6028308098
   15   -5265.6028347808      6.85e-07  Convergence criterion met
 Total energy in the final basis set =    -5265.6028347808
   15   -5265.6028482909      6.97e-07  Convergence criterion met
 Total energy in the final basis set =    -5265.6028482909
   15   -5265.6028533496      7.01e-07  Convergence criterion met
 Total energy in the final basis set =    -5265.6028533496
   15   -5265.6028571073      7.02e-07  Convergence criterion met
 Total energy in the final basis set =    -5265.6028571073
   15   -5265.6028591297      7.03e-07  Convergence criterion met
 Total energy in the final basis set =    -5265.6028591297
   15   -5265.6028602674      7.05e-07  Convergence criterion met
 Total energy in the final basis set =    -5265.6028602674

             Standard Nuclear Orientation (Angstroms)
    I     Atom           X                Y                Z
 ----------------------------------------------------------------
    1      Br     -4.6647244631     1.8901419694     0.0047575790
    2      Br      2.9302762133     0.8046187579     0.0135303635
    3      C       0.1149845390    -0.0012238056     0.0199322780
    4      C      -0.9038114640    -1.0923853235    -0.0034990027
    5      C       1.5306616764    -0.5986284028    -0.0012934010
    6      H       0.0065643081     0.6153133968     0.9189912519
    7      H      -0.0014815029     0.6594345205    -0.8460592508
    8      H      -1.2335860938    -1.5254318195    -0.9422424958
    9      H      -1.2208850870    -1.5785191089     0.9133047190
   10      H       1.7144568316    -1.1804517149    -0.9038566402
   11      H       1.7274480424    -1.2141694694     0.8758325991
 ----------------------------------------------------------------

   15   -5265.6028604865      7.06e-07  Convergence criterion met
 Total energy in the final basis set =    -5265.6028604865

                    Orbital Energies (a.u.)
 --------------------------------------------------------------

 Alpha MOs
 -- Occupied --
*******-482.847 -62.559 -62.505 -56.384 -56.376 -56.376 -56.326
-56.323 -56.323 -10.249 -10.211 -10.208  -8.747  -8.692  -6.583
 -6.561  -6.561  -6.522  -6.510  -6.510  -2.674  -2.669  -2.669
 -2.652  -2.652  -2.616  -2.612  -2.612  -2.602  -2.602  -0.827
 -0.799  -0.764  -0.667  -0.602  -0.494  -0.434  -0.431  -0.418
 -0.374  -0.361  -0.360  -0.325  -0.325  -0.277  -0.274  -0.223

 Beta MOs
 -- Occupied --
*******-482.847 -62.558 -62.505 -56.378 -56.375 -56.375 -56.326
-56.323 -56.323 -10.247 -10.209 -10.197  -8.743  -8.692  -6.573
 -6.559  -6.559  -6.522  -6.510  -6.509  -2.666  -2.663  -2.663
 -2.651  -2.651  -2.616  -2.612  -2.612  -2.602  -2.602  -0.822
 -0.756  -0.754  -0.650  -0.590  -0.490  -0.427  -0.425  -0.408
 -0.358  -0.356  -0.311  -0.311  -0.275  -0.274

          Ground-State Mulliken Net Atomic Charges

     Atom                 Charge (a.u.)    Spin (a.u.)
  --------------------------------------------------------
      1 Br                   -0.000862       1.000559
      2 Br                   -0.129018       0.031879
      3 C                    -0.195612      -0.073827
      4 C                    -0.231158       1.064698
      5 C                    -0.242933       0.043101
      6 H                     0.130599       0.013779
      7 H                     0.130850       0.013484
      8 H                     0.116248      -0.046907
      9 H                     0.116184      -0.046895
     10 H                     0.152855       0.000061
     11 H                     0.152846       0.000067
  --------------------------------------------------------
  Sum of atomic charges =     0.000000

                    Cartesian Multipole Moments
 -----------------------------------------------------------------
    Charge (ESU x 10^10)
                -0.0000
    Dipole Moment (Debye)
         X      -1.7323      Y      -1.5290      Z      -0.0161
       Tot       2.3107
    Quadrupole Moments (Debye-Ang)
        XX     -63.4108     XY      -3.4597     YY     -54.4240
        XZ      -0.0148     YZ      -0.0325     ZZ     -56.1339

 Final energy is   -5265.60286048647
 **  OPTIMIZATION CONVERGED  **
 Total job time:  78.17s(wall), 912.15s(cpu)
        *  Thank you very much for using Q-Chem.  Have a nice day.  *
