 Q-Chem 5.1, Q-Chem, Inc., Pleasanton, CA (2018)
 Q-Chem 5.1.1 for Intel X86 EM64T Linux

User input:
--------------------------------------------------------------

$comment
potential surface scanner
$end

$rem
JOBTYPE  PES_SCAN
UNRESTRICTED TRUE
SYM_IGNORE  TRUE
GEOM_OPT_MAX_CYCLES 400
SCF_MAX_CYCLES 400
METHOD   B3LYP
BASIS   6-31G**
PDB_PRINT 2
SCF_CONVERGENCE 6
THRESH 14
SCF_PRINT 1
$end
$molecule
0 1
Br -2.833200 0.507100 -0.012400
Br 2.833200 0.507100 -0.012500
C 0.000000 0.236900 0.032600
C -1.249900 -0.625600 -0.004000
C 1.249800 -0.625500 -0.003800
H 0.000000 0.860400 0.936100
H 0.000100 0.929600 -0.819100
H -1.300300 -1.235900 -0.909900
H -1.328900 -1.269800 0.875900
H 1.300200 -1.236000 -0.909700
H 1.328900 -1.269600 0.876200
$end
$scan
stre 1 4 4.200000 4.201000 0.100000
$end
--------------------------------------------------------------

    9   -5265.7130673013      5.26e-07  Convergence criterion met
 Total energy in the final basis set =    -5265.7130673013
   10   -5265.7103419285      3.62e-07  Convergence criterion met
 Total energy in the final basis set =    -5265.7103419285
   10   -5265.7004159107      4.95e-07  Convergence criterion met
 Total energy in the final basis set =    -5265.7004159107
   11   -5265.6887816216      1.28e-07  Convergence criterion met
 Total energy in the final basis set =    -5265.6887816216
   11   -5265.6772527924      2.89e-07  Convergence criterion met
 Total energy in the final basis set =    -5265.6772527924
   11   -5265.6661831981      4.55e-07  Convergence criterion met
 Total energy in the final basis set =    -5265.6661831981
   12   -5265.6556464166      1.80e-07  Convergence criterion met
 Total energy in the final basis set =    -5265.6556464166
   11   -5265.6456341778      8.18e-07  Convergence criterion met
   17   -5265.6060037127      1.28e-07  Convergence criterion met
 Total energy in the final basis set =    -5265.6060037127
   16   -5265.6004845384      4.52e-07  Convergence criterion met
 Total energy in the final basis set =    -5265.6004845384
   16   -5265.5956787593      9.20e-07  Convergence criterion met
 Total energy in the final basis set =    -5265.5956787593
   18   -5265.5914871499      4.84e-07  Convergence criterion met
 Total energy in the final basis set =    -5265.5914871499
   21   -5265.5905216168      3.73e-07  Convergence criterion met
 Total energy in the final basis set =    -5265.5905216168
   21   -5265.5905212637      2.98e-07  Convergence criterion met
 Total energy in the final basis set =    -5265.5905212637

             Standard Nuclear Orientation (Angstroms)
    I     Atom           X                Y                Z
 ----------------------------------------------------------------
    1      Br     -4.4480014086     1.3923960222     0.0059336581
    2      Br      2.9799141422     0.6311330157     0.0117209358
    3      C       0.1272062447     0.0933354285     0.0234940152
    4      C      -0.9363720679    -0.9115912560    -0.0041655494
    5      C       1.4992125189    -0.6593818198    -0.0034585140
    6      H       0.0839422512     0.6954022863     0.9346588426
    7      H       0.0792971803     0.7461739159    -0.8522327522
    8      H      -1.3052817782    -1.3169115770    -0.9414842884
    9      H      -1.3247347837    -1.3504885594     0.9097487097
   10      H       1.6156427545    -1.2516684262    -0.9096017150
   11      H       1.6290749466    -1.2896990303     0.8747866576
 ----------------------------------------------------------------

   20   -5265.5905277694      7.58e-07  Convergence criterion met
 Total energy in the final basis set =    -5265.5905277694

                    Orbital Energies (a.u.)
 --------------------------------------------------------------

 Alpha MOs
 -- Occupied --
*******-482.799 -62.547 -62.456 -56.368 -56.364 -56.364 -56.277
-56.274 -56.274 -10.318 -10.301 -10.266  -8.734  -8.641  -6.565
 -6.551  -6.551  -6.470  -6.459  -6.459  -2.658  -2.654  -2.654
 -2.643  -2.643  -2.564  -2.561  -2.561  -2.552  -2.552  -0.884
 -0.819  -0.716  -0.683  -0.657  -0.555  -0.500  -0.491  -0.464
 -0.419  -0.413  -0.315  -0.313  -0.240  -0.232  -0.232

 Beta MOs
 -- Occupied --
*******-482.799 -62.547 -62.456 -56.368 -56.364 -56.364 -56.277
-56.274 -56.274 -10.318 -10.301 -10.266  -8.734  -8.641  -6.565
 -6.551  -6.551  -6.470  -6.459  -6.459  -2.658  -2.654  -2.654
 -2.643  -2.643  -2.564  -2.561  -2.561  -2.552  -2.552  -0.884
 -0.819  -0.716  -0.683  -0.657  -0.555  -0.500  -0.491  -0.464
 -0.419  -0.413  -0.315  -0.313  -0.240  -0.232  -0.232

          Ground-State Mulliken Net Atomic Charges

     Atom                 Charge (a.u.)    Spin (a.u.)
  --------------------------------------------------------
      1 Br                   -0.434248       0.000000
      2 Br                   -0.046910      -0.000000
      3 C                    -0.230598       0.000000
      4 C                    -0.110817      -0.000000
      5 C                    -0.274972      -0.000000
      6 H                     0.182059      -0.000000
      7 H                     0.183898      -0.000000
      8 H                     0.191507       0.000000
      9 H                     0.191830       0.000000
     10 H                     0.173993       0.000000
     11 H                     0.174256       0.000000
  --------------------------------------------------------
  Sum of atomic charges =    -0.000000

                    Cartesian Multipole Moments
 -----------------------------------------------------------------
    Charge (ESU x 10^10)
                -0.0000
    Dipole Moment (Debye)
         X       6.8317      Y      -5.0773      Z      -0.0237
       Tot       8.5118
    Quadrupole Moments (Debye-Ang)
        XX     -96.4620     XY      11.4328     YY     -57.4123
        XZ       0.0343     YZ      -0.0168     ZZ     -55.7458

 Final energy is   -5265.59052776937
 **  OPTIMIZATION CONVERGED  **
 Total job time:  120.80s(wall), 1356.00s(cpu)
        *  Thank you very much for using Q-Chem.  Have a nice day.  *
