 Q-Chem 5.1, Q-Chem, Inc., Pleasanton, CA (2018)
 Q-Chem 5.1.1 for Intel X86 EM64T Linux

User input:
--------------------------------------------------------------

$comment
potential surface scanner
$end

$rem
JOBTYPE  PES_SCAN
UNRESTRICTED TRUE
SYM_IGNORE  TRUE
GEOM_OPT_MAX_CYCLES 400
SCF_MAX_CYCLES 400
METHOD   B3LYP
BASIS   6-31G**
PDB_PRINT 2
SCF_CONVERGENCE 6
THRESH 14
SCF_PRINT 1
$end
$molecule
0 3
Br -4.859557 2.055102 0.004904
Br 2.933261 0.820599 0.013503
C 0.126358 -0.021587 0.020314
C -0.875174 -1.128390 -0.003404
C 1.550214 -0.599291 -0.001700
H 0.009095 0.592505 0.919936
H 0.000018 0.637135 -0.845845
H -1.194784 -1.568613 -0.942229
H -1.186145 -1.617938 0.913563
H 1.741293 -1.178146 -0.904647
H 1.755325 -1.212677 0.875003
$end
$scan
stre 1 4 5.000000 5.001000 0.100000
$end
--------------------------------------------------------------

   15   -5265.6027792311      8.13e-07  Convergence criterion met
 Total energy in the final basis set =    -5265.6027792311
   15   -5265.6021409795      6.82e-07  Convergence criterion met
 Total energy in the final basis set =    -5265.6021409795
   15   -5265.6025307522      6.88e-07  Convergence criterion met
 Total energy in the final basis set =    -5265.6025307522
   15   -5265.6027230439      7.08e-07  Convergence criterion met
 Total energy in the final basis set =    -5265.6027230439
   15   -5265.6027481038      7.14e-07  Convergence criterion met
 Total energy in the final basis set =    -5265.6027481038
   15   -5265.6027744418      7.26e-07  Convergence criterion met
 Total energy in the final basis set =    -5265.6027744418
   15   -5265.6027762397      7.27e-07  Convergence criterion met
 Total energy in the final basis set =    -5265.6027762397
   15   -5265.6027813978      7.32e-07  Convergence criterion met
 Total energy in the final basis set =    -5265.6027813978
   15   -5265.6027829654      7.34e-07  Convergence criterion met
 Total energy in the final basis set =    -5265.6027829654
   15   -5265.6027846065      7.37e-07  Convergence criterion met
 Total energy in the final basis set =    -5265.6027846065
   15   -5265.6027856931      7.39e-07  Convergence criterion met
 Total energy in the final basis set =    -5265.6027856931

             Standard Nuclear Orientation (Angstroms)
    I     Atom           X                Y                Z
 ----------------------------------------------------------------
    1      Br     -4.7988322063     1.9972032675     0.0051795802
    2      Br      2.9340003336     0.8129314754     0.0135192635
    3      C       0.1233323202    -0.0138831133     0.0200712277
    4      C      -0.8850877674    -1.1144734252    -0.0035498695
    5      C       1.5439092072    -0.5998009012    -0.0014600872
    6      H       0.0096537565     0.6011209051     0.9195586555
    7      H       0.0011722121     0.6454365243    -0.8462375369
    8      H      -1.2077178830    -1.5525649756    -0.9423710393
    9      H      -1.1976553778    -1.6031963172     0.9133548526
   10      H       1.7318240021    -1.1800388106    -0.9041855237
   11      H       1.7453054027    -1.2140356291     0.8755184770
 ----------------------------------------------------------------

   15   -5265.6027864745      7.41e-07  Convergence criterion met
 Total energy in the final basis set =    -5265.6027864745

                    Orbital Energies (a.u.)
 --------------------------------------------------------------

 Alpha MOs
 -- Occupied --
*******-482.847 -62.559 -62.505 -56.384 -56.376 -56.376 -56.326
-56.323 -56.323 -10.249 -10.211 -10.208  -8.747  -8.692  -6.583
 -6.561  -6.561  -6.522  -6.510  -6.509  -2.674  -2.669  -2.669
 -2.652  -2.652  -2.616  -2.612  -2.612  -2.602  -2.602  -0.827
 -0.799  -0.764  -0.666  -0.602  -0.494  -0.433  -0.430  -0.418
 -0.374  -0.361  -0.360  -0.325  -0.325  -0.277  -0.274  -0.223

 Beta MOs
 -- Occupied --
*******-482.847 -62.558 -62.505 -56.378 -56.375 -56.375 -56.326
-56.323 -56.323 -10.247 -10.209 -10.197  -8.743  -8.692  -6.573
 -6.559  -6.559  -6.522  -6.510  -6.509  -2.666  -2.663  -2.663
 -2.651  -2.651  -2.616  -2.612  -2.612  -2.602  -2.602  -0.822
 -0.756  -0.754  -0.650  -0.590  -0.490  -0.427  -0.425  -0.408
 -0.358  -0.356  -0.311  -0.311  -0.275  -0.274

          Ground-State Mulliken Net Atomic Charges

     Atom                 Charge (a.u.)    Spin (a.u.)
  --------------------------------------------------------
      1 Br                   -0.000485       1.000307
      2 Br                   -0.129223       0.032101
      3 C                    -0.195503      -0.073903
      4 C                    -0.230466       1.064873
      5 C                    -0.242942       0.043044
      6 H                     0.130277       0.013681
      7 H                     0.130530       0.013593
      8 H                     0.116090      -0.046911
      9 H                     0.116068      -0.046902
     10 H                     0.152822       0.000048
     11 H                     0.152832       0.000069
  --------------------------------------------------------
  Sum of atomic charges =     0.000000

                    Cartesian Multipole Moments
 -----------------------------------------------------------------
    Charge (ESU x 10^10)
                 0.0000
    Dipole Moment (Debye)
         X      -1.7314      Y      -1.5432      Z      -0.0160
       Tot       2.3193
    Quadrupole Moments (Debye-Ang)
        XX     -63.3382     XY      -3.5516     YY     -54.4780
        XZ      -0.0184     YZ      -0.0289     ZZ     -56.1332

 Final energy is   -5265.60278647449
 **  OPTIMIZATION CONVERGED  **
 Total job time:  71.85s(wall), 836.34s(cpu)
        *  Thank you very much for using Q-Chem.  Have a nice day.  *
