 Q-Chem 5.1, Q-Chem, Inc., Pleasanton, CA (2018)
 Q-Chem 5.1.1 for Intel X86 EM64T Linux

User input:
--------------------------------------------------------------

$comment
potential surface scanner
$end

$rem
JOBTYPE  PES_SCAN
UNRESTRICTED TRUE
SYM_IGNORE  TRUE
GEOM_OPT_MAX_CYCLES 400
SCF_MAX_CYCLES 400
METHOD   B3LYP
BASIS   6-31G**
PDB_PRINT 2
SCF_CONVERGENCE 6
THRESH 14
SCF_PRINT 1
$end
$molecule
0 1
Br -2.849898 0.448862 0.028323
Br 2.890110 0.474759 0.024676
C -0.004315 0.256516 0.017436
C -1.269902 -0.605914 -0.004237
C 1.241753 -0.621682 -0.003305
H -0.001342 0.883070 0.913885
H -0.000717 0.926425 -0.847147
H -1.317743 -1.219815 -0.906027
H -1.314822 -1.268278 0.862841
H 1.314140 -1.225815 -0.908330
H 1.312635 -1.269427 0.871286
$end
$scan
stre 1 4 2.000000 2.001000 0.100000
$end
--------------------------------------------------------------

   10   -5265.7123016454      3.66e-07  Convergence criterion met
 Total energy in the final basis set =    -5265.7123016454
    9   -5265.7135514412      6.08e-07  Convergence criterion met
 Total energy in the final basis set =    -5265.7135514412
    9   -5265.7138498047      5.53e-07  Convergence criterion met
 Total energy in the final basis set =    -5265.7138498047
    9   -5265.7139156981      5.77e-07  Convergence criterion met
 Total energy in the final basis set =    -5265.7139156981
    9   -5265.7139172176      5.71e-07  Convergence criterion met
 Total energy in the final basis set =    -5265.7139172176

             Standard Nuclear Orientation (Angstroms)
    I     Atom           X                Y                Z
 ----------------------------------------------------------------
    1      Br     -2.9036561939     0.4937805817     0.0242683619
    2      Br      2.8926092632     0.4882154311     0.0226758972
    3      C       0.0009975850     0.2482423243     0.0189013077
    4      C      -1.2473310036    -0.6268437708    -0.0037952928
    5      C       1.2548214392    -0.6221699651    -0.0036760165
    6      H      -0.0000561769     0.8729920283     0.9161594840
    7      H       0.0001009889     0.9177059565    -0.8455361816
    8      H      -1.3291003454    -1.2253346859    -0.9113296483
    9      H      -1.3292194807    -1.2726029093     0.8708439774
   10      H       1.3296551072    -1.2250837392    -0.9093022301
   11      H       1.3310778169    -1.2702002515     0.8701913411
 ----------------------------------------------------------------

    9   -5265.7139175015      5.70e-07  Convergence criterion met
 Total energy in the final basis set =    -5265.7139175015

                    Orbital Energies (a.u.)
 --------------------------------------------------------------

 Alpha MOs
 -- Occupied --
*******-482.858 -62.517 -62.516 -56.338 -56.337 -56.335 -56.335
-56.334 -56.334 -10.262 -10.261 -10.221  -8.704  -8.703  -6.534
 -6.533  -6.521  -6.521  -6.520  -6.520  -2.628  -2.627  -2.624
 -2.624  -2.623  -2.623  -2.614  -2.614  -2.613  -2.613  -0.850
 -0.807  -0.750  -0.667  -0.620  -0.511  -0.450  -0.449  -0.439
 -0.378  -0.376  -0.364  -0.291  -0.286  -0.283  -0.280

 Beta MOs
 -- Occupied --
*******-482.858 -62.517 -62.516 -56.338 -56.337 -56.335 -56.335
-56.334 -56.334 -10.262 -10.261 -10.221  -8.704  -8.703  -6.534
 -6.533  -6.521  -6.521  -6.520  -6.520  -2.628  -2.627  -2.624
 -2.624  -2.623  -2.623  -2.614  -2.614  -2.613  -2.613  -0.850
 -0.807  -0.750  -0.667  -0.620  -0.511  -0.450  -0.449  -0.439
 -0.378  -0.376  -0.364  -0.291  -0.286  -0.283  -0.280

          Ground-State Mulliken Net Atomic Charges

     Atom                 Charge (a.u.)    Spin (a.u.)
  --------------------------------------------------------
      1 Br                   -0.107140       0.000000
      2 Br                   -0.100904      -0.000000
      3 C                    -0.184287      -0.000000
      4 C                    -0.262727       0.000000
      5 C                    -0.263693      -0.000000
      6 H                     0.146839       0.000000
      7 H                     0.146878      -0.000000
      8 H                     0.156767      -0.000000
      9 H                     0.156734       0.000000
     10 H                     0.155759       0.000000
     11 H                     0.155774       0.000000
  --------------------------------------------------------
  Sum of atomic charges =     0.000000

                    Cartesian Multipole Moments
 -----------------------------------------------------------------
    Charge (ESU x 10^10)
                 0.0000
    Dipole Moment (Debye)
         X       0.0624      Y      -2.0666      Z      -0.0510
       Tot       2.0681
    Quadrupole Moments (Debye-Ang)
        XX     -67.7492     XY       0.0505     YY     -54.7849
        XZ       0.0062     YZ       0.0024     ZZ     -55.9042

 Final energy is   -5265.71391750147
 **  OPTIMIZATION CONVERGED  **
 Total job time:  31.06s(wall), 352.63s(cpu)
        *  Thank you very much for using Q-Chem.  Have a nice day.  *
