 Q-Chem 5.1, Q-Chem, Inc., Pleasanton, CA (2018)
 Q-Chem 5.1.1 for Intel X86 EM64T Linux

User input:
--------------------------------------------------------------

$comment
potential surface scanner
$end

$rem
JOBTYPE  PES_SCAN
UNRESTRICTED TRUE
SYM_IGNORE  TRUE
GEOM_OPT_MAX_CYCLES 400
SCF_MAX_CYCLES 400
METHOD   B3LYP
BASIS   6-31G**
PDB_PRINT 2
SCF_CONVERGENCE 6
THRESH 14
SCF_PRINT 1
$end
$molecule
0 1
Br -2.833200 0.507100 -0.012400
Br 2.833200 0.507100 -0.012500
C 0.000000 0.236900 0.032600
C -1.249900 -0.625600 -0.004000
C 1.249800 -0.625500 -0.003800
H 0.000000 0.860400 0.936100
H 0.000100 0.929600 -0.819100
H -1.300300 -1.235900 -0.909900
H -1.328900 -1.269800 0.875900
H 1.300200 -1.236000 -0.909700
H 1.328900 -1.269600 0.876200
$end
$scan
stre 1 4 3.500000 3.501000 0.100000
$end
--------------------------------------------------------------

    9   -5265.7130673012      5.26e-07  Convergence criterion met
 Total energy in the final basis set =    -5265.7130673012
   10   -5265.7103419285      3.62e-07  Convergence criterion met
 Total energy in the final basis set =    -5265.7103419285
   10   -5265.7004159107      4.95e-07  Convergence criterion met
 Total energy in the final basis set =    -5265.7004159107
   11   -5265.6887816216      1.28e-07  Convergence criterion met
 Total energy in the final basis set =    -5265.6887816216
   11   -5265.6772527924      2.89e-07  Convergence criterion met
 Total energy in the final basis set =    -5265.6772527924
   11   -5265.6661831981      4.55e-07  Convergence criterion met
 Total energy in the final basis set =    -5265.6661831981
   12   -5265.6556464166      1.80e-07  Convergence criterion met
 Total energy in the final basis set =    -5265.6556464166
   11   -5265.6456341778      8.18e-07  Convergence criterion met
   13   -5265.6195197860      8.62e-07  Convergence criterion met
 Total energy in the final basis set =    -5265.6195197860
   15   -5265.6148152812      9.59e-07  Convergence criterion met
 Total energy in the final basis set =    -5265.6148152812
   16   -5265.6147401579      6.62e-07  Convergence criterion met
 Total energy in the final basis set =    -5265.6147401579
   16   -5265.6147491839      6.69e-07  Convergence criterion met
 Total energy in the final basis set =    -5265.6147491839
   16   -5265.6147503269      6.71e-07  Convergence criterion met
 Total energy in the final basis set =    -5265.6147503269
   16   -5265.6147513417      6.73e-07  Convergence criterion met
 Total energy in the final basis set =    -5265.6147513417

             Standard Nuclear Orientation (Angstroms)
    I     Atom           X                Y                Z
 ----------------------------------------------------------------
    1      Br     -3.9061076932     1.1037086589     0.0069329734
    2      Br      2.9445778666     0.6101808633     0.0117489519
    3      C       0.0836584447     0.1355773007     0.0232230676
    4      C      -1.0037480206    -0.8523522209    -0.0046448930
    5      C       1.4328544329    -0.6463115562    -0.0033137575
    6      H       0.0461761644     0.7387309479     0.9329196832
    7      H       0.0430183548     0.7900256195    -0.8504885125
    8      H      -1.3571767485    -1.2726734409    -0.9409162107
    9      H      -1.3765346467    -1.3062311324     0.9080199563
   10      H       1.5402666454    -1.2422239342    -0.9086077263
   11      H       1.5529152003    -1.2797311056     0.8745264675
 ----------------------------------------------------------------

   16   -5265.6147516473      6.73e-07  Convergence criterion met
 Total energy in the final basis set =    -5265.6147516473

                    Orbital Energies (a.u.)
 --------------------------------------------------------------

 Alpha MOs
 -- Occupied --
*******-482.807 -62.543 -62.464 -56.364 -56.360 -56.360 -56.285
-56.282 -56.282 -10.317 -10.296 -10.259  -8.730  -8.649  -6.561
 -6.547  -6.547  -6.478  -6.467  -6.467  -2.654  -2.650  -2.650
 -2.639  -2.639  -2.572  -2.569  -2.569  -2.560  -2.560  -0.878
 -0.813  -0.712  -0.690  -0.652  -0.549  -0.493  -0.485  -0.459
 -0.413  -0.408  -0.311  -0.309  -0.255  -0.240  -0.240

 Beta MOs
 -- Occupied --
*******-482.807 -62.543 -62.464 -56.364 -56.360 -56.360 -56.285
-56.282 -56.282 -10.317 -10.296 -10.259  -8.730  -8.649  -6.561
 -6.547  -6.547  -6.478  -6.467  -6.467  -2.654  -2.650  -2.650
 -2.639  -2.639  -2.572  -2.569  -2.569  -2.560  -2.560  -0.878
 -0.813  -0.712  -0.690  -0.652  -0.549  -0.493  -0.485  -0.459
 -0.413  -0.408  -0.311  -0.309  -0.255  -0.240  -0.240

          Ground-State Mulliken Net Atomic Charges

     Atom                 Charge (a.u.)    Spin (a.u.)
  --------------------------------------------------------
      1 Br                   -0.437299       0.000000
      2 Br                   -0.051918       0.000000
      3 C                    -0.225213       0.000000
      4 C                    -0.103752      -0.000000
      5 C                    -0.278141       0.000000
      6 H                     0.181895      -0.000000
      7 H                     0.183839      -0.000000
      8 H                     0.193275       0.000000
      9 H                     0.193646       0.000000
     10 H                     0.171711      -0.000000
     11 H                     0.171956      -0.000000
  --------------------------------------------------------
  Sum of atomic charges =    -0.000000

                    Cartesian Multipole Moments
 -----------------------------------------------------------------
    Charge (ESU x 10^10)
                -0.0000
    Dipole Moment (Debye)
         X       5.3963      Y      -4.3839      Z      -0.0261
       Tot       6.9527
    Quadrupole Moments (Debye-Ang)
        XX     -86.9475     XY       7.5335     YY     -55.9365
        XZ       0.0326     YZ      -0.0113     ZZ     -55.7646

 Final energy is   -5265.61475164730
 **  OPTIMIZATION CONVERGED  **
 Total job time:  99.18s(wall), 1160.95s(cpu)
        *  Thank you very much for using Q-Chem.  Have a nice day.  *
