 Q-Chem 5.1, Q-Chem, Inc., Pleasanton, CA (2018)
 Q-Chem 5.1.1 for Intel X86 EM64T Linux

User input:
--------------------------------------------------------------

$comment
potential surface scanner
$end

$rem
JOBTYPE  PES_SCAN
UNRESTRICTED TRUE
SYM_IGNORE  TRUE
GEOM_OPT_MAX_CYCLES 400
SCF_MAX_CYCLES 400
METHOD   B3LYP
BASIS   6-31G**
PDB_PRINT 2
SCF_CONVERGENCE 6
THRESH 14
SCF_PRINT 1
$end
$molecule
0 1
Br -2.833200 0.507100 -0.012400
Br 2.833200 0.507100 -0.012500
C 0.000000 0.236900 0.032600
C -1.249900 -0.625600 -0.004000
C 1.249800 -0.625500 -0.003800
H 0.000000 0.860400 0.936100
H 0.000100 0.929600 -0.819100
H -1.300300 -1.235900 -0.909900
H -1.328900 -1.269800 0.875900
H 1.300200 -1.236000 -0.909700
H 1.328900 -1.269600 0.876200
$end
$scan
stre 1 4 4.500000 4.501000 0.100000
$end
--------------------------------------------------------------

    9   -5265.7130673013      5.26e-07  Convergence criterion met
 Total energy in the final basis set =    -5265.7130673013
   10   -5265.7103419285      3.62e-07  Convergence criterion met
 Total energy in the final basis set =    -5265.7103419285
   10   -5265.7004159107      4.95e-07  Convergence criterion met
 Total energy in the final basis set =    -5265.7004159107
   11   -5265.6887816216      1.28e-07  Convergence criterion met
 Total energy in the final basis set =    -5265.6887816216
   11   -5265.6772527924      2.89e-07  Convergence criterion met
 Total energy in the final basis set =    -5265.6772527924
   11   -5265.6661831981      4.55e-07  Convergence criterion met
 Total energy in the final basis set =    -5265.6661831981
   12   -5265.6556464166      1.80e-07  Convergence criterion met
 Total energy in the final basis set =    -5265.6556464166
   11   -5265.6456341778      8.18e-07  Convergence criterion met
   16   -5265.5956787593      9.20e-07  Convergence criterion met
 Total energy in the final basis set =    -5265.5956787593
   18   -5265.5914871499      4.84e-07  Convergence criterion met
 Total energy in the final basis set =    -5265.5914871499
   22   -5265.5878807538      1.56e-07  Convergence criterion met
 Total energy in the final basis set =    -5265.5878807538
   22   -5265.5848010300      8.83e-07  Convergence criterion met
 Total energy in the final basis set =    -5265.5848010300
   60   -5265.5841745216      6.09e-08  Convergence criterion met
 Total energy in the final basis set =    -5265.5841745216
   40   -5265.5841747270      6.20e-07  Convergence criterion met
 Total energy in the final basis set =    -5265.5841747270

             Standard Nuclear Orientation (Angstroms)
    I     Atom           X                Y                Z
 ----------------------------------------------------------------
    1      Br     -4.6874255487     1.5122716972     0.0059549088
    2      Br      2.9977422708     0.6340925429     0.0124108056
    3      C       0.1469905512     0.0784894497     0.0233330834
    4      C      -0.9094027476    -0.9324051551    -0.0039849918
    5      C       1.5253205559    -0.6656133855    -0.0035484544
    6      H       0.1022824857     0.6802905925     0.9348375004
    7      H       0.0973202505     0.7306084218    -0.8530942221
    8      H      -1.2783846406    -1.3367012244    -0.9416598813
    9      H      -1.2970580705    -1.3703298276     0.9106408569
   10      H       1.6446276376    -1.2566042586    -0.9100044918
   11      H       1.6578872557    -1.2953988530     0.8745148862
 ----------------------------------------------------------------

   29   -5265.5841801790      7.28e-07  Convergence criterion met
 Total energy in the final basis set =    -5265.5841801790

                    Orbital Energies (a.u.)
 --------------------------------------------------------------

 Alpha MOs
 -- Occupied --
*******-482.796 -62.548 -62.454 -56.369 -56.365 -56.365 -56.275
-56.272 -56.272 -10.317 -10.302 -10.268  -8.735  -8.639  -6.566
 -6.552  -6.552  -6.468  -6.457  -6.457  -2.659  -2.655  -2.655
 -2.644  -2.644  -2.562  -2.559  -2.559  -2.550  -2.550  -0.885
 -0.820  -0.717  -0.681  -0.658  -0.557  -0.501  -0.492  -0.465
 -0.420  -0.414  -0.316  -0.313  -0.235  -0.230  -0.230

 Beta MOs
 -- Occupied --
*******-482.796 -62.548 -62.454 -56.369 -56.365 -56.365 -56.275
-56.272 -56.272 -10.317 -10.302 -10.268  -8.735  -8.639  -6.566
 -6.552  -6.552  -6.468  -6.457  -6.457  -2.659  -2.655  -2.655
 -2.644  -2.644  -2.562  -2.559  -2.559  -2.550  -2.550  -0.885
 -0.820  -0.717  -0.681  -0.658  -0.557  -0.501  -0.492  -0.465
 -0.420  -0.414  -0.316  -0.313  -0.235  -0.230  -0.230

          Ground-State Mulliken Net Atomic Charges

     Atom                 Charge (a.u.)    Spin (a.u.)
  --------------------------------------------------------
      1 Br                   -0.425331       0.000260
      2 Br                   -0.046634      -0.000012
      3 C                    -0.230740       0.000002
      4 C                    -0.115687      -0.000231
      5 C                    -0.273698      -0.000015
      6 H                     0.180886      -0.000003
      7 H                     0.182574      -0.000003
      8 H                     0.189689       0.000002
      9 H                     0.189989       0.000002
     10 H                     0.174350      -0.000001
     11 H                     0.174601      -0.000001
  --------------------------------------------------------
  Sum of atomic charges =     0.000000

                    Cartesian Multipole Moments
 -----------------------------------------------------------------
    Charge (ESU x 10^10)
                 0.0000
    Dipole Moment (Debye)
         X       7.3001      Y      -5.3084      Z      -0.0240
       Tot       9.0261
    Quadrupole Moments (Debye-Ang)
        XX    -100.5531     XY      13.0855     YY     -58.1031
        XZ       0.0347     YZ      -0.0184     ZZ     -55.7443

 Final energy is   -5265.58418017898
 **  OPTIMIZATION CONVERGED  **
 Total job time:  155.26s(wall), 1785.11s(cpu)
        *  Thank you very much for using Q-Chem.  Have a nice day.  *
