 Q-Chem 5.1, Q-Chem, Inc., Pleasanton, CA (2018)
 Q-Chem 5.1.1 for Intel X86 EM64T Linux

User input:
--------------------------------------------------------------

$comment
potential surface scanner
$end

$rem
JOBTYPE  PES_SCAN
UNRESTRICTED TRUE
SYM_IGNORE  TRUE
GEOM_OPT_MAX_CYCLES 400
SCF_MAX_CYCLES 400
METHOD   B3LYP
BASIS   6-31G**
PDB_PRINT 2
SCF_CONVERGENCE 6
THRESH 14
SCF_PRINT 1
$end
$molecule
0 1
Br -2.833200 0.507100 -0.012400
Br 2.833200 0.507100 -0.012500
C 0.000000 0.236900 0.032600
C -1.249900 -0.625600 -0.004000
C 1.249800 -0.625500 -0.003800
H 0.000000 0.860400 0.936100
H 0.000100 0.929600 -0.819100
H -1.300300 -1.235900 -0.909900
H -1.328900 -1.269800 0.875900
H 1.300200 -1.236000 -0.909700
H 1.328900 -1.269600 0.876200
$end
$scan
stre 1 4 1.100000 1.101000 0.100000
$end
--------------------------------------------------------------

    9   -5265.7130673013      5.26e-07  Convergence criterion met
 Total energy in the final basis set =    -5265.7130673013
   10   -5265.7010474219      3.43e-07  Convergence criterion met
 Total energy in the final basis set =    -5265.7010474219
   10   -5265.6614263552      3.49e-07  Convergence criterion met
 Total energy in the final basis set =    -5265.6614263552
   10   -5265.5886423454      3.40e-07  Convergence criterion met
 Total energy in the final basis set =    -5265.5886423454
   10   -5265.4762505180      3.34e-07  Convergence criterion met
 Total energy in the final basis set =    -5265.4762505180
   10   -5265.2916843004      3.25e-07  Convergence criterion met
 Total energy in the final basis set =    -5265.2916843004
   10   -5265.0194688197      4.39e-07  Convergence criterion met
 Total energy in the final basis set =    -5265.0194688197
   10   -5264.7980627966      7.75e-07  Convergence criterion met
   11   -5264.5754712695      1.89e-07  Convergence criterion met
 Total energy in the final basis set =    -5264.5754712695
   11   -5264.5754800175      1.88e-07  Convergence criterion met
 Total energy in the final basis set =    -5264.5754800175
   11   -5264.5754867852      1.88e-07  Convergence criterion met
 Total energy in the final basis set =    -5264.5754867852
   11   -5264.5754943547      1.88e-07  Convergence criterion met
 Total energy in the final basis set =    -5264.5754943547
   11   -5264.5754976924      1.88e-07  Convergence criterion met
 Total energy in the final basis set =    -5264.5754976924
   11   -5264.5754989836      1.87e-07  Convergence criterion met
 Total energy in the final basis set =    -5264.5754989836

             Standard Nuclear Orientation (Angstroms)
    I     Atom           X                Y                Z
 ----------------------------------------------------------------
    1      Br     -2.4818064175     0.0971732897     0.1510335303
    2      Br      2.9354273143     0.3552549254     0.0145214714
    3      C       0.0054953263     0.3319422394     0.0027522717
    4      C      -1.5559849010    -0.4789059294     0.0061629005
    5      C       1.1730796464    -0.6046772305     0.0248379747
    6      H      -0.0328833433     0.9728469263     0.8921070783
    7      H      -0.0143358938     0.9648111781    -0.8911743918
    8      H      -1.2806385377    -1.0855458727    -0.9289201035
    9      H      -1.1738996554    -1.3099580873     0.7018876615
   10      H       1.2169758357    -1.2509338525    -0.8524613880
   11      H       1.2084706262    -1.2133075866     0.9286529949
 ----------------------------------------------------------------

   11   -5264.5754999189      1.87e-07  Convergence criterion met
 Total energy in the final basis set =    -5264.5754999189

                    Orbital Energies (a.u.)
 --------------------------------------------------------------

 Alpha MOs
 -- Occupied --
*******-482.844 -62.573 -62.503 -56.389 -56.388 -56.388 -56.324
-56.320 -56.320 -10.300 -10.246 -10.199  -8.793  -8.690  -6.638
 -6.603  -6.602  -6.520  -6.507  -6.507  -2.745  -2.718  -2.717
 -2.693  -2.693  -2.613  -2.610  -2.610  -2.600  -2.600  -1.066
 -0.813  -0.733  -0.630  -0.616  -0.581  -0.526  -0.473  -0.463
 -0.405  -0.376  -0.375  -0.278  -0.273  -0.232  -0.217

 Beta MOs
 -- Occupied --
*******-482.844 -62.573 -62.503 -56.389 -56.388 -56.388 -56.324
-56.320 -56.320 -10.300 -10.246 -10.199  -8.793  -8.690  -6.638
 -6.603  -6.602  -6.520  -6.507  -6.507  -2.745  -2.718  -2.717
 -2.693  -2.693  -2.613  -2.610  -2.610  -2.600  -2.600  -1.066
 -0.813  -0.733  -0.630  -0.616  -0.581  -0.526  -0.473  -0.463
 -0.405  -0.376  -0.375  -0.278  -0.273  -0.232  -0.217

          Ground-State Mulliken Net Atomic Charges

     Atom                 Charge (a.u.)    Spin (a.u.)
  --------------------------------------------------------
      1 Br                    0.434002      -0.000000
      2 Br                   -0.132334      -0.000000
      3 C                    -0.274143       0.000000
      4 C                    -0.428569       0.000000
      5 C                    -0.250294      -0.000000
      6 H                     0.120131      -0.000000
      7 H                     0.124749      -0.000000
      8 H                     0.053086      -0.000000
      9 H                     0.048353      -0.000000
     10 H                     0.152486      -0.000000
     11 H                     0.152535       0.000000
  --------------------------------------------------------
  Sum of atomic charges =    -0.000000

                    Cartesian Multipole Moments
 -----------------------------------------------------------------
    Charge (ESU x 10^10)
                -0.0000
    Dipole Moment (Debye)
         X      -2.1805      Y      -1.4556      Z      -0.0894
       Tot       2.6233
    Quadrupole Moments (Debye-Ang)
        XX     -64.5919     XY       0.1231     YY     -55.0569
        XZ       0.3062     YZ      -0.1362     ZZ     -55.1596

 Final energy is   -5264.57549991891
 **  OPTIMIZATION CONVERGED  **
 Total job time:  219.95s(wall), 2556.61s(cpu)
        *  Thank you very much for using Q-Chem.  Have a nice day.  *
