 Q-Chem 5.1, Q-Chem, Inc., Pleasanton, CA (2018)
 Q-Chem 5.1.1 for Intel X86 EM64T Linux

User input:
--------------------------------------------------------------

$comment
potential surface scanner
$end

$rem
JOBTYPE  PES_SCAN
UNRESTRICTED TRUE
SYM_IGNORE  TRUE
GEOM_OPT_MAX_CYCLES 400
SCF_MAX_CYCLES 400
METHOD   B3LYP
BASIS   6-31G**
PDB_PRINT 2
SCF_CONVERGENCE 6
THRESH 14
SCF_PRINT 1
$end
$molecule
0 1
Br -2.833200 0.507100 -0.012400
Br 2.833200 0.507100 -0.012500
C 0.000000 0.236900 0.032600
C -1.249900 -0.625600 -0.004000
C 1.249800 -0.625500 -0.003800
H 0.000000 0.860400 0.936100
H 0.000100 0.929600 -0.819100
H -1.300300 -1.235900 -0.909900
H -1.328900 -1.269800 0.875900
H 1.300200 -1.236000 -0.909700
H 1.328900 -1.269600 0.876200
$end
$scan
stre 1 4 1.400000 1.401000 0.100000
$end
--------------------------------------------------------------

    9   -5265.7130673012      5.26e-07  Convergence criterion met
 Total energy in the final basis set =    -5265.7130673012
   10   -5265.7010474219      3.43e-07  Convergence criterion met
 Total energy in the final basis set =    -5265.7010474219
   10   -5265.6614263552      3.49e-07  Convergence criterion met
 Total energy in the final basis set =    -5265.6614263552
   10   -5265.5886423454      3.40e-07  Convergence criterion met
 Total energy in the final basis set =    -5265.5886423454
   10   -5265.4885072498      3.48e-07  Convergence criterion met
 Total energy in the final basis set =    -5265.4885072498
   10   -5265.4662322612      3.82e-07  Convergence criterion met
 Total energy in the final basis set =    -5265.4662322612
   10   -5265.4653441118      4.13e-07  Convergence criterion met
 Total energy in the final basis set =    -5265.4653441118
   10   -5265.4654536465      4.47e-07  Convergence criterion met
 Total energy in the final basis set =    -5265.4654536465
   10   -5265.4654613058      4.52e-07  Convergence criterion met
 Total energy in the final basis set =    -5265.4654613058
   10   -5265.4654662033      4.57e-07  Convergence criterion met
 Total energy in the final basis set =    -5265.4654662033
   10   -5265.4654677586      4.59e-07  Convergence criterion met
 Total energy in the final basis set =    -5265.4654677586
   10   -5265.4654689966      4.61e-07  Convergence criterion met
 Total energy in the final basis set =    -5265.4654689966

             Standard Nuclear Orientation (Angstroms)
    I     Atom           X                Y                Z
 ----------------------------------------------------------------
    1      Br     -2.5932727043     0.2253302520     0.0032277508
    2      Br      2.8811765365     0.4065782487     0.0033722144
    3      C      -0.0255758777     0.2979263851     0.0266954861
    4      C      -1.4011014810    -0.5086240553    -0.0030526538
    5      C       1.1816177322    -0.6175993702    -0.0048269864
    6      H      -0.0163359624     0.9167047811     0.9309623413
    7      H      -0.0151542476     0.9786196457    -0.8320173295
    8      H      -1.2297994185    -1.1946925390    -0.8639144645
    9      H      -1.2443315615    -1.2331538105     0.8286667273
   10      H       1.2230316185    -1.2255667115    -0.9092665546
   11      H       1.2396453658    -1.2668228262     0.8695534688
 ----------------------------------------------------------------

   10   -5265.4654695206      4.61e-07  Convergence criterion met
 Total energy in the final basis set =    -5265.4654695206

                    Orbital Energies (a.u.)
 --------------------------------------------------------------

 Alpha MOs
 -- Occupied --
*******-482.853 -62.531 -62.511 -56.350 -56.348 -56.348 -56.332
-56.328 -56.328 -10.252 -10.235 -10.210  -8.728  -8.698  -6.559
 -6.545  -6.544  -6.528  -6.515  -6.515  -2.657  -2.649  -2.649
 -2.637  -2.637  -2.622  -2.618  -2.618  -2.608  -2.608  -0.977
 -0.824  -0.745  -0.642  -0.613  -0.522  -0.483  -0.463  -0.459
 -0.401  -0.376  -0.375  -0.286  -0.280  -0.260  -0.255

 Beta MOs
 -- Occupied --
*******-482.853 -62.531 -62.511 -56.350 -56.348 -56.348 -56.332
-56.328 -56.328 -10.252 -10.235 -10.210  -8.728  -8.698  -6.559
 -6.545  -6.544  -6.528  -6.515  -6.515  -2.657  -2.649  -2.649
 -2.637  -2.637  -2.622  -2.618  -2.618  -2.608  -2.608  -0.977
 -0.824  -0.745  -0.642  -0.613  -0.522  -0.483  -0.463  -0.459
 -0.401  -0.376  -0.375  -0.286  -0.280  -0.260  -0.255

          Ground-State Mulliken Net Atomic Charges

     Atom                 Charge (a.u.)    Spin (a.u.)
  --------------------------------------------------------
      1 Br                    0.017665       0.000000
      2 Br                   -0.112915       0.000000
      3 C                    -0.222912       0.000000
      4 C                    -0.204749      -0.000000
      5 C                    -0.259713       0.000000
      6 H                     0.132832       0.000000
      7 H                     0.133358      -0.000000
      8 H                     0.104371      -0.000000
      9 H                     0.104771      -0.000000
     10 H                     0.153506      -0.000000
     11 H                     0.153785      -0.000000
  --------------------------------------------------------
  Sum of atomic charges =    -0.000000

                    Cartesian Multipole Moments
 -----------------------------------------------------------------
    Charge (ESU x 10^10)
                 0.0000
    Dipole Moment (Debye)
         X      -1.0510      Y      -1.5963      Z      -0.0108
       Tot       1.9113
    Quadrupole Moments (Debye-Ang)
        XX     -65.2374     XY      -0.2213     YY     -54.9181
        XZ       0.0013     YZ      -0.0061     ZZ     -55.5058

 Final energy is   -5265.46546952055
 **  OPTIMIZATION CONVERGED  **
 Total job time:  72.55s(wall), 826.56s(cpu)
        *  Thank you very much for using Q-Chem.  Have a nice day.  *
