 Q-Chem 5.1, Q-Chem, Inc., Pleasanton, CA (2018)
 Q-Chem 5.1.1 for Intel X86 EM64T Linux

User input:
--------------------------------------------------------------

$comment
potential surface scanner
$end

$rem
JOBTYPE  PES_SCAN
UNRESTRICTED TRUE
SYM_IGNORE  TRUE
GEOM_OPT_MAX_CYCLES 400
SCF_MAX_CYCLES 400
METHOD   B3LYP
BASIS   6-31G**
PDB_PRINT 2
SCF_CONVERGENCE 6
THRESH 14
SCF_PRINT 1
$end
$molecule
0 1
Br -2.833200 0.507100 -0.012400
Br 2.833200 0.507100 -0.012500
C 0.000000 0.236900 0.032600
C -1.249900 -0.625600 -0.004000
C 1.249800 -0.625500 -0.003800
H 0.000000 0.860400 0.936100
H 0.000100 0.929600 -0.819100
H -1.300300 -1.235900 -0.909900
H -1.328900 -1.269800 0.875900
H 1.300200 -1.236000 -0.909700
H 1.328900 -1.269600 0.876200
$end
$scan
stre 1 4 3.900000 3.901000 0.100000
$end
--------------------------------------------------------------

    9   -5265.7130673012      5.26e-07  Convergence criterion met
 Total energy in the final basis set =    -5265.7130673012
   10   -5265.7103419285      3.62e-07  Convergence criterion met
 Total energy in the final basis set =    -5265.7103419285
   10   -5265.7004159107      4.95e-07  Convergence criterion met
 Total energy in the final basis set =    -5265.7004159107
   11   -5265.6887816216      1.28e-07  Convergence criterion met
 Total energy in the final basis set =    -5265.6887816216
   11   -5265.6772527924      2.89e-07  Convergence criterion met
 Total energy in the final basis set =    -5265.6772527924
   11   -5265.6661831981      4.55e-07  Convergence criterion met
 Total energy in the final basis set =    -5265.6661831981
   12   -5265.6556464166      1.80e-07  Convergence criterion met
 Total energy in the final basis set =    -5265.6556464166
   11   -5265.6456341778      8.18e-07  Convergence criterion met
   13   -5265.6195197860      8.62e-07  Convergence criterion met
 Total energy in the final basis set =    -5265.6195197860
   16   -5265.6123357444      7.93e-07  Convergence criterion met
 Total energy in the final basis set =    -5265.6123357444
   17   -5265.6060037127      1.28e-07  Convergence criterion met
 Total energy in the final basis set =    -5265.6060037127
   16   -5265.6004845384      4.52e-07  Convergence criterion met
 Total energy in the final basis set =    -5265.6004845384
   16   -5265.5990656569      1.89e-07  Convergence criterion met
 Total energy in the final basis set =    -5265.5990656569
   16   -5265.5990628785      1.92e-07  Convergence criterion met
 Total energy in the final basis set =    -5265.5990628785

             Standard Nuclear Orientation (Angstroms)
    I     Atom           X                Y                Z
 ----------------------------------------------------------------
    1      Br     -4.2110179321     1.2725654842     0.0052149819
    2      Br      2.9621627074     0.6264242941     0.0107950819
    3      C       0.1075386235     0.1095627849     0.0238113769
    4      C      -0.9645880369    -0.8885925626    -0.0042100709
    5      C       1.4716362254    -0.6534042085    -0.0034968810
    6      H       0.0666970449     0.7114981092     0.9348646770
    7      H       0.0624888619     0.7632845252    -0.8510418422
    8      H      -1.3295802785    -1.2984461243    -0.9411214256
    9      H      -1.3488065672    -1.3324791553     0.9091094468
   10      H       1.5847159283    -1.2471687810    -0.9092758353
   11      H       1.5986534231    -1.2845443660     0.8747504904
 ----------------------------------------------------------------

   16   -5265.5990671517      1.95e-07  Convergence criterion met
 Total energy in the final basis set =    -5265.5990671517

                    Orbital Energies (a.u.)
 --------------------------------------------------------------

 Alpha MOs
 -- Occupied --
*******-482.801 -62.546 -62.459 -56.367 -56.363 -56.363 -56.280
-56.276 -56.276 -10.319 -10.300 -10.264  -8.733  -8.644  -6.564
 -6.550  -6.550  -6.473  -6.462  -6.462  -2.657  -2.653  -2.653
 -2.642  -2.642  -2.566  -2.563  -2.563  -2.555  -2.555  -0.882
 -0.817  -0.715  -0.685  -0.655  -0.553  -0.498  -0.489  -0.462
 -0.417  -0.411  -0.314  -0.311  -0.245  -0.235  -0.234

 Beta MOs
 -- Occupied --
*******-482.801 -62.546 -62.459 -56.367 -56.363 -56.363 -56.280
-56.276 -56.276 -10.319 -10.300 -10.264  -8.733  -8.644  -6.564
 -6.550  -6.550  -6.473  -6.462  -6.462  -2.657  -2.653  -2.653
 -2.642  -2.642  -2.566  -2.563  -2.563  -2.555  -2.555  -0.882
 -0.817  -0.715  -0.685  -0.655  -0.553  -0.498  -0.489  -0.462
 -0.417  -0.411  -0.314  -0.311  -0.245  -0.235  -0.234

          Ground-State Mulliken Net Atomic Charges

     Atom                 Charge (a.u.)    Spin (a.u.)
  --------------------------------------------------------
      1 Br                   -0.440022      -0.000000
      2 Br                   -0.048053       0.000000
      3 C                    -0.229521      -0.000000
      4 C                    -0.106139       0.000000
      5 C                    -0.276416       0.000000
      6 H                     0.182705       0.000000
      7 H                     0.184684       0.000000
      8 H                     0.192787      -0.000000
      9 H                     0.193086      -0.000000
     10 H                     0.173311      -0.000000
     11 H                     0.173577      -0.000000
  --------------------------------------------------------
  Sum of atomic charges =     0.000000

                    Cartesian Multipole Moments
 -----------------------------------------------------------------
    Charge (ESU x 10^10)
                 0.0000
    Dipole Moment (Debye)
         X       6.2839      Y      -4.8152      Z      -0.0216
       Tot       7.9167
    Quadrupole Moments (Debye-Ang)
        XX     -92.3387     XY       9.7736     YY     -56.7465
        XZ       0.0272     YZ      -0.0128     ZZ     -55.7498

 Final energy is   -5265.59906715165
 **  OPTIMIZATION CONVERGED  **
 Total job time:  104.57s(wall), 1160.81s(cpu)
        *  Thank you very much for using Q-Chem.  Have a nice day.  *
