 Q-Chem 5.1, Q-Chem, Inc., Pleasanton, CA (2018)
 Q-Chem 5.1.1 for Intel X86 EM64T Linux

User input:
--------------------------------------------------------------

$comment
potential surface scanner
$end

$rem
JOBTYPE  PES_SCAN
UNRESTRICTED TRUE
SYM_IGNORE  TRUE
GEOM_OPT_MAX_CYCLES 400
SCF_MAX_CYCLES 400
METHOD   B3LYP
BASIS   6-31G**
PDB_PRINT 2
SCF_CONVERGENCE 6
THRESH 14
SCF_PRINT 1
$end
$molecule
0 3
Br -4.304490 1.645560 0.006703
Br 2.911486 0.792904 0.013951
C 0.086211 0.029261 0.019207
C -0.950564 -1.045363 -0.004096
C 1.492344 -0.590657 -0.000815
H -0.012238 0.648324 0.917691
H -0.018589 0.691543 -0.847038
H -1.281374 -1.478208 -0.942734
H -1.269808 -1.530632 0.912576
H 1.667774 -1.175633 -0.903028
H 1.679148 -1.208397 0.876984
$end
$scan
stre 1 4 4.200000 4.201000 0.100000
$end
--------------------------------------------------------------

   16   -5265.6029531402      9.91e-07  Convergence criterion met
 Total energy in the final basis set =    -5265.6029531402
   17   -5265.6018820040      2.56e-07  Convergence criterion met
 Total energy in the final basis set =    -5265.6018820040
   16   -5265.6026969595      9.80e-07  Convergence criterion met
 Total energy in the final basis set =    -5265.6026969595
   17   -5265.6029011915      9.87e-07  Convergence criterion met
 Total energy in the final basis set =    -5265.6029011915
   17   -5265.6029236702      9.91e-07  Convergence criterion met
 Total energy in the final basis set =    -5265.6029236702
   17   -5265.6029496542      9.98e-07  Convergence criterion met
 Total energy in the final basis set =    -5265.6029496542
   17   -5265.6029513011      9.96e-07  Convergence criterion met
 Total energy in the final basis set =    -5265.6029513011
   17   -5265.6029556762      9.89e-07  Convergence criterion met
 Total energy in the final basis set =    -5265.6029556762
   17   -5265.6029570130      9.86e-07  Convergence criterion met
 Total energy in the final basis set =    -5265.6029570130
   17   -5265.6029583614      9.85e-07  Convergence criterion met
 Total energy in the final basis set =    -5265.6029583614
   17   -5265.6029594242      9.85e-07  Convergence criterion met
 Total energy in the final basis set =    -5265.6029594242

             Standard Nuclear Orientation (Angstroms)
    I     Atom           X                Y                Z
 ----------------------------------------------------------------
    1      Br     -4.2352489969     1.5941362269     0.0071262713
    2      Br      2.9086136000     0.7890206417     0.0142578159
    3      C       0.0808848232     0.0358966709     0.0189452296
    4      C      -0.9595650163    -1.0345080655    -0.0041643715
    5      C       1.4850983060    -0.5892996920    -0.0006377527
    6      H      -0.0155188860     0.6546146050     0.9178332829
    7      H      -0.0211475734     0.6973219325    -0.8482347499
    8      H      -1.2917291126    -1.4661142270    -0.9428262623
    9      H      -1.2791312365    -1.5194096574     0.9125375534
   10      H       1.6583727852    -1.1752094010    -0.9026562485
   11      H       1.6692713075    -1.2077470341     0.8772202319
 ----------------------------------------------------------------

   17   -5265.6029601960      9.86e-07  Convergence criterion met
 Total energy in the final basis set =    -5265.6029601960

                    Orbital Energies (a.u.)
 --------------------------------------------------------------

 Alpha MOs
 -- Occupied --
*******-482.848 -62.559 -62.506 -56.383 -56.375 -56.375 -56.327
-56.324 -56.324 -10.250 -10.212 -10.210  -8.746  -8.693  -6.583
 -6.560  -6.560  -6.523  -6.511  -6.510  -2.673  -2.668  -2.668
 -2.651  -2.651  -2.617  -2.613  -2.613  -2.603  -2.603  -0.829
 -0.798  -0.765  -0.668  -0.603  -0.495  -0.435  -0.432  -0.420
 -0.373  -0.362  -0.361  -0.324  -0.324  -0.278  -0.275  -0.225

 Beta MOs
 -- Occupied --
*******-482.848 -62.557 -62.506 -56.377 -56.374 -56.374 -56.327
-56.324 -56.324 -10.248 -10.210 -10.199  -8.742  -8.693  -6.572
 -6.559  -6.559  -6.523  -6.511  -6.510  -2.665  -2.662  -2.662
 -2.650  -2.650  -2.617  -2.613  -2.613  -2.603  -2.603  -0.823
 -0.755  -0.755  -0.652  -0.591  -0.492  -0.429  -0.426  -0.409
 -0.359  -0.357  -0.310  -0.310  -0.276  -0.275

          Ground-State Mulliken Net Atomic Charges

     Atom                 Charge (a.u.)    Spin (a.u.)
  --------------------------------------------------------
      1 Br                   -0.004083       1.001650
      2 Br                   -0.126956       0.032298
      3 C                    -0.197105      -0.073240
      4 C                    -0.234419       1.061204
      5 C                    -0.243452       0.043860
      6 H                     0.131634       0.013758
      7 H                     0.131819       0.013326
      8 H                     0.118036      -0.046494
      9 H                     0.117924      -0.046484
     10 H                     0.153312       0.000061
     11 H                     0.153290       0.000061
  --------------------------------------------------------
  Sum of atomic charges =     0.000000

                    Cartesian Multipole Moments
 -----------------------------------------------------------------
    Charge (ESU x 10^10)
                 0.0000
    Dipole Moment (Debye)
         X      -1.6592      Y      -1.5301      Z      -0.0167
       Tot       2.2571
    Quadrupole Moments (Debye-Ang)
        XX     -62.7976     XY      -3.4159     YY     -55.1264
        XZ      -0.0159     YZ      -0.0314     ZZ     -56.1195

 Final energy is   -5265.60296019596
 **  OPTIMIZATION CONVERGED  **
 Total job time:  79.88s(wall), 932.10s(cpu)
        *  Thank you very much for using Q-Chem.  Have a nice day.  *
