 Q-Chem 5.1, Q-Chem, Inc., Pleasanton, CA (2018)
 Q-Chem 5.1.1 for Intel X86 EM64T Linux

User input:
--------------------------------------------------------------

$comment
potential surface scanner
$end

$rem
JOBTYPE  PES_SCAN
UNRESTRICTED TRUE
SYM_IGNORE  TRUE
GEOM_OPT_MAX_CYCLES 400
SCF_MAX_CYCLES 400
METHOD   B3LYP
BASIS   6-31G**
PDB_PRINT 2
SCF_CONVERGENCE 6
THRESH 14
SCF_PRINT 1
$end
$molecule
0 1
Br -3.390885 0.823225 0.047990
Br 2.917326 0.568621 0.023526
C 0.043408 0.185466 0.014236
C -1.090566 -0.772024 -0.012940
C 1.355363 -0.633380 -0.001525
H 0.010570 0.798087 0.917292
H 0.015726 0.842368 -0.857307
H -1.385510 -1.238565 -0.946649
H -1.386624 -1.289556 0.892532
H 1.456517 -1.234796 -0.904639
H 1.454578 -1.270742 0.876886
$end
$scan
stre 1 4 2.900000 2.901000 0.100000
$end
--------------------------------------------------------------

   12   -5265.6575167730      1.84e-07  Convergence criterion met
 Total energy in the final basis set =    -5265.6575167730
   11   -5265.6498373794      6.69e-07  Convergence criterion met
 Total energy in the final basis set =    -5265.6498373794
   11   -5265.6498671182      6.57e-07  Convergence criterion met
 Total energy in the final basis set =    -5265.6498671182
   11   -5265.6500410395      6.81e-07  Convergence criterion met
 Total energy in the final basis set =    -5265.6500410395
   11   -5265.6500480301      6.85e-07  Convergence criterion met
 Total energy in the final basis set =    -5265.6500480301
   11   -5265.6500581154      6.92e-07  Convergence criterion met
 Total energy in the final basis set =    -5265.6500581154
   11   -5265.6500602991      6.95e-07  Convergence criterion met
 Total energy in the final basis set =    -5265.6500602991

             Standard Nuclear Orientation (Angstroms)
    I     Atom           X                Y                Z
 ----------------------------------------------------------------
    1      Br     -3.4652806809     0.8568824368     0.0464845948
    2      Br      2.9223166635     0.5730478836     0.0234276572
    3      C       0.0494146406     0.1796984857     0.0146129420
    4      C      -1.0747820646    -0.7838591161    -0.0125126561
    5      C       1.3668127832    -0.6356485156    -0.0019740040
    6      H       0.0161789614     0.7905177055     0.9188664760
    7      H       0.0206916310     0.8353278247    -0.8578406410
    8      H      -1.3857781830    -1.2384498515    -0.9468767493
    9      H      -1.3859366510    -1.2899848351     0.8948282054
   10      H       1.4687695714    -1.2357760423    -0.9057204646
   11      H       1.4674963284    -1.2730519758     0.8761066395
 ----------------------------------------------------------------

   11   -5265.6500612161      6.97e-07  Convergence criterion met
 Total energy in the final basis set =    -5265.6500612161

                    Orbital Energies (a.u.)
 --------------------------------------------------------------

 Alpha MOs
 -- Occupied --
*******-482.822 -62.535 -62.479 -56.356 -56.353 -56.352 -56.300
-56.297 -56.297 -10.307 -10.285 -10.248  -8.722  -8.664  -6.553
 -6.539  -6.539  -6.493  -6.482  -6.482  -2.646  -2.642  -2.642
 -2.632  -2.632  -2.587  -2.584  -2.584  -2.575  -2.575  -0.868
 -0.803  -0.711  -0.696  -0.642  -0.538  -0.480  -0.475  -0.451
 -0.402  -0.398  -0.305  -0.301  -0.281  -0.254  -0.254

 Beta MOs
 -- Occupied --
*******-482.822 -62.535 -62.479 -56.356 -56.353 -56.352 -56.300
-56.297 -56.297 -10.307 -10.285 -10.248  -8.722  -8.664  -6.553
 -6.539  -6.539  -6.493  -6.482  -6.482  -2.646  -2.642  -2.642
 -2.632  -2.632  -2.587  -2.584  -2.584  -2.575  -2.575  -0.868
 -0.803  -0.711  -0.696  -0.642  -0.538  -0.480  -0.475  -0.451
 -0.402  -0.398  -0.305  -0.301  -0.281  -0.254  -0.254

          Ground-State Mulliken Net Atomic Charges

     Atom                 Charge (a.u.)    Spin (a.u.)
  --------------------------------------------------------
      1 Br                   -0.378719       0.000000
      2 Br                   -0.065444      -0.000000
      3 C                    -0.209188       0.000000
      4 C                    -0.130953      -0.000000
      5 C                    -0.277049       0.000000
      6 H                     0.175178      -0.000000
      7 H                     0.174722      -0.000000
      8 H                     0.188589       0.000000
      9 H                     0.188857      -0.000000
     10 H                     0.166908      -0.000000
     11 H                     0.167098      -0.000000
  --------------------------------------------------------
  Sum of atomic charges =     0.000000

                    Cartesian Multipole Moments
 -----------------------------------------------------------------
    Charge (ESU x 10^10)
                 0.0000
    Dipole Moment (Debye)
         X       3.5502      Y      -3.5648      Z      -0.1123
       Tot       5.0323
    Quadrupole Moments (Debye-Ang)
        XX     -78.7400     XY       4.2404     YY     -55.0807
        XZ       0.2251     YZ      -0.0301     ZZ     -55.8298

 Final energy is   -5265.65006121612
 **  OPTIMIZATION CONVERGED  **
 Total job time:  43.15s(wall), 499.84s(cpu)
        *  Thank you very much for using Q-Chem.  Have a nice day.  *
