 Q-Chem 5.1, Q-Chem, Inc., Pleasanton, CA (2018)
 Q-Chem 5.1.1 for Intel X86 EM64T Linux

User input:
--------------------------------------------------------------

$comment
potential surface scanner
$end

$rem
JOBTYPE  PES_SCAN
UNRESTRICTED TRUE
SYM_IGNORE  TRUE
GEOM_OPT_MAX_CYCLES 400
SCF_MAX_CYCLES 400
METHOD   B3LYP
BASIS   6-31G**
PDB_PRINT 2
SCF_CONVERGENCE 6
THRESH 14
SCF_PRINT 1
$end
$molecule
0 1
Br -2.833200 0.507100 -0.012400
Br 2.833200 0.507100 -0.012500
C 0.000000 0.236900 0.032600
C -1.249900 -0.625600 -0.004000
C 1.249800 -0.625500 -0.003800
H 0.000000 0.860400 0.936100
H 0.000100 0.929600 -0.819100
H -1.300300 -1.235900 -0.909900
H -1.328900 -1.269800 0.875900
H 1.300200 -1.236000 -0.909700
H 1.328900 -1.269600 0.876200
$end
$scan
stre 1 4 4.700000 4.701000 0.100000
$end
--------------------------------------------------------------

    9   -5265.7130673013      5.26e-07  Convergence criterion met
 Total energy in the final basis set =    -5265.7130673013
   10   -5265.7103419285      3.62e-07  Convergence criterion met
 Total energy in the final basis set =    -5265.7103419285
   10   -5265.7004159107      4.95e-07  Convergence criterion met
 Total energy in the final basis set =    -5265.7004159107
   11   -5265.6887816216      1.28e-07  Convergence criterion met
 Total energy in the final basis set =    -5265.6887816216
   11   -5265.6772527924      2.89e-07  Convergence criterion met
 Total energy in the final basis set =    -5265.6772527924
   11   -5265.6661831981      4.55e-07  Convergence criterion met
 Total energy in the final basis set =    -5265.6661831981
   12   -5265.6556464166      1.80e-07  Convergence criterion met
 Total energy in the final basis set =    -5265.6556464166
   11   -5265.6456341778      8.18e-07  Convergence criterion met
   38   -5265.5807161507      9.25e-07  Convergence criterion met
 Total energy in the final basis set =    -5265.5807161507
   90   -5265.6072923727      2.80e-07  Convergence criterion met
 Total energy in the final basis set =    -5265.6072923727
   25   -5265.5808320786      1.68e-07  Convergence criterion met
 Total energy in the final basis set =    -5265.5808320786
   26   -5265.5808694275      8.76e-07  Convergence criterion met
 Total energy in the final basis set =    -5265.5808694275
   61   -5265.5839641152      8.94e-07  Convergence criterion met
 Total energy in the final basis set =    -5265.5839641152
   52   -5265.5839697952      1.69e-07  Convergence criterion met
 Total energy in the final basis set =    -5265.5839697952

             Standard Nuclear Orientation (Angstroms)
    I     Atom           X                Y                Z
 ----------------------------------------------------------------
    1      Br     -4.7061427847     1.7284161634    -0.0021940026
    2      Br      2.9565146021     0.7185842315     0.0087322375
    3      C       0.1273757409     0.0393926032     0.0259263441
    4      C      -0.8891624917    -1.0139662324    -0.0016881820
    5      C       1.5364483316    -0.6398169978    -0.0047663253
    6      H       0.0573669716     0.6383536109     0.9382980205
    7      H       0.0464256420     0.6926317227    -0.8478270856
    8      H      -1.2485480522    -1.4260775129    -0.9397026123
    9      H      -1.2576335544    -1.4690213191     0.9125216591
   10      H       1.6790139119    -1.2249302555    -0.9117961383
   11      H       1.6982416829    -1.2648660141     0.8718960849
 ----------------------------------------------------------------

   44   -5265.5839694081      5.18e-07  Convergence criterion met
 Total energy in the final basis set =    -5265.5839694081

                    Orbital Energies (a.u.)
 --------------------------------------------------------------

 Alpha MOs
 -- Occupied --
*******-482.804 -62.543 -62.461 -56.365 -56.361 -56.361 -56.281
-56.280 -56.279 -10.306 -10.297 -10.262  -8.730  -8.647  -6.561
 -6.548  -6.547  -6.472  -6.468  -6.465  -2.655  -2.651  -2.650
 -2.640  -2.640  -2.567  -2.566  -2.563  -2.561  -2.560  -0.878
 -0.814  -0.712  -0.688  -0.652  -0.550  -0.494  -0.486  -0.459
 -0.414  -0.408  -0.312  -0.309  -0.252  -0.237  -0.225

 Beta MOs
 -- Occupied --
*******-482.804 -62.543 -62.461 -56.365 -56.361 -56.361 -56.281
-56.280 -56.279 -10.306 -10.297 -10.262  -8.730  -8.647  -6.561
 -6.548  -6.547  -6.472  -6.468  -6.465  -2.655  -2.651  -2.650
 -2.640  -2.640  -2.567  -2.566  -2.563  -2.561  -2.560  -0.878
 -0.814  -0.712  -0.688  -0.652  -0.550  -0.494  -0.486  -0.459
 -0.414  -0.408  -0.312  -0.309  -0.253  -0.237  -0.225

          Ground-State Mulliken Net Atomic Charges

     Atom                 Charge (a.u.)    Spin (a.u.)
  --------------------------------------------------------
      1 Br                   -0.382962      -0.002256
      2 Br                   -0.055115       0.000219
      3 C                    -0.226792       0.000527
      4 C                    -0.127103       0.000871
      5 C                    -0.270232       0.001017
      6 H                     0.176239      -0.000243
      7 H                     0.178253      -0.000091
      8 H                     0.181948      -0.000013
      9 H                     0.181923      -0.000039
     10 H                     0.171827       0.000004
     11 H                     0.172014       0.000002
  --------------------------------------------------------
  Sum of atomic charges =     0.000000

                    Cartesian Multipole Moments
 -----------------------------------------------------------------
    Charge (ESU x 10^10)
                 0.0000
    Dipole Moment (Debye)
         X       6.5028      Y      -5.4688      Z      -0.0049
       Tot       8.4967
    Quadrupole Moments (Debye-Ang)
        XX     -97.6872     XY      14.0332     YY     -58.7406
        XZ       0.1301     YZ       0.1755     ZZ     -55.6899

 Final energy is   -5265.58396940809
 **  OPTIMIZATION CONVERGED  **
 Total job time:  842.20s(wall), 9927.64s(cpu)
        *  Thank you very much for using Q-Chem.  Have a nice day.  *
