 Q-Chem 5.1, Q-Chem, Inc., Pleasanton, CA (2018)
 Q-Chem 5.1.1 for Intel X86 EM64T Linux

User input:
--------------------------------------------------------------

$comment
potential surface scanner
$end

$rem
JOBTYPE  PES_SCAN
UNRESTRICTED TRUE
SYM_IGNORE  TRUE
GEOM_OPT_MAX_CYCLES 400
SCF_MAX_CYCLES 400
METHOD   B3LYP
BASIS   6-31G**
PDB_PRINT 2
SCF_CONVERGENCE 6
THRESH 14
SCF_PRINT 1
$end
$molecule
0 3
Br -4.706143 1.728416 -0.002194
Br 2.956515 0.718584 0.008732
C 0.127376 0.039393 0.025926
C -0.889162 -1.013966 -0.001688
C 1.536448 -0.639817 -0.004766
H 0.057367 0.638354 0.938298
H 0.046426 0.692632 -0.847827
H -1.248548 -1.426078 -0.939703
H -1.257634 -1.469021 0.912522
H 1.679014 -1.224930 -0.911796
H 1.698242 -1.264866 0.871896
$end
$scan
stre 1 4 5.700000 5.701000 0.100000
$end
--------------------------------------------------------------

   15   -5265.6017331251      5.43e-07  Convergence criterion met
 Total energy in the final basis set =    -5265.6017331251
   15   -5265.5988629530      8.26e-07  Convergence criterion met
 Total energy in the final basis set =    -5265.5988629530
   15   -5265.5969757060      9.25e-07  Convergence criterion met
 Total energy in the final basis set =    -5265.5969757060
   16   -5265.5974729994      3.01e-07  Convergence criterion met
 Total energy in the final basis set =    -5265.5974729994
   16   -5265.5973797470      2.81e-07  Convergence criterion met
 Total energy in the final basis set =    -5265.5973797470
   16   -5265.5961177504      2.86e-07  Convergence criterion met
 Total energy in the final basis set =    -5265.5961177504
   16   -5265.5946554910      2.88e-07  Convergence criterion met
 Total energy in the final basis set =    -5265.5946554910
   16   -5265.5933806858      3.01e-07  Convergence criterion met
   15   -5265.6027390413      5.52e-07  Convergence criterion met
 Total energy in the final basis set =    -5265.6027390413
   15   -5265.6027515547      5.53e-07  Convergence criterion met
 Total energy in the final basis set =    -5265.6027515547
   15   -5265.6027561767      5.53e-07  Convergence criterion met
 Total energy in the final basis set =    -5265.6027561767
   15   -5265.6027591057      5.53e-07  Convergence criterion met
 Total energy in the final basis set =    -5265.6027591057
   15   -5265.6027614748      5.53e-07  Convergence criterion met
 Total energy in the final basis set =    -5265.6027614748
   15   -5265.6027629825      5.54e-07  Convergence criterion met
 Total energy in the final basis set =    -5265.6027629825

             Standard Nuclear Orientation (Angstroms)
    I     Atom           X                Y                Z
 ----------------------------------------------------------------
    1      Br     -5.2428709178     2.3866469533    -0.0017917739
    2      Br      2.9333386850     0.8590359878     0.0137059850
    3      C       0.1505035206    -0.0664548278     0.0236952729
    4      C      -0.8158965168    -1.2038813084    -0.0005912565
    5      C       1.5897615199    -0.6011660623    -0.0051972116
    6      H       0.0181774200     0.5415510189     0.9249590935
    7      H       0.0020804832     0.5916288146    -0.8392315439
    8      H      -1.1205422695    -1.6548774030    -0.9392878771
    9      H      -1.1271169288    -1.6917169871     0.9171570013
   10      H       1.7962014410    -1.1693949168    -0.9115680152
   11      H       1.8162645631    -1.2126702691     0.8675503255
 ----------------------------------------------------------------

   15   -5265.6027637631      5.55e-07  Convergence criterion met
 Total energy in the final basis set =    -5265.6027637631

                    Orbital Energies (a.u.)
 --------------------------------------------------------------

 Alpha MOs
 -- Occupied --
*******-482.846 -62.559 -62.504 -56.384 -56.376 -56.376 -56.325
-56.322 -56.322 -10.248 -10.209 -10.207  -8.747  -8.691  -6.583
 -6.561  -6.561  -6.521  -6.509  -6.509  -2.674  -2.669  -2.669
 -2.652  -2.652  -2.615  -2.611  -2.611  -2.601  -2.601  -0.826
 -0.799  -0.762  -0.665  -0.600  -0.492  -0.432  -0.429  -0.417
 -0.374  -0.359  -0.359  -0.325  -0.325  -0.276  -0.273  -0.221

 Beta MOs
 -- Occupied --
*******-482.846 -62.558 -62.504 -56.378 -56.375 -56.375 -56.325
-56.322 -56.322 -10.246 -10.208 -10.195  -8.743  -8.691  -6.573
 -6.559  -6.559  -6.521  -6.509  -6.509  -2.666  -2.663  -2.663
 -2.651  -2.651  -2.615  -2.611  -2.611  -2.601  -2.601  -0.821
 -0.756  -0.752  -0.649  -0.588  -0.489  -0.426  -0.423  -0.407
 -0.357  -0.354  -0.311  -0.311  -0.274  -0.273

          Ground-State Mulliken Net Atomic Charges

     Atom                 Charge (a.u.)    Spin (a.u.)
  --------------------------------------------------------
      1 Br                   -0.000015       1.000038
      2 Br                   -0.132111       0.032517
      3 C                    -0.194522      -0.074086
      4 C                    -0.226353       1.065460
      5 C                    -0.242783       0.042626
      6 H                     0.129423       0.013084
      7 H                     0.129977       0.014521
      8 H                     0.115400      -0.047132
      9 H                     0.115737      -0.047160
     10 H                     0.152563       0.000004
     11 H                     0.152685       0.000128
  --------------------------------------------------------
  Sum of atomic charges =     0.000000

                    Cartesian Multipole Moments
 -----------------------------------------------------------------
    Charge (ESU x 10^10)
                 0.0000
    Dipole Moment (Debye)
         X      -1.7574      Y      -1.6115      Z      -0.0172
       Tot       2.3844
    Quadrupole Moments (Debye-Ang)
        XX     -63.4023     XY      -1.3445     YY     -54.4145
        XZ       0.0906     YZ       0.2086     ZZ     -56.1199

 Final energy is   -5265.60276376307
 **  OPTIMIZATION CONVERGED  **
 Total job time:  183.83s(wall), 2138.16s(cpu)
        *  Thank you very much for using Q-Chem.  Have a nice day.  *
