 Q-Chem 5.1, Q-Chem, Inc., Pleasanton, CA (2018)
 Q-Chem 5.1.1 for Intel X86 EM64T Linux

User input:
--------------------------------------------------------------

$comment
potential surface scanner
$end

$rem
JOBTYPE  PES_SCAN
UNRESTRICTED TRUE
SYM_IGNORE  TRUE
GEOM_OPT_MAX_CYCLES 400
SCF_MAX_CYCLES 400
METHOD   B3LYP
BASIS   6-31G**
PDB_PRINT 2
SCF_CONVERGENCE 6
THRESH 14
SCF_PRINT 1
$end
$molecule
0 3
Br -3.145409 1.360675 0.077199
Br 2.772926 0.869825 0.028122
C -0.045030 0.050954 0.000074
C -1.047435 -1.053364 -0.027298
C 1.380397 -0.536446 0.011991
H -0.165367 0.676511 0.893193
H -0.144473 0.698379 -0.878917
H -1.371065 -1.487185 -0.967090
H -1.372056 -1.533031 0.889503
H 1.576787 -1.130253 -0.879813
H 1.560626 -1.137360 0.902443
$end
$scan
stre 1 4 3.100000 3.101000 0.100000
$end
--------------------------------------------------------------

   36   -5265.6004246216      9.34e-07  Convergence criterion met
 Total energy in the final basis set =    -5265.6004246216
   56   -5265.5966523876      5.82e-07  Convergence criterion met
 Total energy in the final basis set =    -5265.5966523876
   71   -5265.5967710751      1.35e-07  Convergence criterion met
 Total energy in the final basis set =    -5265.5967710751
   34   -5265.5989279561      5.95e-07  Convergence criterion met
 Total energy in the final basis set =    -5265.5989279561
   36   -5265.5990863607      4.93e-07  Convergence criterion met
 Total energy in the final basis set =    -5265.5990863607
   70   -5265.5968594970      4.04e-07  Convergence criterion met
 Total energy in the final basis set =    -5265.5968594970
   38   -5265.5992226777      7.40e-07  Convergence criterion met
 Total energy in the final basis set =    -5265.5992226777
   38   -5265.5992556137      7.03e-07  Convergence criterion met
 Total energy in the final basis set =    -5265.5992556137
   81   -5265.5969196285      8.24e-07  Convergence criterion met
 Total energy in the final basis set =    -5265.5969196285
   37   -5265.5992801956      8.89e-07  Convergence criterion met
 Total energy in the final basis set =    -5265.5992801956
   37   -5265.5992890094      8.23e-07  Convergence criterion met
 Total energy in the final basis set =    -5265.5992890094
   75   -5265.5969665983      6.35e-07  Convergence criterion met
 Total energy in the final basis set =    -5265.5969665983
   37   -5265.5992914489      5.34e-07  Convergence criterion met
 Total energy in the final basis set =    -5265.5992914489

             Standard Nuclear Orientation (Angstroms)
    I     Atom           X                Y                Z
 ----------------------------------------------------------------
    1      Br     -3.1619035248     1.2552238607     0.0718418681
    2      Br      2.7929795859     0.8423619679     0.0268652097
    3      C      -0.0366799064     0.0689373503     0.0009246824
    4      C      -1.0571188853    -1.0186234678    -0.0256312852
    5      C       1.3784898305    -0.5425745034     0.0115415713
    6      H      -0.1456581857     0.6973175590     0.8933932991
    7      H      -0.1261500536     0.7190702426    -0.8771689091
    8      H      -1.3796585922    -1.4548944476    -0.9646738840
    9      H      -1.3785128858    -1.5016989620     0.8905454206
   10      H       1.5646734538    -1.1399274966    -0.8801308613
   11      H       1.5494401635    -1.1464871031     0.9018998885
 ----------------------------------------------------------------

   37   -5265.5992923728      4.86e-07  Convergence criterion met
 Total energy in the final basis set =    -5265.5992923728

                    Orbital Energies (a.u.)
 --------------------------------------------------------------

 Alpha MOs
 -- Occupied --
*******-482.853 -62.551 -62.511 -56.375 -56.368 -56.368 -56.332
-56.329 -56.329 -10.255 -10.215 -10.209  -8.738  -8.698  -6.575
 -6.553  -6.553  -6.528  -6.516  -6.516  -2.666  -2.660  -2.660
 -2.644  -2.644  -2.622  -2.618  -2.618  -2.608  -2.608  -0.834
 -0.793  -0.768  -0.670  -0.607  -0.499  -0.438  -0.433  -0.428
 -0.366  -0.366  -0.362  -0.322  -0.319  -0.283  -0.280  -0.217

 Beta MOs
 -- Occupied --
*******-482.853 -62.550 -62.511 -56.370 -56.367 -56.367 -56.332
-56.329 -56.329 -10.253 -10.216 -10.196  -8.734  -8.698  -6.564
 -6.551  -6.551  -6.528  -6.516  -6.515  -2.658  -2.654  -2.654
 -2.643  -2.643  -2.622  -2.618  -2.618  -2.608  -2.608  -0.827
 -0.761  -0.748  -0.654  -0.594  -0.495  -0.431  -0.428  -0.414
 -0.363  -0.361  -0.305  -0.305  -0.280  -0.279

          Ground-State Mulliken Net Atomic Charges

     Atom                 Charge (a.u.)    Spin (a.u.)
  --------------------------------------------------------
      1 Br                   -0.022252       0.983027
      2 Br                   -0.114537       0.049299
      3 C                    -0.211697      -0.066108
      4 C                    -0.234141       1.039652
      5 C                    -0.247373       0.054605
      6 H                     0.134864       0.015959
      7 H                     0.135902       0.013992
      8 H                     0.122423      -0.045914
      9 H                     0.122298      -0.045821
     10 H                     0.157368       0.000844
     11 H                     0.157145       0.000466
  --------------------------------------------------------
  Sum of atomic charges =    -0.000000

                    Cartesian Multipole Moments
 -----------------------------------------------------------------
    Charge (ESU x 10^10)
                 0.0000
    Dipole Moment (Debye)
         X      -1.1871      Y      -1.7344      Z      -0.0376
       Tot       2.1020
    Quadrupole Moments (Debye-Ang)
        XX     -61.3567     XY      -1.5052     YY     -56.8078
        XZ       0.0051     YZ      -0.0582     ZZ     -56.0663

 Final energy is   -5265.59929237284
 **  OPTIMIZATION CONVERGED  **
 Total job time:  246.43s(wall), 2906.32s(cpu)
        *  Thank you very much for using Q-Chem.  Have a nice day.  *
