 Q-Chem 5.1, Q-Chem, Inc., Pleasanton, CA (2018)
 Q-Chem 5.1.1 for Intel X86 EM64T Linux

User input:
--------------------------------------------------------------

$comment
potential surface scanner
$end

$rem
JOBTYPE  PES_SCAN
UNRESTRICTED TRUE
SYM_IGNORE  TRUE
GEOM_OPT_MAX_CYCLES 400
SCF_MAX_CYCLES 400
METHOD   B3LYP
BASIS   6-31G**
PDB_PRINT 2
SCF_CONVERGENCE 6
THRESH 14
SCF_PRINT 1
$end
$molecule
0 3
Br -2.699545 1.173280 0.896780
Br 2.696684 0.922077 0.182401
C -0.049610 0.019559 -0.276990
C -1.068061 -1.065487 -0.254819
C 1.322584 -0.494867 0.170295
H -0.324504 0.849231 0.417033
H 0.019279 0.480689 -1.266272
H -1.684781 -1.276870 -1.119432
H -1.204354 -1.676441 0.630930
H 1.693220 -1.258050 -0.514402
H 1.298988 -0.894415 1.183883
$end
$scan
stre 1 4 2.900000 2.901000 0.100000
$end
--------------------------------------------------------------

   15   -5265.5986252107      6.89e-07  Convergence criterion met
 Total energy in the final basis set =    -5265.5986252107
   15   -5265.5966306458      7.27e-07  Convergence criterion met
 Total energy in the final basis set =    -5265.5966306458
   15   -5265.5966462240      6.72e-07  Convergence criterion met
 Total energy in the final basis set =    -5265.5966462240
   15   -5265.5966618577      6.38e-07  Convergence criterion met
 Total energy in the final basis set =    -5265.5966618577
   15   -5265.5966645412      6.42e-07  Convergence criterion met
 Total energy in the final basis set =    -5265.5966645412
   15   -5265.5966663313      6.56e-07  Convergence criterion met
 Total energy in the final basis set =    -5265.5966663313

             Standard Nuclear Orientation (Angstroms)
    I     Atom           X                Y                Z
 ----------------------------------------------------------------
    1      Br     -2.6978845823     1.0955231579     0.8601695649
    2      Br      2.7100888258     0.9052424165     0.1728408660
    3      C      -0.0487054315     0.0328613811    -0.2720045259
    4      C      -1.0770772621    -1.0417659358    -0.2420915395
    5      C       1.3208486413    -0.4962663724     0.1699807285
    6      H      -0.3060399722     0.8701368538     0.4209656995
    7      H       0.0188739505     0.4905584578    -1.2630652834
    8      H      -1.6914927848    -1.2580486210    -1.1069331109
    9      H      -1.2029697082    -1.6604991176     0.6396150567
   10      H       1.6781514937    -1.2658094890    -0.5146044251
   11      H       1.2961068297    -0.8932267312     1.1845339693
 ----------------------------------------------------------------

   15   -5265.5966666474      6.63e-07  Convergence criterion met
 Total energy in the final basis set =    -5265.5966666474

                    Orbital Energies (a.u.)
 --------------------------------------------------------------

 Alpha MOs
 -- Occupied --
*******-482.856 -62.545 -62.514 -56.369 -56.362 -56.362 -56.335
-56.332 -56.332 -10.258 -10.225 -10.209  -8.732  -8.701  -6.568
 -6.547  -6.547  -6.531  -6.519  -6.518  -2.659  -2.654  -2.654
 -2.639  -2.639  -2.625  -2.621  -2.621  -2.611  -2.611  -0.840
 -0.792  -0.770  -0.674  -0.613  -0.502  -0.454  -0.441  -0.426
 -0.379  -0.371  -0.341  -0.322  -0.315  -0.284  -0.282  -0.214

 Beta MOs
 -- Occupied --
*******-482.856 -62.543 -62.514 -56.363 -56.361 -56.360 -56.335
-56.332 -56.331 -10.257 -10.225 -10.196  -8.728  -8.701  -6.557
 -6.545  -6.545  -6.531  -6.519  -6.518  -2.651  -2.648  -2.648
 -2.637  -2.637  -2.625  -2.621  -2.621  -2.611  -2.611  -0.833
 -0.767  -0.743  -0.658  -0.597  -0.495  -0.446  -0.434  -0.408
 -0.372  -0.365  -0.302  -0.301  -0.283  -0.282

          Ground-State Mulliken Net Atomic Charges

     Atom                 Charge (a.u.)    Spin (a.u.)
  --------------------------------------------------------
      1 Br                   -0.046528       0.944698
      2 Br                   -0.108632       0.025854
      3 C                    -0.209130      -0.019537
      4 C                    -0.238585       1.028240
      5 C                    -0.251460       0.038440
      6 H                     0.134726       0.062604
      7 H                     0.144264       0.003416
      8 H                     0.129023      -0.046399
      9 H                     0.122627      -0.045713
     10 H                     0.164468       0.009779
     11 H                     0.159227      -0.001382
  --------------------------------------------------------
  Sum of atomic charges =     0.000000

                    Cartesian Multipole Moments
 -----------------------------------------------------------------
    Charge (ESU x 10^10)
                 0.0000
    Dipole Moment (Debye)
         X      -0.8615      Y      -1.8085      Z      -0.4046
       Tot       2.0436
    Quadrupole Moments (Debye-Ang)
        XX     -61.3896     XY      -1.3254     YY     -57.0365
        XZ       0.1483     YZ      -0.7121     ZZ     -56.1958

 Final energy is   -5265.59666664741
 **  OPTIMIZATION CONVERGED  **
 Total job time:  48.15s(wall), 560.05s(cpu)
        *  Thank you very much for using Q-Chem.  Have a nice day.  *
