 Q-Chem 5.1, Q-Chem, Inc., Pleasanton, CA (2018)
 Q-Chem 5.1.1 for Intel X86 EM64T Linux

User input:
--------------------------------------------------------------

$comment
potential surface scanner
$end

$rem
JOBTYPE  PES_SCAN
UNRESTRICTED TRUE
SYM_IGNORE  TRUE
GEOM_OPT_MAX_CYCLES 400
SCF_MAX_CYCLES 400
METHOD   B3LYP
BASIS   6-31G**
PDB_PRINT 2
SCF_CONVERGENCE 6
THRESH 14
SCF_PRINT 1
$end
$molecule
0 3
Br -3.836803 1.272829 0.008888
Br 2.899176 0.760923 0.016639
C 0.055549 0.073722 0.017813
C -1.016839 -0.964944 -0.004472
C 1.442529 -0.586415 -0.000474
H -0.023473 0.696365 0.915861
H -0.026603 0.737469 -0.850058
H -1.361823 -1.387038 -0.942134
H -1.348300 -1.440341 0.912274
H 1.604331 -1.175323 -0.902671
H 1.612157 -1.208545 0.877739
$end
$scan
stre 1 4 3.500000 3.501000 0.100000
$end
--------------------------------------------------------------

   15   -5265.6020853890      5.05e-07  Convergence criterion met
 Total energy in the final basis set =    -5265.6020853890
   15   -5265.6013009407      7.41e-07  Convergence criterion met
 Total energy in the final basis set =    -5265.6013009407
   15   -5265.6016139837      7.40e-07  Convergence criterion met
 Total energy in the final basis set =    -5265.6016139837
   15   -5265.6017355193      7.35e-07  Convergence criterion met
 Total energy in the final basis set =    -5265.6017355193
   15   -5265.6017445238      7.38e-07  Convergence criterion met
 Total energy in the final basis set =    -5265.6017445238
   15   -5265.6017736326      7.89e-07  Convergence criterion met
 Total energy in the final basis set =    -5265.6017736326
   15   -5265.6017816235      8.32e-07  Convergence criterion met
 Total energy in the final basis set =    -5265.6017816235
   15   -5265.6017939366      9.48e-07  Convergence criterion met
 Total energy in the final basis set =    -5265.6017939366
   16   -5265.6017763202      6.50e-07  Convergence criterion met
 Total energy in the final basis set =    -5265.6017763202

             Standard Nuclear Orientation (Angstroms)
    I     Atom           X                Y                Z
 ----------------------------------------------------------------
    1      Br     -3.7255975016     1.2491597655     0.0337717293
    2      Br      2.8845665847     0.7737795929     0.0207790919
    3      C       0.0436057045     0.0731412364     0.0106393477
    4      C      -1.0216056909    -0.9726239205    -0.0121509277
    5      C       1.4340982543    -0.5799478818     0.0044180705
    6      H      -0.0442219502     0.7003913684     0.9047022294
    7      H      -0.0376821525     0.7308778202    -0.8616151052
    8      H      -1.3748313972    -1.3864821531    -0.9504660860
    9      H      -1.3635780905    -1.4395462039     0.9051489720
   10      H       1.6032768405    -1.1740104588    -0.8930743730
   11      H       1.6018703988    -1.1960371651     0.8872520510
 ----------------------------------------------------------------

   16   -5265.6017766581      6.36e-07  Convergence criterion met
 Total energy in the final basis set =    -5265.6017766581

                    Orbital Energies (a.u.)
 --------------------------------------------------------------

 Alpha MOs
 -- Occupied --
*******-482.846 -62.560 -62.504 -56.384 -56.376 -56.376 -56.325
-56.322 -56.322 -10.247 -10.207 -10.206  -8.747  -8.691  -6.584
 -6.561  -6.561  -6.521  -6.509  -6.509  -2.674  -2.669  -2.669
 -2.653  -2.653  -2.615  -2.611  -2.611  -2.601  -2.601  -0.826
 -0.800  -0.762  -0.665  -0.600  -0.492  -0.431  -0.428  -0.417
 -0.374  -0.359  -0.358  -0.327  -0.326  -0.276  -0.274  -0.216

 Beta MOs
 -- Occupied --
*******-482.846 -62.558 -62.504 -56.378 -56.375 -56.375 -56.325
-56.322 -56.322 -10.246 -10.207 -10.193  -8.743  -8.691  -6.573
 -6.560  -6.559  -6.521  -6.509  -6.509  -2.666  -2.663  -2.663
 -2.651  -2.651  -2.615  -2.611  -2.611  -2.601  -2.601  -0.820
 -0.756  -0.751  -0.649  -0.588  -0.488  -0.425  -0.422  -0.407
 -0.356  -0.354  -0.311  -0.311  -0.274  -0.273

          Ground-State Mulliken Net Atomic Charges

     Atom                 Charge (a.u.)    Spin (a.u.)
  --------------------------------------------------------
      1 Br                   -0.000833       1.010200
      2 Br                   -0.132411       0.033190
      3 C                    -0.194407      -0.073696
      4 C                    -0.219082       1.052679
      5 C                    -0.244225       0.042559
      6 H                     0.128118       0.014692
      7 H                     0.128367       0.013442
      8 H                     0.114821      -0.046664
      9 H                     0.114600      -0.046628
     10 H                     0.152570       0.000149
     11 H                     0.152481       0.000078
  --------------------------------------------------------
  Sum of atomic charges =     0.000000

                    Cartesian Multipole Moments
 -----------------------------------------------------------------
    Charge (ESU x 10^10)
                -0.0000
    Dipole Moment (Debye)
         X      -1.8910      Y      -1.5028      Z      -0.0226
       Tot       2.4155
    Quadrupole Moments (Debye-Ang)
        XX     -62.8916     XY      -0.5851     YY     -55.0695
        XZ       0.0358     YZ       0.0399     ZZ     -56.1578

 Final energy is   -5265.60177665808
 **  OPTIMIZATION CONVERGED  **
 Total job time:  65.12s(wall), 755.60s(cpu)
        *  Thank you very much for using Q-Chem.  Have a nice day.  *
