 Q-Chem 5.1, Q-Chem, Inc., Pleasanton, CA (2018)
 Q-Chem 5.1.1 for Intel X86 EM64T Linux

User input:
--------------------------------------------------------------

$comment
potential surface scanner
$end

$rem
JOBTYPE  PES_SCAN
UNRESTRICTED TRUE
SYM_IGNORE  TRUE
GEOM_OPT_MAX_CYCLES 400
SCF_MAX_CYCLES 400
METHOD   B3LYP
BASIS   6-31G**
PDB_PRINT 2
SCF_CONVERGENCE 6
THRESH 14
SCF_PRINT 1
$end
$molecule
0 3
Br -5.242871 2.386647 -0.001792
Br 2.933339 0.859036 0.013706
C 0.150504 -0.066455 0.023695
C -0.815897 -1.203881 -0.000591
C 1.589762 -0.601166 -0.005197
H 0.018177 0.541551 0.924959
H 0.002080 0.591629 -0.839232
H -1.120542 -1.654877 -0.939288
H -1.127117 -1.691717 0.917157
H 1.796201 -1.169395 -0.911568
H 1.816265 -1.212670 0.867550
$end
$scan
stre 1 4 5.600000 5.601000 0.100000
$end
--------------------------------------------------------------

   15   -5265.6027637633      5.55e-07  Convergence criterion met
 Total energy in the final basis set =    -5265.6027637633
   15   -5265.6021703046      6.18e-07  Convergence criterion met
 Total energy in the final basis set =    -5265.6021703046
   15   -5265.6025265003      6.14e-07  Convergence criterion met
 Total energy in the final basis set =    -5265.6025265003
   15   -5265.6026998206      6.15e-07  Convergence criterion met
 Total energy in the final basis set =    -5265.6026998206
   15   -5265.6027269374      6.22e-07  Convergence criterion met
 Total energy in the final basis set =    -5265.6027269374
   15   -5265.6027515920      6.33e-07  Convergence criterion met
 Total energy in the final basis set =    -5265.6027515920
   15   -5265.6027534707      6.33e-07  Convergence criterion met
 Total energy in the final basis set =    -5265.6027534707
   15   -5265.6027577322      6.27e-07  Convergence criterion met
 Total energy in the final basis set =    -5265.6027577322
   15   -5265.6027596650      6.22e-07  Convergence criterion met
 Total energy in the final basis set =    -5265.6027596650
   15   -5265.6027614494      6.16e-07  Convergence criterion met
 Total energy in the final basis set =    -5265.6027614494
   15   -5265.6027627342      6.11e-07  Convergence criterion met
 Total energy in the final basis set =    -5265.6027627342
   15   -5265.6027637792      6.07e-07  Convergence criterion met
 Total energy in the final basis set =    -5265.6027637792

             Standard Nuclear Orientation (Angstroms)
    I     Atom           X                Y                Z
 ----------------------------------------------------------------
    1      Br     -5.1729903370     2.3351851469    -0.0006280960
    2      Br      2.9315367110     0.8557473874     0.0127102853
    3      C       0.1454389306    -0.0603521954     0.0232214537
    4      C      -0.8251794520    -1.1941977483    -0.0013328199
    5      C       1.5836442036    -0.5996063863    -0.0043067603
    6      H       0.0135105900     0.5481211143     0.9245122894
    7      H      -0.0011924255     0.5973350590    -0.8405898096
    8      H      -1.1346150722    -1.6412674579    -0.9401803447
    9      H      -1.1365042494    -1.6824943535     0.9159705303
   10      H       1.7884285813    -1.1697915645    -0.9097181625
   11      H       1.8078235195    -1.2099770017     0.8697404343
 ----------------------------------------------------------------

   15   -5265.6027641768      6.06e-07  Convergence criterion met
 Total energy in the final basis set =    -5265.6027641768

                    Orbital Energies (a.u.)
 --------------------------------------------------------------

 Alpha MOs
 -- Occupied --
*******-482.846 -62.559 -62.504 -56.384 -56.376 -56.376 -56.325
-56.322 -56.322 -10.248 -10.208 -10.207  -8.747  -8.691  -6.583
 -6.561  -6.561  -6.521  -6.509  -6.509  -2.674  -2.669  -2.669
 -2.652  -2.652  -2.615  -2.611  -2.611  -2.601  -2.601  -0.826
 -0.799  -0.762  -0.665  -0.600  -0.492  -0.432  -0.429  -0.417
 -0.374  -0.359  -0.359  -0.325  -0.325  -0.276  -0.273  -0.221

 Beta MOs
 -- Occupied --
*******-482.846 -62.558 -62.504 -56.378 -56.375 -56.375 -56.325
-56.322 -56.322 -10.246 -10.208 -10.195  -8.743  -8.691  -6.573
 -6.559  -6.559  -6.521  -6.509  -6.509  -2.666  -2.663  -2.663
 -2.651  -2.651  -2.615  -2.611  -2.611  -2.601  -2.601  -0.821
 -0.756  -0.752  -0.649  -0.588  -0.489  -0.426  -0.423  -0.407
 -0.357  -0.354  -0.311  -0.311  -0.274  -0.273

          Ground-State Mulliken Net Atomic Charges

     Atom                 Charge (a.u.)    Spin (a.u.)
  --------------------------------------------------------
      1 Br                   -0.000024       1.000055
      2 Br                   -0.131926       0.032343
      3 C                    -0.194536      -0.074125
      4 C                    -0.226323       1.065516
      5 C                    -0.242803       0.042752
      6 H                     0.129388       0.013282
      7 H                     0.129901       0.014348
      8 H                     0.115400      -0.047145
      9 H                     0.115645      -0.047159
     10 H                     0.152588       0.000016
     11 H                     0.152690       0.000116
  --------------------------------------------------------
  Sum of atomic charges =    -0.000000

                    Cartesian Multipole Moments
 -----------------------------------------------------------------
    Charge (ESU x 10^10)
                 0.0000
    Dipole Moment (Debye)
         X      -1.7622      Y      -1.6040      Z      -0.0159
       Tot       2.3829
    Quadrupole Moments (Debye-Ang)
        XX     -63.3909     XY      -1.3194     YY     -54.4226
        XZ       0.0792     YZ       0.1711     ZZ     -56.1245

 Final energy is   -5265.60276417683
 **  OPTIMIZATION CONVERGED  **
 Total job time:  76.20s(wall), 882.98s(cpu)
        *  Thank you very much for using Q-Chem.  Have a nice day.  *
