 Q-Chem 5.1, Q-Chem, Inc., Pleasanton, CA (2018)
 Q-Chem 5.1.1 for Intel X86 EM64T Linux

User input:
--------------------------------------------------------------

$comment
potential surface scanner
$end

$rem
JOBTYPE  PES_SCAN
UNRESTRICTED TRUE
SYM_IGNORE  TRUE
GEOM_OPT_MAX_CYCLES 400
SCF_MAX_CYCLES 400
METHOD   B3LYP
BASIS   6-31G**
PDB_PRINT 2
SCF_CONVERGENCE 6
THRESH 14
SCF_PRINT 1
$end
$molecule
0 1
Br -3.684661 0.975924 0.029340
Br 2.933394 0.592149 0.019917
C 0.066442 0.158023 0.019824
C -1.036104 -0.819583 -0.006777
C 1.400435 -0.641142 -0.005754
H 0.032832 0.763113 0.928103
H 0.029821 0.813772 -0.852532
H -1.376818 -1.250841 -0.942207
H -1.381093 -1.297347 0.904118
H 1.504650 -1.234240 -0.913526
H 1.511005 -1.281125 0.868894
$end
$scan
stre 1 4 3.300000 3.301000 0.100000
$end
--------------------------------------------------------------

   13   -5265.6304974282      4.93e-07  Convergence criterion met
 Total energy in the final basis set =    -5265.6304974282
   13   -5265.6247325055      5.10e-07  Convergence criterion met
 Total energy in the final basis set =    -5265.6247325055
   13   -5265.6246791888      5.09e-07  Convergence criterion met
 Total energy in the final basis set =    -5265.6246791888
   13   -5265.6248308800      5.05e-07  Convergence criterion met
 Total energy in the final basis set =    -5265.6248308800
   13   -5265.6248371650      5.05e-07  Convergence criterion met
 Total energy in the final basis set =    -5265.6248371650
   13   -5265.6248510393      5.06e-07  Convergence criterion met
 Total energy in the final basis set =    -5265.6248510393
   13   -5265.6248561699      5.06e-07  Convergence criterion met
 Total energy in the final basis set =    -5265.6248561699
   13   -5265.6248583284      5.05e-07  Convergence criterion met
 Total energy in the final basis set =    -5265.6248583284

             Standard Nuclear Orientation (Angstroms)
    I     Atom           X                Y                Z
 ----------------------------------------------------------------
    1      Br     -3.7576723430     1.0177428946     0.0357835146
    2      Br      2.9365320377     0.5995867255     0.0200538792
    3      C       0.0721432544     0.1499772853     0.0184838617
    4      C      -1.0247296478    -0.8313161775    -0.0089832813
    5      C       1.4118729102    -0.6428009633    -0.0047562055
    6      H       0.0359443543     0.7549550287     0.9268570838
    7      H       0.0350808172     0.8045114032    -0.8549119312
    8      H      -1.3732182316    -1.2553439211    -0.9450227605
    9      H      -1.3795540218    -1.3014672664     0.9021895480
   10      H       1.5192461105    -1.2366859939    -0.9115385507
   11      H       1.5242577598    -1.2804560152     0.8712448419
 ----------------------------------------------------------------

   13   -5265.6248588167      5.05e-07  Convergence criterion met
 Total energy in the final basis set =    -5265.6248588167

                    Orbital Energies (a.u.)
 --------------------------------------------------------------

 Alpha MOs
 -- Occupied --
*******-482.811 -62.541 -62.468 -56.362 -56.358 -56.358 -56.289
-56.286 -56.286 -10.315 -10.293 -10.256  -8.728  -8.653  -6.559
 -6.545  -6.545  -6.482  -6.471  -6.471  -2.652  -2.648  -2.648
 -2.637  -2.637  -2.575  -2.572  -2.572  -2.564  -2.564  -0.876
 -0.811  -0.710  -0.694  -0.649  -0.546  -0.490  -0.483  -0.457
 -0.410  -0.405  -0.309  -0.307  -0.262  -0.243  -0.243

 Beta MOs
 -- Occupied --
*******-482.811 -62.541 -62.468 -56.362 -56.358 -56.358 -56.289
-56.286 -56.286 -10.315 -10.293 -10.256  -8.728  -8.653  -6.559
 -6.545  -6.545  -6.482  -6.471  -6.471  -2.652  -2.648  -2.648
 -2.637  -2.637  -2.575  -2.572  -2.572  -2.564  -2.564  -0.876
 -0.811  -0.710  -0.694  -0.649  -0.546  -0.490  -0.483  -0.457
 -0.410  -0.405  -0.309  -0.307  -0.262  -0.243  -0.243

          Ground-State Mulliken Net Atomic Charges

     Atom                 Charge (a.u.)    Spin (a.u.)
  --------------------------------------------------------
      1 Br                   -0.427569       0.000000
      2 Br                   -0.055190      -0.000000
      3 C                    -0.221364      -0.000000
      4 C                    -0.106708      -0.000000
      5 C                    -0.278497      -0.000000
      6 H                     0.181029       0.000000
      7 H                     0.181546       0.000000
      8 H                     0.192625      -0.000000
      9 H                     0.192874       0.000000
     10 H                     0.170566       0.000000
     11 H                     0.170689       0.000000
  --------------------------------------------------------
  Sum of atomic charges =    -0.000000

                    Cartesian Multipole Moments
 -----------------------------------------------------------------
    Charge (ESU x 10^10)
                -0.0000
    Dipole Moment (Debye)
         X       4.8643      Y      -4.1324      Z      -0.0952
       Tot       6.3833
    Quadrupole Moments (Debye-Ang)
        XX     -84.2561     XY       6.4161     YY     -55.5909
        XZ       0.2141     YZ      -0.0431     ZZ     -55.7803

 Final energy is   -5265.62485881671
 **  OPTIMIZATION CONVERGED  **
 Total job time:  52.34s(wall), 609.39s(cpu)
        *  Thank you very much for using Q-Chem.  Have a nice day.  *
