 Q-Chem 5.1, Q-Chem, Inc., Pleasanton, CA (2018)
 Q-Chem 5.1.1 for Intel X86 EM64T Linux

User input:
--------------------------------------------------------------

$comment
potential surface scanner
$end

$rem
JOBTYPE  PES_SCAN
UNRESTRICTED TRUE
SYM_IGNORE  TRUE
GEOM_OPT_MAX_CYCLES 400
SCF_MAX_CYCLES 400
METHOD   B3LYP
BASIS   6-31G**
PDB_PRINT 2
SCF_CONVERGENCE 6
THRESH 14
SCF_PRINT 1
$end
$molecule
0 1
Br -3.540042 0.893262 0.040769
Br 2.927009 0.577743 0.022490
C 0.055468 0.173391 0.016237
C -1.060838 -0.795200 -0.010599
C 1.377837 -0.637745 -0.003197
H 0.022176 0.782302 0.921830
H 0.024350 0.828886 -0.856298
H -1.383354 -1.240871 -0.945398
H -1.383980 -1.291266 0.898210
H 1.480108 -1.235576 -0.908316
H 1.481169 -1.276223 0.873674
$end
$scan
stre 1 4 3.100000 3.101000 0.100000
$end
--------------------------------------------------------------

   12   -5265.6430697335      6.69e-07  Convergence criterion met
 Total energy in the final basis set =    -5265.6430697335
   12   -5265.6363911573      4.56e-07  Convergence criterion met
 Total energy in the final basis set =    -5265.6363911573
   12   -5265.6363492531      4.97e-07  Convergence criterion met
 Total energy in the final basis set =    -5265.6363492531
   12   -5265.6365285666      5.33e-07  Convergence criterion met
 Total energy in the final basis set =    -5265.6365285666
   12   -5265.6365352753      5.45e-07  Convergence criterion met
 Total energy in the final basis set =    -5265.6365352753
   12   -5265.6365484005      5.84e-07  Convergence criterion met
 Total energy in the final basis set =    -5265.6365484005
   12   -5265.6365526252      6.02e-07  Convergence criterion met
 Total energy in the final basis set =    -5265.6365526252
   12   -5265.6365543229      6.11e-07  Convergence criterion met
 Total energy in the final basis set =    -5265.6365543229

             Standard Nuclear Orientation (Angstroms)
    I     Atom           X                Y                Z
 ----------------------------------------------------------------
    1      Br     -3.6130225395     0.9332457077     0.0319574283
    2      Br      2.9305940204     0.5841511757     0.0209229050
    3      C       0.0610119155     0.1661950061     0.0187893995
    4      C      -1.0479750866    -0.8071457175    -0.0076412636
    5      C       1.3889742644    -0.6395672459    -0.0050325284
    6      H       0.0283152736     0.7727331706     0.9260416241
    7      H       0.0267754921     0.8220730292    -0.8534238693
    8      H      -1.3800574020    -1.2454785738    -0.9427080934
    9      H      -1.3822712902    -1.2936075910     0.9025004729
   10      H       1.4914568040    -1.2342387467    -0.9120767265
   11      H       1.4961015483    -1.2796572145     0.8700726515
 ----------------------------------------------------------------

   12   -5265.6365547461      6.11e-07  Convergence criterion met
 Total energy in the final basis set =    -5265.6365547461

                    Orbital Energies (a.u.)
 --------------------------------------------------------------

 Alpha MOs
 -- Occupied --
*******-482.816 -62.538 -62.473 -56.360 -56.356 -56.356 -56.294
-56.290 -56.290 -10.312 -10.290 -10.252  -8.725  -8.658  -6.556
 -6.542  -6.542  -6.487  -6.476  -6.476  -2.649  -2.646  -2.645
 -2.635  -2.635  -2.580  -2.577  -2.577  -2.569  -2.569  -0.872
 -0.807  -0.708  -0.697  -0.646  -0.543  -0.485  -0.479  -0.455
 -0.406  -0.402  -0.307  -0.304  -0.271  -0.248  -0.248

 Beta MOs
 -- Occupied --
*******-482.816 -62.538 -62.473 -56.360 -56.356 -56.356 -56.294
-56.290 -56.290 -10.312 -10.290 -10.252  -8.725  -8.658  -6.556
 -6.542  -6.542  -6.487  -6.476  -6.476  -2.649  -2.646  -2.645
 -2.635  -2.635  -2.580  -2.577  -2.577  -2.569  -2.569  -0.872
 -0.807  -0.708  -0.697  -0.646  -0.543  -0.485  -0.479  -0.455
 -0.406  -0.402  -0.307  -0.304  -0.271  -0.248  -0.248

          Ground-State Mulliken Net Atomic Charges

     Atom                 Charge (a.u.)    Spin (a.u.)
  --------------------------------------------------------
      1 Br                   -0.408885       0.000000
      2 Br                   -0.059664      -0.000000
      3 C                    -0.215999      -0.000000
      4 C                    -0.114768      -0.000000
      5 C                    -0.278253      -0.000000
      6 H                     0.178413       0.000000
      7 H                     0.178838       0.000000
      8 H                     0.191134       0.000000
      9 H                     0.191099      -0.000000
     10 H                     0.169017       0.000000
     11 H                     0.169068       0.000000
  --------------------------------------------------------
  Sum of atomic charges =    -0.000000

                    Cartesian Multipole Moments
 -----------------------------------------------------------------
    Charge (ESU x 10^10)
                 0.0000
    Dipole Moment (Debye)
         X       4.2554      Y      -3.8535      Z      -0.0861
       Tot       5.7415
    Quadrupole Moments (Debye-Ang)
        XX     -81.5566     XY       5.3119     YY     -55.3014
        XZ       0.1725     YZ      -0.0323     ZZ     -55.8016

 Final energy is   -5265.63655474608
 **  OPTIMIZATION CONVERGED  **
 Total job time:  50.14s(wall), 582.86s(cpu)
        *  Thank you very much for using Q-Chem.  Have a nice day.  *
