 Q-Chem 5.1, Q-Chem, Inc., Pleasanton, CA (2018)
 Q-Chem 5.1.1 for Intel X86 EM64T Linux

User input:
--------------------------------------------------------------

$comment
potential surface scanner
$end

$rem
JOBTYPE  PES_SCAN
UNRESTRICTED TRUE
SYM_IGNORE  TRUE
GEOM_OPT_MAX_CYCLES 400
SCF_MAX_CYCLES 400
METHOD   B3LYP
BASIS   6-31G**
PDB_PRINT 2
SCF_CONVERGENCE 6
THRESH 14
SCF_PRINT 1
$end
$molecule
0 3
Br -4.168074 1.542104 0.007147
Br 2.906771 0.782450 0.014332
C 0.075133 0.044928 0.018888
C -0.969240 -1.022528 -0.004243
C 1.475625 -0.588460 -0.000514
H -0.017347 0.663954 0.917937
H -0.022998 0.706375 -0.848650
H -1.298317 -1.456209 -0.943102
H -1.284280 -1.510452 0.912491
H 1.646079 -1.175623 -0.902283
H 1.656547 -1.207838 0.877399
$end
$scan
stre 1 4 4.000000 4.001000 0.100000
$end
--------------------------------------------------------------

   17   -5265.6029613242      9.99e-07  Convergence criterion met
 Total energy in the final basis set =    -5265.6029613242
   16   -5265.6022192118      9.70e-07  Convergence criterion met
 Total energy in the final basis set =    -5265.6022192118
   33   -5265.6027024046      1.20e-07  Convergence criterion met
 Total energy in the final basis set =    -5265.6027024046
   37   -5265.6029172800      2.00e-07  Convergence criterion met
 Total energy in the final basis set =    -5265.6029172800
   37   -5265.6029392011      2.49e-07  Convergence criterion met
 Total energy in the final basis set =    -5265.6029392011
   37   -5265.6029685721      2.46e-08  Convergence criterion met
 Total energy in the final basis set =    -5265.6029685721
   35   -5265.6029708076      9.21e-07  Convergence criterion met
 Total energy in the final basis set =    -5265.6029708076
   32   -5265.6029801277      3.90e-07  Convergence criterion met
 Total energy in the final basis set =    -5265.6029801277
   19   -5265.6029455900      9.99e-07  Convergence criterion met
 Total energy in the final basis set =    -5265.6029455900
   19   -5265.6029469035      9.91e-07  Convergence criterion met
 Total energy in the final basis set =    -5265.6029469035

             Standard Nuclear Orientation (Angstroms)
    I     Atom           X                Y                Z
 ----------------------------------------------------------------
    1      Br     -4.0977078845     1.4894797651     0.0065262100
    2      Br      2.9035516060     0.7813394242     0.0146998350
    3      C       0.0709998545     0.0489828230     0.0186715276
    4      C      -0.9777294734    -1.0136436113    -0.0040558382
    5      C       1.4707123585    -0.5871432877    -0.0004143441
    6      H      -0.0199551680     0.6681796918     0.9179141646
    7      H      -0.0252494539     0.7102061910    -0.8493849905
    8      H      -1.3156286275    -1.4404511184    -0.9428220698
    9      H      -1.2982844469    -1.4974585596     0.9128349909
   10      H       1.6395576247    -1.1742893884    -0.9024461878
   11      H       1.6496326107    -1.2065009297     0.8778787023
 ----------------------------------------------------------------

   19   -5265.6029477033      9.91e-07  Convergence criterion met
 Total energy in the final basis set =    -5265.6029477033

                    Orbital Energies (a.u.)
 --------------------------------------------------------------

 Alpha MOs
 -- Occupied --
*******-482.848 -62.558 -62.507 -56.382 -56.375 -56.375 -56.328
-56.324 -56.324 -10.250 -10.213 -10.210  -8.745  -8.694  -6.582
 -6.560  -6.560  -6.524  -6.511  -6.511  -2.673  -2.667  -2.667
 -2.651  -2.651  -2.617  -2.613  -2.613  -2.604  -2.604  -0.829
 -0.798  -0.765  -0.668  -0.604  -0.495  -0.435  -0.432  -0.420
 -0.372  -0.363  -0.362  -0.324  -0.324  -0.279  -0.276  -0.225

 Beta MOs
 -- Occupied --
*******-482.848 -62.557 -62.507 -56.377 -56.374 -56.374 -56.328
-56.324 -56.324 -10.249 -10.211 -10.199  -8.741  -8.693  -6.571
 -6.558  -6.558  -6.523  -6.511  -6.511  -2.665  -2.661  -2.661
 -2.650  -2.650  -2.617  -2.613  -2.613  -2.603  -2.603  -0.824
 -0.755  -0.754  -0.652  -0.592  -0.492  -0.429  -0.427  -0.410
 -0.360  -0.357  -0.310  -0.310  -0.276  -0.275

          Ground-State Mulliken Net Atomic Charges

     Atom                 Charge (a.u.)    Spin (a.u.)
  --------------------------------------------------------
      1 Br                   -0.005988       1.001901
      2 Br                   -0.126100       0.032628
      3 C                    -0.197506      -0.073038
      4 C                    -0.235880       1.059581
      5 C                    -0.243751       0.044343
      6 H                     0.132141       0.013973
      7 H                     0.132294       0.013198
      8 H                     0.118993      -0.046363
      9 H                     0.118751      -0.046347
     10 H                     0.153552       0.000073
     11 H                     0.153493       0.000049
  --------------------------------------------------------
  Sum of atomic charges =    -0.000000

                    Cartesian Multipole Moments
 -----------------------------------------------------------------
    Charge (ESU x 10^10)
                -0.0000
    Dipole Moment (Debye)
         X      -1.6253      Y      -1.5312      Z      -0.0178
       Tot       2.2331
    Quadrupole Moments (Debye-Ang)
        XX     -62.7208     XY      -3.3039     YY     -55.2824
        XZ      -0.0015     YZ      -0.0429     ZZ     -56.1092

 Final energy is   -5265.60294770331
 **  OPTIMIZATION CONVERGED  **
 Total job time:  112.86s(wall), 1271.24s(cpu)
        *  Thank you very much for using Q-Chem.  Have a nice day.  *
