 Q-Chem 5.1, Q-Chem, Inc., Pleasanton, CA (2018)
 Q-Chem 5.1.1 for Intel X86 EM64T Linux

User input:
--------------------------------------------------------------

$comment
potential surface scanner
$end

$rem
JOBTYPE  PES_SCAN
UNRESTRICTED TRUE
SYM_IGNORE  TRUE
GEOM_OPT_MAX_CYCLES 400
SCF_MAX_CYCLES 400
METHOD   B3LYP
BASIS   6-31G**
PDB_PRINT 2
SCF_CONVERGENCE 6
THRESH 14
SCF_PRINT 1
$end
$molecule
0 1
Br -3.253610 0.749250 0.037478
Br 2.909060 0.554367 0.024890
C 0.031619 0.200146 0.015886
C -1.124530 -0.742334 -0.009320
C 1.330727 -0.629623 -0.003201
H 0.005652 0.814988 0.917736
H 0.007315 0.860517 -0.853234
H -1.379659 -1.240421 -0.938864
H -1.380180 -1.287740 0.893103
H 1.427333 -1.229471 -0.908058
H 1.426178 -1.270977 0.872985
$end
$scan
stre 1 4 2.700000 2.701000 0.100000
$end
--------------------------------------------------------------

   11   -5265.6735841442      3.76e-07  Convergence criterion met
 Total energy in the final basis set =    -5265.6735841442
   11   -5265.6654395158      5.57e-07  Convergence criterion met
 Total energy in the final basis set =    -5265.6654395158
   11   -5265.6642834292      6.63e-07  Convergence criterion met
 Total energy in the final basis set =    -5265.6642834292
   11   -5265.6653192878      6.07e-07  Convergence criterion met
 Total energy in the final basis set =    -5265.6653192878
   11   -5265.6653824410      5.89e-07  Convergence criterion met
 Total energy in the final basis set =    -5265.6653824410

             Standard Nuclear Orientation (Angstroms)
    I     Atom           X                Y                Z
 ----------------------------------------------------------------
    1      Br     -3.3210030766     0.7870528520     0.0381352116
    2      Br      2.9130147343     0.5621395624     0.0242962236
    3      C       0.0375471168     0.1924758623     0.0160706716
    4      C      -1.1072052640    -0.7578804906    -0.0096215107
    5      C       1.3432804189    -0.6314445652    -0.0031701187
    6      H       0.0086121835     0.8056657143     0.9188840607
    7      H       0.0104114776     0.8512360539    -0.8541183615
    8      H      -1.3832498788    -1.2400960437    -0.9412183857
    9      H      -1.3847446031    -1.2876776882     0.8952198248
   10      H       1.4418488689    -1.2306293607    -0.9081496547
   11      H       1.4413930225    -1.2721398965     0.8730730391
 ----------------------------------------------------------------

   11   -5265.6653830133      5.89e-07  Convergence criterion met
 Total energy in the final basis set =    -5265.6653830133

                    Orbital Energies (a.u.)
 --------------------------------------------------------------

 Alpha MOs
 -- Occupied --
*******-482.829 -62.531 -62.486 -56.353 -56.349 -56.349 -56.308
-56.304 -56.304 -10.301 -10.280 -10.242  -8.718  -8.672  -6.549
 -6.535  -6.535  -6.501  -6.490  -6.490  -2.642  -2.639  -2.638
 -2.628  -2.628  -2.594  -2.591  -2.591  -2.582  -2.582  -0.863
 -0.799  -0.719  -0.692  -0.638  -0.532  -0.473  -0.469  -0.448
 -0.396  -0.393  -0.305  -0.298  -0.292  -0.261  -0.261

 Beta MOs
 -- Occupied --
*******-482.829 -62.531 -62.486 -56.353 -56.349 -56.349 -56.308
-56.304 -56.304 -10.301 -10.280 -10.242  -8.718  -8.672  -6.549
 -6.535  -6.535  -6.501  -6.490  -6.490  -2.642  -2.639  -2.638
 -2.628  -2.628  -2.594  -2.591  -2.591  -2.582  -2.582  -0.863
 -0.799  -0.719  -0.692  -0.638  -0.532  -0.473  -0.469  -0.448
 -0.396  -0.393  -0.305  -0.298  -0.292  -0.261  -0.261

          Ground-State Mulliken Net Atomic Charges

     Atom                 Charge (a.u.)    Spin (a.u.)
  --------------------------------------------------------
      1 Br                   -0.334137      -0.000000
      2 Br                   -0.072670       0.000000
      3 C                    -0.200972      -0.000000
      4 C                    -0.155837       0.000000
      5 C                    -0.274730       0.000000
      6 H                     0.170035      -0.000000
      7 H                     0.169918       0.000000
      8 H                     0.184558       0.000000
      9 H                     0.184821       0.000000
     10 H                     0.164460      -0.000000
     11 H                     0.164555      -0.000000
  --------------------------------------------------------
  Sum of atomic charges =    -0.000000

                    Cartesian Multipole Moments
 -----------------------------------------------------------------
    Charge (ESU x 10^10)
                -0.0000
    Dipole Moment (Debye)
         X       2.7630      Y      -3.2564      Z      -0.0915
       Tot       4.2716
    Quadrupole Moments (Debye-Ang)
        XX     -75.9123     XY       3.1814     YY     -54.9143
        XZ       0.1434     YZ      -0.0152     ZZ     -55.8629

 Final energy is   -5265.66538301329
 **  OPTIMIZATION CONVERGED  **
 Total job time:  33.33s(wall), 379.66s(cpu)
        *  Thank you very much for using Q-Chem.  Have a nice day.  *
