 Q-Chem 5.1, Q-Chem, Inc., Pleasanton, CA (2018)
 Q-Chem 5.1.1 for Intel X86 EM64T Linux

User input:
--------------------------------------------------------------

$comment
potential surface scanner
$end

$rem
JOBTYPE  PES_SCAN
UNRESTRICTED TRUE
SYM_IGNORE  TRUE
GEOM_OPT_MAX_CYCLES 400
SCF_MAX_CYCLES 400
METHOD   B3LYP
BASIS   6-31G**
PDB_PRINT 2
SCF_CONVERGENCE 6
THRESH 14
SCF_PRINT 1
$end
$molecule
0 1
Br -3.465281 0.856882 0.046485
Br 2.922317 0.573048 0.023428
C 0.049415 0.179698 0.014613
C -1.074782 -0.783859 -0.012513
C 1.366813 -0.635649 -0.001974
H 0.016179 0.790518 0.918866
H 0.020692 0.835328 -0.857841
H -1.385778 -1.238450 -0.946877
H -1.385937 -1.289985 0.894828
H 1.468770 -1.235776 -0.905720
H 1.467496 -1.273052 0.876107
$end
$scan
stre 1 4 3.000000 3.001000 0.100000
$end
--------------------------------------------------------------

   11   -5265.6500612150      6.97e-07  Convergence criterion met
 Total energy in the final basis set =    -5265.6500612150
   12   -5265.6428833504      6.39e-07  Convergence criterion met
 Total energy in the final basis set =    -5265.6428833504
   12   -5265.6428676980      6.45e-07  Convergence criterion met
 Total energy in the final basis set =    -5265.6428676980
   12   -5265.6430470801      6.56e-07  Convergence criterion met
 Total energy in the final basis set =    -5265.6430470801
   12   -5265.6430537095      6.58e-07  Convergence criterion met
 Total energy in the final basis set =    -5265.6430537095
   12   -5265.6430647494      6.66e-07  Convergence criterion met
 Total energy in the final basis set =    -5265.6430647494
   12   -5265.6430679006      6.69e-07  Convergence criterion met
 Total energy in the final basis set =    -5265.6430679006
   12   -5265.6430693096      6.70e-07  Convergence criterion met
 Total energy in the final basis set =    -5265.6430693096

             Standard Nuclear Orientation (Angstroms)
    I     Atom           X                Y                Z
 ----------------------------------------------------------------
    1      Br     -3.5400421372     0.8932620007     0.0407690123
    2      Br      2.9270090889     0.5777431883     0.0224897836
    3      C       0.0554680862     0.1733911606     0.0162366547
    4      C      -1.0608376813    -0.7952002470    -0.0105992529
    5      C       1.3778371425    -0.6377453803    -0.0031972018
    6      H       0.0221763026     0.7823020423     0.9218300480
    7      H       0.0243495546     0.8288858038    -0.8562977944
    8      H      -1.3833539604    -1.2408706381    -0.9453977907
    9      H      -1.3839795023    -1.2912657475     0.8982103925
   10      H       1.4801080164    -1.2355758433    -0.9083158414
   11      H       1.4811690900    -1.2762233396     0.8736739901
 ----------------------------------------------------------------

   12   -5265.6430696982      6.69e-07  Convergence criterion met
 Total energy in the final basis set =    -5265.6430696982

                    Orbital Energies (a.u.)
 --------------------------------------------------------------

 Alpha MOs
 -- Occupied --
*******-482.818 -62.537 -62.476 -56.358 -56.354 -56.354 -56.297
-56.293 -56.293 -10.310 -10.288 -10.250  -8.724  -8.661  -6.555
 -6.541  -6.541  -6.490  -6.479  -6.479  -2.648  -2.644  -2.644
 -2.633  -2.633  -2.583  -2.580  -2.580  -2.572  -2.572  -0.870
 -0.805  -0.709  -0.697  -0.644  -0.540  -0.483  -0.477  -0.453
 -0.404  -0.400  -0.306  -0.303  -0.276  -0.251  -0.251

 Beta MOs
 -- Occupied --
*******-482.818 -62.537 -62.476 -56.358 -56.354 -56.354 -56.297
-56.293 -56.293 -10.310 -10.288 -10.250  -8.724  -8.661  -6.555
 -6.541  -6.541  -6.490  -6.479  -6.479  -2.648  -2.644  -2.644
 -2.633  -2.633  -2.583  -2.580  -2.580  -2.572  -2.572  -0.870
 -0.805  -0.709  -0.697  -0.644  -0.540  -0.483  -0.477  -0.453
 -0.404  -0.400  -0.306  -0.303  -0.276  -0.251  -0.251

          Ground-State Mulliken Net Atomic Charges

     Atom                 Charge (a.u.)    Spin (a.u.)
  --------------------------------------------------------
      1 Br                   -0.395303       0.000000
      2 Br                   -0.062383       0.000000
      3 C                    -0.212800       0.000000
      4 C                    -0.121830      -0.000000
      5 C                    -0.277786       0.000000
      6 H                     0.176977      -0.000000
      7 H                     0.176851      -0.000000
      8 H                     0.189998       0.000000
      9 H                     0.190102      -0.000000
     10 H                     0.168024      -0.000000
     11 H                     0.168151       0.000000
  --------------------------------------------------------
  Sum of atomic charges =    -0.000000

                    Cartesian Multipole Moments
 -----------------------------------------------------------------
    Charge (ESU x 10^10)
                 0.0000
    Dipole Moment (Debye)
         X       3.9141      Y      -3.7079      Z      -0.1032
       Tot       5.3925
    Quadrupole Moments (Debye-Ang)
        XX     -80.1600     XY       4.7674     YY     -55.1824
        XZ       0.2110     YZ      -0.0331     ZZ     -55.8155

 Final energy is   -5265.64306969822
 **  OPTIMIZATION CONVERGED  **
 Total job time:  50.83s(wall), 587.41s(cpu)
        *  Thank you very much for using Q-Chem.  Have a nice day.  *
