 Q-Chem 5.1, Q-Chem, Inc., Pleasanton, CA (2018)
 Q-Chem 5.1.1 for Intel X86 EM64T Linux

User input:
--------------------------------------------------------------

$comment
potential surface scanner
$end

$rem
JOBTYPE  PES_SCAN
UNRESTRICTED TRUE
SYM_IGNORE  TRUE
GEOM_OPT_MAX_CYCLES 400
SCF_MAX_CYCLES 400
METHOD   B3LYP
BASIS   6-31G**
PDB_PRINT 2
SCF_CONVERGENCE 6
THRESH 14
SCF_PRINT 1
$end
$molecule
0 3
Br -5.172990 2.335185 -0.000628
Br 2.931537 0.855747 0.012710
C 0.145439 -0.060352 0.023221
C -0.825179 -1.194198 -0.001333
C 1.583644 -0.599606 -0.004307
H 0.013511 0.548121 0.924512
H -0.001192 0.597335 -0.840590
H -1.134615 -1.641267 -0.940180
H -1.136504 -1.682494 0.915971
H 1.788429 -1.169792 -0.909718
H 1.807824 -1.209977 0.869740
$end
$scan
stre 1 4 5.500000 5.501000 0.100000
$end
--------------------------------------------------------------

   15   -5265.6027641770      6.06e-07  Convergence criterion met
 Total energy in the final basis set =    -5265.6027641770
   15   -5265.6021619154      6.75e-07  Convergence criterion met
 Total energy in the final basis set =    -5265.6021619154
   15   -5265.6025196372      6.70e-07  Convergence criterion met
 Total energy in the final basis set =    -5265.6025196372
   15   -5265.6026956646      6.71e-07  Convergence criterion met
 Total energy in the final basis set =    -5265.6026956646
   15   -5265.6027223038      6.77e-07  Convergence criterion met
 Total energy in the final basis set =    -5265.6027223038
   15   -5265.6027464856      6.88e-07  Convergence criterion met
 Total energy in the final basis set =    -5265.6027464856
   15   -5265.6027482508      6.87e-07  Convergence criterion met
 Total energy in the final basis set =    -5265.6027482508
   15   -5265.6027523154      6.81e-07  Convergence criterion met
 Total energy in the final basis set =    -5265.6027523154
   15   -5265.6027540909      6.75e-07  Convergence criterion met
 Total energy in the final basis set =    -5265.6027540909
   15   -5265.6027557650      6.69e-07  Convergence criterion met
 Total energy in the final basis set =    -5265.6027557650
   15   -5265.6027569506      6.64e-07  Convergence criterion met
 Total energy in the final basis set =    -5265.6027569506

             Standard Nuclear Orientation (Angstroms)
    I     Atom           X                Y                Z
 ----------------------------------------------------------------
    1      Br     -5.1044633024     2.2830254335     0.0006426404
    2      Br      2.9295604580     0.8519372608     0.0130692653
    3      C       0.1402141754    -0.0535398282     0.0224405881
    4      C      -0.8345911254    -1.1837005437    -0.0018184530
    5      C       1.5765382203    -0.5983647018    -0.0036451344
    6      H       0.0103333898     0.5555963263     0.9236108456
    7      H      -0.0030592006     0.6035300857    -0.8423797491
    8      H      -1.1470355582    -1.6284613959    -0.9406909716
    9      H      -1.1449834440    -1.6723457701     0.9155523594
   10      H       1.7796846203    -1.1700852603    -0.9084530215
   11      H       1.7977057668    -1.2088896063     0.8710696308
 ----------------------------------------------------------------

   15   -5265.6027578990      6.60e-07  Convergence criterion met
 Total energy in the final basis set =    -5265.6027578990

                    Orbital Energies (a.u.)
 --------------------------------------------------------------

 Alpha MOs
 -- Occupied --
*******-482.846 -62.560 -62.504 -56.384 -56.376 -56.376 -56.325
-56.322 -56.322 -10.248 -10.208 -10.207  -8.747  -8.691  -6.583
 -6.561  -6.561  -6.521  -6.509  -6.509  -2.674  -2.669  -2.669
 -2.652  -2.652  -2.615  -2.611  -2.611  -2.601  -2.601  -0.826
 -0.799  -0.762  -0.665  -0.600  -0.492  -0.432  -0.429  -0.417
 -0.374  -0.360  -0.359  -0.325  -0.325  -0.276  -0.273  -0.220

 Beta MOs
 -- Occupied --
*******-482.846 -62.558 -62.504 -56.378 -56.375 -56.375 -56.325
-56.322 -56.322 -10.246 -10.208 -10.195  -8.743  -8.691  -6.573
 -6.559  -6.559  -6.521  -6.509  -6.509  -2.666  -2.663  -2.663
 -2.651  -2.651  -2.615  -2.611  -2.611  -2.601  -2.601  -0.821
 -0.756  -0.752  -0.649  -0.588  -0.489  -0.426  -0.423  -0.407
 -0.357  -0.354  -0.311  -0.311  -0.274  -0.273

          Ground-State Mulliken Net Atomic Charges

     Atom                 Charge (a.u.)    Spin (a.u.)
  --------------------------------------------------------
      1 Br                   -0.000037       1.000081
      2 Br                   -0.131876       0.032352
      3 C                    -0.194521      -0.074149
      4 C                    -0.226195       1.065401
      5 C                    -0.242837       0.042825
      6 H                     0.129423       0.013445
      7 H                     0.129870       0.014187
      8 H                     0.115398      -0.047134
      9 H                     0.115565      -0.047141
     10 H                     0.152569       0.000028
     11 H                     0.152642       0.000105
  --------------------------------------------------------
  Sum of atomic charges =     0.000000

                    Cartesian Multipole Moments
 -----------------------------------------------------------------
    Charge (ESU x 10^10)
                -0.0000
    Dipole Moment (Debye)
         X      -1.7670      Y      -1.5979      Z      -0.0162
       Tot       2.3824
    Quadrupole Moments (Debye-Ang)
        XX     -63.3986     XY      -1.2963     YY     -54.4198
        XZ       0.0646     YZ       0.1385     ZZ     -56.1271

 Final energy is   -5265.60275789905
 **  OPTIMIZATION CONVERGED  **
 Total job time:  71.39s(wall), 823.43s(cpu)
        *  Thank you very much for using Q-Chem.  Have a nice day.  *
