 Q-Chem 5.1, Q-Chem, Inc., Pleasanton, CA (2018)
 Q-Chem 5.1.1 for Intel X86 EM64T Linux

User input:
--------------------------------------------------------------

$comment
potential surface scanner
$end

$rem
JOBTYPE  PES_SCAN
UNRESTRICTED TRUE
SYM_IGNORE  TRUE
GEOM_OPT_MAX_CYCLES 400
SCF_MAX_CYCLES 400
METHOD   B3LYP
BASIS   6-31G**
PDB_PRINT 2
SCF_CONVERGENCE 6
THRESH 14
SCF_PRINT 1
$end
$molecule
0 1
Br -2.957898 0.538748 0.023479
Br 2.895098 0.501351 0.022610
C 0.006182 0.239956 0.019055
C -1.225275 -0.647532 -0.004074
C 1.267672 -0.623023 -0.004078
H 0.000929 0.862648 0.917273
H 0.000611 0.908664 -0.845459
H -1.340609 -1.230567 -0.916376
H -1.341750 -1.276309 0.877301
H 1.346509 -1.224757 -0.910044
H 1.348431 -1.270479 0.869715
$end
$scan
stre 1 4 2.200000 2.201000 0.100000
$end
--------------------------------------------------------------

   10   -5265.7112004081      3.69e-07  Convergence criterion met
 Total energy in the final basis set =    -5265.7112004081
   10   -5265.7054156396      4.04e-07  Convergence criterion met
 Total energy in the final basis set =    -5265.7054156396
   10   -5265.7055024198      4.07e-07  Convergence criterion met
 Total energy in the final basis set =    -5265.7055024198
   10   -5265.7055763470      4.13e-07  Convergence criterion met
 Total energy in the final basis set =    -5265.7055763470
   10   -5265.7055778773      4.13e-07  Convergence criterion met
 Total energy in the final basis set =    -5265.7055778773

             Standard Nuclear Orientation (Angstroms)
    I     Atom           X                Y                Z
 ----------------------------------------------------------------
    1      Br     -3.0133052285     0.5827060188     0.0320228330
    2      Br      2.8973607533     0.5141348267     0.0248303081
    3      C       0.0113057952     0.2315403161     0.0165695466
    4      C      -1.2039862830    -0.6682378368    -0.0067586905
    5      C       1.2807509245    -0.6241033825    -0.0033793854
    6      H       0.0009255780     0.8528885884     0.9152493477
    7      H       0.0019908991     0.8982577909    -0.8490116778
    8      H      -1.3532567654    -1.2324067459    -0.9245185769
    9      H      -1.3508508189    -1.2802684785     0.8803637208
   10      H       1.3652183590    -1.2268591785    -0.9080217948
   11      H       1.3637467866    -1.2689519186     0.8720563692
 ----------------------------------------------------------------

   10   -5265.7055782903      4.13e-07  Convergence criterion met
 Total energy in the final basis set =    -5265.7055782903

                    Orbital Energies (a.u.)
 --------------------------------------------------------------

 Alpha MOs
 -- Occupied --
*******-482.850 -62.521 -62.508 -56.342 -56.338 -56.338 -56.330
-56.326 -56.326 -10.275 -10.266 -10.226  -8.708  -8.695  -6.538
 -6.525  -6.525  -6.524  -6.512  -6.512  -2.632  -2.628  -2.628
 -2.618  -2.617  -2.617  -2.614  -2.614  -2.604  -2.604  -0.850
 -0.795  -0.745  -0.676  -0.625  -0.516  -0.454  -0.453  -0.440
 -0.381  -0.380  -0.346  -0.291  -0.288  -0.279  -0.279

 Beta MOs
 -- Occupied --
*******-482.850 -62.521 -62.508 -56.342 -56.338 -56.338 -56.330
-56.326 -56.326 -10.275 -10.266 -10.226  -8.708  -8.695  -6.538
 -6.525  -6.525  -6.524  -6.512  -6.512  -2.632  -2.628  -2.628
 -2.618  -2.617  -2.617  -2.614  -2.614  -2.604  -2.604  -0.850
 -0.795  -0.745  -0.676  -0.625  -0.516  -0.454  -0.453  -0.440
 -0.381  -0.380  -0.346  -0.291  -0.288  -0.279  -0.279

          Ground-State Mulliken Net Atomic Charges

     Atom                 Charge (a.u.)    Spin (a.u.)
  --------------------------------------------------------
      1 Br                   -0.170240      -0.000000
      2 Br                   -0.093501       0.000000
      3 C                    -0.183847       0.000000
      4 C                    -0.242574       0.000000
      5 C                    -0.266621      -0.000000
      6 H                     0.153512      -0.000000
      7 H                     0.153425      -0.000000
      8 H                     0.167004       0.000000
      9 H                     0.166979      -0.000000
     10 H                     0.157919      -0.000000
     11 H                     0.157944      -0.000000
  --------------------------------------------------------
  Sum of atomic charges =     0.000000

                    Cartesian Multipole Moments
 -----------------------------------------------------------------
    Charge (ESU x 10^10)
                 0.0000
    Dipole Moment (Debye)
         X       0.7412      Y      -2.3705      Z      -0.0659
       Tot       2.4846
    Quadrupole Moments (Debye-Ang)
        XX     -69.6326     XY       0.7142     YY     -54.7573
        XZ       0.0411     YZ       0.0039     ZZ     -55.9228

 Final energy is   -5265.70557829031
 **  OPTIMIZATION CONVERGED  **
 Total job time:  31.64s(wall), 364.65s(cpu)
        *  Thank you very much for using Q-Chem.  Have a nice day.  *
