 Q-Chem 5.1, Q-Chem, Inc., Pleasanton, CA (2018)
 Q-Chem 5.1.1 for Intel X86 EM64T Linux

User input:
--------------------------------------------------------------

$comment
potential surface scanner
$end

$rem
JOBTYPE  PES_SCAN
UNRESTRICTED TRUE
SYM_IGNORE  TRUE
GEOM_OPT_MAX_CYCLES 400
SCF_MAX_CYCLES 400
METHOD   B3LYP
BASIS   6-31G**
PDB_PRINT 2
SCF_CONVERGENCE 6
THRESH 14
SCF_PRINT 1
$end
$molecule
0 3
Br -3.742909 1.118715 0.031256
Br 2.913195 0.733058 0.020186
C 0.055610 0.093882 0.011973
C -1.030414 -0.930817 -0.011146
C 1.431264 -0.589148 0.002515
H -0.017184 0.721190 0.907486
H -0.012464 0.755437 -0.858910
H -1.382080 -1.346714 -0.948768
H -1.388719 -1.382495 0.907052
H 1.586824 -1.184511 -0.896522
H 1.586777 -1.209893 0.884285
$end
$scan
stre 1 4 3.300000 3.301000 0.100000
$end
--------------------------------------------------------------

   15   -5265.6013363492      9.26e-07  Convergence criterion met
 Total energy in the final basis set =    -5265.6013363492
   32   -5265.6004384350      5.42e-07  Convergence criterion met
 Total energy in the final basis set =    -5265.6004384350
   35   -5265.6005631647      1.60e-07  Convergence criterion met
 Total energy in the final basis set =    -5265.6005631647
   37   -5265.6005867103      3.32e-07  Convergence criterion met
 Total energy in the final basis set =    -5265.6005867103
   38   -5265.6005911239      8.70e-07  Convergence criterion met
 Total energy in the final basis set =    -5265.6005911239
   15   -5265.6006736543      8.56e-07  Convergence criterion met
 Total energy in the final basis set =    -5265.6006736543
   15   -5265.6006874815      9.87e-07  Convergence criterion met
 Total energy in the final basis set =    -5265.6006874815
   40   -5265.6006362840      4.62e-07  Convergence criterion met
 Total energy in the final basis set =    -5265.6006362840
   16   -5265.6006929587      9.81e-07  Convergence criterion met
 Total energy in the final basis set =    -5265.6006929587

             Standard Nuclear Orientation (Angstroms)
    I     Atom           X                Y                Z
 ----------------------------------------------------------------
    1      Br     -3.7171229607     1.0358574358     0.0389535450
    2      Br      2.9251394788     0.7072285215     0.0227267378
    3      C       0.0564517986     0.1109630451     0.0094290295
    4      C      -1.0438345641    -0.8982652359    -0.0130096490
    5      C       1.4214098616    -0.5928998289     0.0036018514
    6      H      -0.0085115847     0.7410217348     0.9034351454
    7      H      -0.0006455360     0.7714280114    -0.8628628990
    8      H      -1.3811640501    -1.3284698222    -0.9500612695
    9      H      -1.3888103414    -1.3619077784     0.9049499639
   10      H       1.5704941455    -1.1916767966    -0.8943097395
   11      H       1.5664937526    -1.2145752867     0.8865542840
 ----------------------------------------------------------------

   15   -5265.6006937515      9.95e-07  Convergence criterion met
 Total energy in the final basis set =    -5265.6006937515

                    Orbital Energies (a.u.)
 --------------------------------------------------------------

 Alpha MOs
 -- Occupied --
*******-482.846 -62.560 -62.504 -56.384 -56.376 -56.376 -56.325
-56.322 -56.321 -10.247 -10.206 -10.205  -8.747  -8.691  -6.584
 -6.561  -6.561  -6.521  -6.509  -6.508  -2.674  -2.669  -2.669
 -2.653  -2.653  -2.615  -2.611  -2.611  -2.601  -2.601  -0.825
 -0.800  -0.761  -0.664  -0.600  -0.492  -0.431  -0.428  -0.417
 -0.374  -0.359  -0.358  -0.328  -0.326  -0.276  -0.273  -0.214

 Beta MOs
 -- Occupied --
*******-482.845 -62.558 -62.504 -56.378 -56.375 -56.375 -56.325
-56.321 -56.321 -10.246 -10.207 -10.192  -8.743  -8.691  -6.573
 -6.560  -6.559  -6.521  -6.508  -6.508  -2.666  -2.663  -2.663
 -2.651  -2.651  -2.614  -2.611  -2.611  -2.601  -2.601  -0.820
 -0.757  -0.751  -0.648  -0.588  -0.488  -0.425  -0.422  -0.407
 -0.356  -0.353  -0.311  -0.311  -0.274  -0.273

          Ground-State Mulliken Net Atomic Charges

     Atom                 Charge (a.u.)    Spin (a.u.)
  --------------------------------------------------------
      1 Br                    0.002120       1.015057
      2 Br                   -0.133529       0.035865
      3 C                    -0.194418      -0.072676
      4 C                    -0.219525       1.043177
      5 C                    -0.243967       0.042469
      6 H                     0.127516       0.013789
      7 H                     0.127921       0.013757
      8 H                     0.114295      -0.045804
      9 H                     0.114469      -0.045785
     10 H                     0.152562       0.000071
     11 H                     0.152557       0.000079
  --------------------------------------------------------
  Sum of atomic charges =     0.000000

                    Cartesian Multipole Moments
 -----------------------------------------------------------------
    Charge (ESU x 10^10)
                 0.0000
    Dipole Moment (Debye)
         X      -1.9497      Y      -1.4546      Z      -0.0239
       Tot       2.4327
    Quadrupole Moments (Debye-Ang)
        XX     -63.3334     XY      -0.4298     YY     -54.8915
        XZ       0.0033     YZ       0.0457     ZZ     -56.1755

 Final energy is   -5265.60069375150
 **  OPTIMIZATION CONVERGED  **
 Total job time:  98.59s(wall), 1153.28s(cpu)
        *  Thank you very much for using Q-Chem.  Have a nice day.  *
