 Q-Chem 5.1, Q-Chem, Inc., Pleasanton, CA (2018)
 Q-Chem 5.1.1 for Intel X86 EM64T Linux

User input:
--------------------------------------------------------------

$comment
potential surface scanner
$end

$rem
JOBTYPE  PES_SCAN
UNRESTRICTED TRUE
SYM_IGNORE  TRUE
GEOM_OPT_MAX_CYCLES 400
SCF_MAX_CYCLES 400
METHOD   B3LYP
BASIS   6-31G**
PDB_PRINT 2
SCF_CONVERGENCE 6
THRESH 14
SCF_PRINT 1
$end
$molecule
0 3
Br -2.697885 1.095523 0.860170
Br 2.710089 0.905242 0.172841
C -0.048705 0.032861 -0.272005
C -1.077077 -1.041766 -0.242092
C 1.320849 -0.496266 0.169981
H -0.306040 0.870137 0.420966
H 0.018874 0.490558 -1.263065
H -1.691493 -1.258049 -1.106933
H -1.202970 -1.660499 0.639615
H 1.678151 -1.265809 -0.514604
H 1.296107 -0.893227 1.184534
$end
$scan
stre 1 4 2.800000 2.801000 0.100000
$end
--------------------------------------------------------------

   15   -5265.5966666623      6.63e-07  Convergence criterion met
 Total energy in the final basis set =    -5265.5966666623
   15   -5265.5939804674      6.99e-07  Convergence criterion met
 Total energy in the final basis set =    -5265.5939804674
   15   -5265.5939901571      6.01e-07  Convergence criterion met
 Total energy in the final basis set =    -5265.5939901571
   15   -5265.5940082832      5.25e-07  Convergence criterion met
 Total energy in the final basis set =    -5265.5940082832
   15   -5265.5940121213      5.19e-07  Convergence criterion met
 Total energy in the final basis set =    -5265.5940121213
   15   -5265.5940160181      5.33e-07  Convergence criterion met
 Total energy in the final basis set =    -5265.5940160181

             Standard Nuclear Orientation (Angstroms)
    I     Atom           X                Y                Z
 ----------------------------------------------------------------
    1      Br     -2.6801206415     1.0293685205     0.8294763450
    2      Br      2.7183705961     0.8912806839     0.1674726506
    3      C      -0.0504828286     0.0450333428    -0.2682386433
    4      C      -1.0898760273    -1.0178932496    -0.2287494776
    5      C       1.3157190010    -0.4970651171     0.1701523608
    6      H      -0.2916738983     0.8902187989     0.4230958338
    7      H       0.0158681084     0.4992954968    -1.2609772190
    8      H      -1.6912784708    -1.2487249360    -1.0987190854
    9      H      -1.1987181864    -1.6493868956     0.6459622805
   10      H       1.6623019310    -1.2707829471    -0.5152332391
   11      H       1.2897904165    -0.8926386976     1.1851661937
 ----------------------------------------------------------------

   15   -5265.5940166984      5.45e-07  Convergence criterion met
 Total energy in the final basis set =    -5265.5940166984

                    Orbital Energies (a.u.)
 --------------------------------------------------------------

 Alpha MOs
 -- Occupied --
*******-482.856 -62.544 -62.514 -56.368 -56.361 -56.361 -56.336
-56.332 -56.332 -10.258 -10.226 -10.208  -8.731  -8.701  -6.567
 -6.547  -6.546  -6.532  -6.519  -6.519  -2.658  -2.653  -2.653
 -2.638  -2.638  -2.625  -2.621  -2.621  -2.611  -2.611  -0.841
 -0.793  -0.769  -0.674  -0.613  -0.503  -0.454  -0.441  -0.427
 -0.379  -0.371  -0.339  -0.324  -0.314  -0.285  -0.282  -0.209

 Beta MOs
 -- Occupied --
*******-482.856 -62.542 -62.514 -56.362 -56.360 -56.359 -56.335
-56.332 -56.332 -10.257 -10.226 -10.194  -8.727  -8.701  -6.556
 -6.544  -6.544  -6.531  -6.519  -6.519  -2.650  -2.647  -2.647
 -2.637  -2.637  -2.625  -2.621  -2.621  -2.611  -2.611  -0.834
 -0.768  -0.742  -0.658  -0.598  -0.496  -0.445  -0.434  -0.408
 -0.372  -0.365  -0.302  -0.300  -0.283  -0.282

          Ground-State Mulliken Net Atomic Charges

     Atom                 Charge (a.u.)    Spin (a.u.)
  --------------------------------------------------------
      1 Br                   -0.043666       0.947723
      2 Br                   -0.108347       0.027735
      3 C                    -0.210651      -0.015659
      4 C                    -0.244242       1.014719
      5 C                    -0.251454       0.040192
      6 H                     0.135942       0.063814
      7 H                     0.145310       0.003643
      8 H                     0.129428      -0.045633
      9 H                     0.123059      -0.045122
     10 H                     0.164968       0.010030
     11 H                     0.159653      -0.001443
  --------------------------------------------------------
  Sum of atomic charges =    -0.000000

                    Cartesian Multipole Moments
 -----------------------------------------------------------------
    Charge (ESU x 10^10)
                -0.0000
    Dipole Moment (Debye)
         X      -0.8301      Y      -1.8071      Z      -0.4104
       Tot       2.0305
    Quadrupole Moments (Debye-Ang)
        XX     -61.4689     XY      -1.1246     YY     -57.0459
        XZ       0.2362     YZ      -0.7593     ZZ     -56.2223

 Final energy is   -5265.59401669844
 **  OPTIMIZATION CONVERGED  **
 Total job time:  49.07s(wall), 570.57s(cpu)
        *  Thank you very much for using Q-Chem.  Have a nice day.  *
