 Q-Chem 5.1, Q-Chem, Inc., Pleasanton, CA (2018)
 Q-Chem 5.1.1 for Intel X86 EM64T Linux

User input:
--------------------------------------------------------------

$comment
potential surface scanner
$end

$rem
JOBTYPE  PES_SCAN
UNRESTRICTED TRUE
SYM_IGNORE  TRUE
GEOM_OPT_MAX_CYCLES 400
SCF_MAX_CYCLES 400
METHOD   B3LYP
BASIS   6-31G**
PDB_PRINT 2
SCF_CONVERGENCE 6
THRESH 14
SCF_PRINT 1
$end
$molecule
0 1
Br -2.833200 0.507100 -0.012400
Br 2.833200 0.507100 -0.012500
C 0.000000 0.236900 0.032600
C -1.249900 -0.625600 -0.004000
C 1.249800 -0.625500 -0.003800
H 0.000000 0.860400 0.936100
H 0.000100 0.929600 -0.819100
H -1.300300 -1.235900 -0.909900
H -1.328900 -1.269800 0.875900
H 1.300200 -1.236000 -0.909700
H 1.328900 -1.269600 0.876200
$end
$scan
stre 1 4 3.400000 3.401000 0.100000
$end
--------------------------------------------------------------

    9   -5265.7130673012      5.26e-07  Convergence criterion met
 Total energy in the final basis set =    -5265.7130673012
   10   -5265.7103419285      3.62e-07  Convergence criterion met
 Total energy in the final basis set =    -5265.7103419285
   10   -5265.7004159107      4.95e-07  Convergence criterion met
 Total energy in the final basis set =    -5265.7004159107
   11   -5265.6887816216      1.28e-07  Convergence criterion met
 Total energy in the final basis set =    -5265.6887816216
   11   -5265.6772527924      2.89e-07  Convergence criterion met
 Total energy in the final basis set =    -5265.6772527924
   11   -5265.6661831981      4.55e-07  Convergence criterion met
 Total energy in the final basis set =    -5265.6661831981
   12   -5265.6556464166      1.80e-07  Convergence criterion met
 Total energy in the final basis set =    -5265.6556464166
   11   -5265.6456341778      8.18e-07  Convergence criterion met
   12   -5265.6362565457      5.24e-07  Convergence criterion met
 Total energy in the final basis set =    -5265.6362565457
   13   -5265.6275437690      5.26e-07  Convergence criterion met
 Total energy in the final basis set =    -5265.6275437690
   13   -5265.6198455304      7.87e-07  Convergence criterion met
 Total energy in the final basis set =    -5265.6198455304
   13   -5265.6195716334      8.51e-07  Convergence criterion met
 Total energy in the final basis set =    -5265.6195716334
   13   -5265.6196025669      8.69e-07  Convergence criterion met
 Total energy in the final basis set =    -5265.6196025669
   13   -5265.6196053138      8.84e-07  Convergence criterion met
 Total energy in the final basis set =    -5265.6196053138

             Standard Nuclear Orientation (Angstroms)
    I     Atom           X                Y                Z
 ----------------------------------------------------------------
    1      Br     -3.8273825015     1.0656014747     0.0061154992
    2      Br      2.9388998081     0.6072916498     0.0100010580
    3      C       0.0768335881     0.1418742685     0.0238134858
    4      C      -1.0142092027    -0.8438317852    -0.0047167953
    5      C       1.4222634761    -0.6441831033    -0.0033469134
    6      H       0.0404377772     0.7445023409     0.9337552020
    7      H       0.0372440419     0.7972181210    -0.8491078692
    8      H      -1.3618113067    -1.2687168738    -0.9409825358
    9      H      -1.3820090903    -1.3026025088     0.9073802299
   10      H       1.5279159802    -1.2410473500    -0.9083125584
   11      H       1.5417174296    -1.2774062339     0.8748011972
 ----------------------------------------------------------------

   13   -5265.6196072578      9.05e-07  Convergence criterion met
 Total energy in the final basis set =    -5265.6196072578

                    Orbital Energies (a.u.)
 --------------------------------------------------------------

 Alpha MOs
 -- Occupied --
*******-482.809 -62.542 -62.466 -56.363 -56.359 -56.359 -56.287
-56.283 -56.283 -10.317 -10.295 -10.258  -8.729  -8.651  -6.560
 -6.546  -6.546  -6.480  -6.469  -6.469  -2.653  -2.649  -2.649
 -2.638  -2.638  -2.573  -2.570  -2.570  -2.562  -2.562  -0.877
 -0.812  -0.711  -0.692  -0.650  -0.548  -0.492  -0.484  -0.458
 -0.411  -0.406  -0.310  -0.308  -0.258  -0.241  -0.241

 Beta MOs
 -- Occupied --
*******-482.809 -62.542 -62.466 -56.363 -56.359 -56.359 -56.287
-56.283 -56.283 -10.317 -10.295 -10.258  -8.729  -8.651  -6.560
 -6.546  -6.546  -6.480  -6.469  -6.469  -2.653  -2.649  -2.649
 -2.638  -2.638  -2.573  -2.570  -2.570  -2.562  -2.562  -0.877
 -0.812  -0.711  -0.692  -0.650  -0.548  -0.492  -0.484  -0.458
 -0.411  -0.406  -0.310  -0.308  -0.258  -0.241  -0.241

          Ground-State Mulliken Net Atomic Charges

     Atom                 Charge (a.u.)    Spin (a.u.)
  --------------------------------------------------------
      1 Br                   -0.433389       0.000000
      2 Br                   -0.053452       0.000000
      3 C                    -0.223297       0.000000
      4 C                    -0.104726      -0.000000
      5 C                    -0.278464       0.000000
      6 H                     0.181221      -0.000000
      7 H                     0.183283      -0.000000
      8 H                     0.192968      -0.000000
      9 H                     0.193353      -0.000000
     10 H                     0.171112      -0.000000
     11 H                     0.171391      -0.000000
  --------------------------------------------------------
  Sum of atomic charges =     0.000000

                    Cartesian Multipole Moments
 -----------------------------------------------------------------
    Charge (ESU x 10^10)
                -0.0000
    Dipole Moment (Debye)
         X       5.1317      Y      -4.2739      Z      -0.0229
       Tot       6.6784
    Quadrupole Moments (Debye-Ang)
        XX     -85.5513     XY       6.9992     YY     -55.7658
        XZ       0.0280     YZ      -0.0093     ZZ     -55.7698

 Final energy is   -5265.61960725781
 **  OPTIMIZATION CONVERGED  **
 Total job time:  83.26s(wall), 969.67s(cpu)
        *  Thank you very much for using Q-Chem.  Have a nice day.  *
