 Q-Chem 5.1, Q-Chem, Inc., Pleasanton, CA (2018)
 Q-Chem 5.1.1 for Intel X86 EM64T Linux

User input:
--------------------------------------------------------------

$comment
potential surface scanner
$end

$rem
JOBTYPE  PES_SCAN
UNRESTRICTED TRUE
SYM_IGNORE  TRUE
GEOM_OPT_MAX_CYCLES 400
SCF_MAX_CYCLES 400
METHOD   B3LYP
BASIS   6-31G**
PDB_PRINT 2
SCF_CONVERGENCE 6
THRESH 14
SCF_PRINT 1
$end
$molecule
0 3
Br -4.664724 1.890142 0.004758
Br 2.930276 0.804619 0.013530
C 0.114985 -0.001224 0.019932
C -0.903811 -1.092385 -0.003499
C 1.530662 -0.598628 -0.001293
H 0.006564 0.615313 0.918991
H -0.001482 0.659435 -0.846059
H -1.233586 -1.525432 -0.942242
H -1.220885 -1.578519 0.913305
H 1.714457 -1.180452 -0.903857
H 1.727448 -1.214169 0.875833
$end
$scan
stre 1 4 4.700000 4.701000 0.100000
$end
--------------------------------------------------------------

   15   -5265.6028604868      7.06e-07  Convergence criterion met
 Total energy in the final basis set =    -5265.6028604868
   15   -5265.6022262348      6.57e-07  Convergence criterion met
 Total energy in the final basis set =    -5265.6022262348
   15   -5265.6026344395      6.55e-07  Convergence criterion met
 Total energy in the final basis set =    -5265.6026344395
   15   -5265.6028328204      6.70e-07  Convergence criterion met
 Total energy in the final basis set =    -5265.6028328204
   15   -5265.6028562001      6.75e-07  Convergence criterion met
 Total energy in the final basis set =    -5265.6028562001
   15   -5265.6028814276      6.90e-07  Convergence criterion met
 Total energy in the final basis set =    -5265.6028814276
   15   -5265.6028830288      6.92e-07  Convergence criterion met
 Total energy in the final basis set =    -5265.6028830288
   15   -5265.6028878832      6.99e-07  Convergence criterion met
 Total energy in the final basis set =    -5265.6028878832
   15   -5265.6028892417      7.01e-07  Convergence criterion met
 Total energy in the final basis set =    -5265.6028892417
   15   -5265.6028910181      7.04e-07  Convergence criterion met
 Total energy in the final basis set =    -5265.6028910181
   15   -5265.6028922129      7.07e-07  Convergence criterion met
 Total energy in the final basis set =    -5265.6028922129

             Standard Nuclear Orientation (Angstroms)
    I     Atom           X                Y                Z
 ----------------------------------------------------------------
    1      Br     -4.5937148452     1.8404009871     0.0048414042
    2      Br      2.9269947941     0.8015366251     0.0135666355
    3      C       0.1093524534     0.0052936894     0.0198915003
    4      C      -0.9130873984    -1.0824256646    -0.0035016485
    5      C       1.5230581438    -0.5972511362    -0.0012480686
    6      H       0.0030804821     0.6219080212     0.9191435772
    7      H      -0.0046655923     0.6659396618    -0.8464291582
    8      H      -1.2430147035    -1.5152175093    -0.9423283870
    9      H      -1.2302529028    -1.5684991793     0.9133192006
   10      H       1.7046667706    -1.1796509875    -0.9038672971
   11      H       1.7174867982    -1.2133345076     0.8760112415
 ----------------------------------------------------------------

   15   -5265.6028930641      7.10e-07  Convergence criterion met
 Total energy in the final basis set =    -5265.6028930641

                    Orbital Energies (a.u.)
 --------------------------------------------------------------

 Alpha MOs
 -- Occupied --
*******-482.847 -62.559 -62.505 -56.384 -56.376 -56.376 -56.327
-56.323 -56.323 -10.249 -10.211 -10.209  -8.747  -8.692  -6.583
 -6.561  -6.561  -6.523  -6.510  -6.510  -2.674  -2.669  -2.669
 -2.652  -2.652  -2.616  -2.612  -2.612  -2.602  -2.602  -0.828
 -0.799  -0.764  -0.667  -0.602  -0.494  -0.434  -0.431  -0.418
 -0.373  -0.361  -0.360  -0.325  -0.325  -0.277  -0.274  -0.223

 Beta MOs
 -- Occupied --
*******-482.847 -62.558 -62.505 -56.378 -56.375 -56.375 -56.326
-56.323 -56.323 -10.247 -10.209 -10.198  -8.743  -8.692  -6.572
 -6.559  -6.559  -6.522  -6.510  -6.510  -2.666  -2.663  -2.663
 -2.651  -2.651  -2.616  -2.612  -2.612  -2.602  -2.602  -0.822
 -0.756  -0.754  -0.651  -0.590  -0.491  -0.428  -0.425  -0.408
 -0.358  -0.356  -0.311  -0.311  -0.275  -0.274

          Ground-State Mulliken Net Atomic Charges

     Atom                 Charge (a.u.)    Spin (a.u.)
  --------------------------------------------------------
      1 Br                   -0.001170       1.000703
      2 Br                   -0.128710       0.031941
      3 C                    -0.195831      -0.073752
      4 C                    -0.231758       1.064250
      5 C                    -0.242968       0.043204
      6 H                     0.130712       0.013757
      7 H                     0.130958       0.013443
      8 H                     0.116495      -0.046845
      9 H                     0.116429      -0.046832
     10 H                     0.152926       0.000063
     11 H                     0.152915       0.000068
  --------------------------------------------------------
  Sum of atomic charges =    -0.000000

                    Cartesian Multipole Moments
 -----------------------------------------------------------------
    Charge (ESU x 10^10)
                -0.0000
    Dipole Moment (Debye)
         X      -1.7234      Y      -1.5275      Z      -0.0161
       Tot       2.3030
    Quadrupole Moments (Debye-Ang)
        XX     -63.2630     XY      -3.5034     YY     -54.5806
        XZ      -0.0139     YZ      -0.0335     ZZ     -56.1300

 Final energy is   -5265.60289306406
 **  OPTIMIZATION CONVERGED  **
 Total job time:  72.41s(wall), 843.35s(cpu)
        *  Thank you very much for using Q-Chem.  Have a nice day.  *
