 Q-Chem 5.1, Q-Chem, Inc., Pleasanton, CA (2018)
 Q-Chem 5.1.1 for Intel X86 EM64T Linux

User input:
--------------------------------------------------------------

$comment
potential surface scanner
$end

$rem
JOBTYPE  PES_SCAN
UNRESTRICTED TRUE
SYM_IGNORE  TRUE
GEOM_OPT_MAX_CYCLES 400
SCF_MAX_CYCLES 400
METHOD   B3LYP
BASIS   6-31G**
PDB_PRINT 2
SCF_CONVERGENCE 6
THRESH 14
SCF_PRINT 1
$end
$molecule
0 1
Br -3.613023 0.933246 0.031957
Br 2.930594 0.584151 0.020923
C 0.061012 0.166195 0.018789
C -1.047975 -0.807146 -0.007641
C 1.388974 -0.639567 -0.005033
H 0.028315 0.772733 0.926042
H 0.026775 0.822073 -0.853424
H -1.380057 -1.245479 -0.942708
H -1.382271 -1.293608 0.902500
H 1.491457 -1.234239 -0.912077
H 1.496102 -1.279657 0.870073
$end
$scan
stre 1 4 3.200000 3.201000 0.100000
$end
--------------------------------------------------------------

   12   -5265.6365546982      6.11e-07  Convergence criterion met
 Total energy in the final basis set =    -5265.6365546982
   13   -5265.6303523869      4.91e-07  Convergence criterion met
 Total energy in the final basis set =    -5265.6303523869
   13   -5265.6303033166      4.93e-07  Convergence criterion met
 Total energy in the final basis set =    -5265.6303033166
   13   -5265.6304689029      4.91e-07  Convergence criterion met
 Total energy in the final basis set =    -5265.6304689029
   13   -5265.6304757326      4.92e-07  Convergence criterion met
 Total energy in the final basis set =    -5265.6304757326
   13   -5265.6304903936      4.93e-07  Convergence criterion met
 Total energy in the final basis set =    -5265.6304903936
   13   -5265.6304951803      4.94e-07  Convergence criterion met
 Total energy in the final basis set =    -5265.6304951803
   13   -5265.6304970588      4.93e-07  Convergence criterion met
 Total energy in the final basis set =    -5265.6304970588

             Standard Nuclear Orientation (Angstroms)
    I     Atom           X                Y                Z
 ----------------------------------------------------------------
    1      Br     -3.6846609547     0.9759235364     0.0293400566
    2      Br      2.9333942971     0.5921485642     0.0199167750
    3      C       0.0664423780     0.1580230566     0.0198239196
    4      C      -1.0361043528    -0.8195826844    -0.0067768110
    5      C       1.4004352313    -0.6411422143    -0.0057537520
    6      H       0.0328324527     0.7631126058     0.9281028906
    7      H       0.0298208371     0.8137715685    -0.8525321147
    8      H      -1.3768176901    -1.2508406095    -0.9422065660
    9      H      -1.3810932747    -1.2973471708     0.9041181412
   10      H       1.5046495162    -1.2342399754    -0.9135260338
   11      H       1.5110045598    -1.2811246771     0.8688944943
 ----------------------------------------------------------------

   13   -5265.6304974806      4.93e-07  Convergence criterion met
 Total energy in the final basis set =    -5265.6304974806

                    Orbital Energies (a.u.)
 --------------------------------------------------------------

 Alpha MOs
 -- Occupied --
*******-482.813 -62.540 -62.470 -56.361 -56.357 -56.357 -56.291
-56.288 -56.288 -10.314 -10.292 -10.254  -8.727  -8.656  -6.557
 -6.544  -6.544  -6.484  -6.473  -6.473  -2.651  -2.647  -2.647
 -2.636  -2.636  -2.578  -2.575  -2.575  -2.566  -2.566  -0.874
 -0.809  -0.709  -0.695  -0.648  -0.545  -0.488  -0.481  -0.456
 -0.408  -0.404  -0.308  -0.305  -0.266  -0.245  -0.245

 Beta MOs
 -- Occupied --
*******-482.813 -62.540 -62.470 -56.361 -56.357 -56.357 -56.291
-56.288 -56.288 -10.314 -10.292 -10.254  -8.727  -8.656  -6.557
 -6.544  -6.544  -6.484  -6.473  -6.473  -2.651  -2.647  -2.647
 -2.636  -2.636  -2.578  -2.575  -2.575  -2.566  -2.566  -0.874
 -0.809  -0.709  -0.695  -0.648  -0.545  -0.488  -0.481  -0.456
 -0.408  -0.404  -0.308  -0.305  -0.266  -0.245  -0.245

          Ground-State Mulliken Net Atomic Charges

     Atom                 Charge (a.u.)    Spin (a.u.)
  --------------------------------------------------------
      1 Br                   -0.419374       0.000000
      2 Br                   -0.057266      -0.000000
      3 C                    -0.218866       0.000000
      4 C                    -0.109975      -0.000000
      5 C                    -0.278496      -0.000000
      6 H                     0.179745       0.000000
      7 H                     0.180450      -0.000000
      8 H                     0.192003       0.000000
      9 H                     0.192019      -0.000000
     10 H                     0.169857       0.000000
     11 H                     0.169902       0.000000
  --------------------------------------------------------
  Sum of atomic charges =    -0.000000

                    Cartesian Multipole Moments
 -----------------------------------------------------------------
    Charge (ESU x 10^10)
                -0.0000
    Dipole Moment (Debye)
         X       4.5680      Y      -3.9966      Z      -0.0809
       Tot       6.0701
    Quadrupole Moments (Debye-Ang)
        XX     -82.8999     XY       5.8638     YY     -55.4385
        XZ       0.1650     YZ      -0.0340     ZZ     -55.7901

 Final energy is   -5265.63049748059
 **  OPTIMIZATION CONVERGED  **
 Total job time:  52.62s(wall), 609.56s(cpu)
        *  Thank you very much for using Q-Chem.  Have a nice day.  *
