 Q-Chem 5.1, Q-Chem, Inc., Pleasanton, CA (2018)
 Q-Chem 5.1.1 for Intel X86 EM64T Linux

User input:
--------------------------------------------------------------

$comment
potential surface scanner
$end

$rem
JOBTYPE  PES_SCAN
UNRESTRICTED TRUE
SYM_IGNORE  TRUE
GEOM_OPT_MAX_CYCLES 400
SCF_MAX_CYCLES 400
METHOD   B3LYP
BASIS   6-31G**
PDB_PRINT 2
SCF_CONVERGENCE 6
THRESH 14
SCF_PRINT 1
$end
$molecule
0 3
Br -4.097708 1.489480 0.006526
Br 2.903552 0.781339 0.014700
C 0.071000 0.048983 0.018672
C -0.977729 -1.013644 -0.004056
C 1.470712 -0.587143 -0.000414
H -0.019955 0.668180 0.917914
H -0.025249 0.710206 -0.849385
H -1.315629 -1.440451 -0.942822
H -1.298284 -1.497459 0.912835
H 1.639558 -1.174289 -0.902446
H 1.649633 -1.206501 0.877879
$end
$scan
stre 1 4 3.900000 3.901000 0.100000
$end
--------------------------------------------------------------

   19   -5265.6029477029      9.91e-07  Convergence criterion met
 Total energy in the final basis set =    -5265.6029477029
   33   -5265.6024123718      1.48e-07  Convergence criterion met
 Total energy in the final basis set =    -5265.6024123718
   15   -5265.6023264669      5.86e-07  Convergence criterion met
 Total energy in the final basis set =    -5265.6023264669
   15   -5265.6024722842      6.52e-07  Convergence criterion met
 Total energy in the final basis set =    -5265.6024722842
   15   -5265.6024848267      6.40e-07  Convergence criterion met
 Total energy in the final basis set =    -5265.6024848267
   15   -5265.6025078344      6.37e-07  Convergence criterion met
 Total energy in the final basis set =    -5265.6025078344
   15   -5265.6025237812      6.48e-07  Convergence criterion met
 Total energy in the final basis set =    -5265.6025237812
   15   -5265.6025375449      6.66e-07  Convergence criterion met
 Total energy in the final basis set =    -5265.6025375449
   15   -5265.6025453102      6.78e-07  Convergence criterion met
 Total energy in the final basis set =    -5265.6025453102
   15   -5265.6025485931      6.79e-07  Convergence criterion met
 Total energy in the final basis set =    -5265.6025485931
   15   -5265.6025497170      6.75e-07  Convergence criterion met
 Total energy in the final basis set =    -5265.6025497170

             Standard Nuclear Orientation (Angstroms)
    I     Atom           X                Y                Z
 ----------------------------------------------------------------
    1      Br     -4.0516508654     1.4107412084     0.0036692226
    2      Br      2.9107575875     0.7711941620     0.0149366431
    3      C       0.0737172810     0.0550359840     0.0191014584
    4      C      -0.9844430853    -0.9980324655    -0.0033547318
    5      C       1.4681766894    -0.5899014060    -0.0008418769
    6      H      -0.0124619528     0.6758473408     0.9174929931
    7      H      -0.0183366321     0.7183840280    -0.8475192794
    8      H      -1.3425184700    -1.4086073736    -0.9415353957
    9      H      -1.3234435004    -1.4674899267     0.9140501219
   10      H       1.6348187495    -1.1773418819    -0.9031694627
   11      H       1.6452851985    -1.2111286696     0.8765733074
 ----------------------------------------------------------------

   15   -5265.6025505449      6.67e-07  Convergence criterion met
 Total energy in the final basis set =    -5265.6025505449

                    Orbital Energies (a.u.)
 --------------------------------------------------------------

 Alpha MOs
 -- Occupied --
*******-482.845 -62.560 -62.504 -56.384 -56.377 -56.377 -56.325
-56.321 -56.321 -10.247 -10.208 -10.206  -8.747  -8.691  -6.584
 -6.562  -6.562  -6.521  -6.508  -6.508  -2.675  -2.669  -2.669
 -2.653  -2.653  -2.615  -2.611  -2.611  -2.601  -2.601  -0.825
 -0.800  -0.762  -0.665  -0.600  -0.491  -0.431  -0.428  -0.416
 -0.374  -0.359  -0.358  -0.326  -0.325  -0.276  -0.273  -0.218

 Beta MOs
 -- Occupied --
*******-482.845 -62.558 -62.504 -56.379 -56.376 -56.376 -56.325
-56.321 -56.321 -10.245 -10.207 -10.194  -8.743  -8.691  -6.573
 -6.560  -6.560  -6.521  -6.508  -6.508  -2.667  -2.663  -2.663
 -2.652  -2.652  -2.614  -2.611  -2.610  -2.601  -2.601  -0.820
 -0.756  -0.751  -0.649  -0.587  -0.488  -0.425  -0.423  -0.406
 -0.356  -0.354  -0.311  -0.311  -0.274  -0.273

          Ground-State Mulliken Net Atomic Charges

     Atom                 Charge (a.u.)    Spin (a.u.)
  --------------------------------------------------------
      1 Br                   -0.001846       1.005978
      2 Br                   -0.131983       0.031770
      3 C                    -0.193455      -0.073831
      4 C                    -0.221018       1.059174
      5 C                    -0.243650       0.042735
      6 H                     0.129223       0.014359
      7 H                     0.129624       0.013537
      8 H                     0.114599      -0.046991
      9 H                     0.114225      -0.046951
     10 H                     0.152182       0.000130
     11 H                     0.152099       0.000091
  --------------------------------------------------------
  Sum of atomic charges =     0.000000

                    Cartesian Multipole Moments
 -----------------------------------------------------------------
    Charge (ESU x 10^10)
                 0.0000
    Dipole Moment (Debye)
         X      -1.8770      Y      -1.4807      Z      -0.0191
       Tot       2.3909
    Quadrupole Moments (Debye-Ang)
        XX     -64.1335     XY      -2.0564     YY     -56.6206
        XZ       0.0092     YZ      -0.0865     ZZ     -53.3422

 Final energy is   -5265.60255054493
 **  OPTIMIZATION CONVERGED  **
 Total job time:  81.04s(wall), 947.21s(cpu)
        *  Thank you very much for using Q-Chem.  Have a nice day.  *
