 Q-Chem 5.1, Q-Chem, Inc., Pleasanton, CA (2018)
 Q-Chem 5.1.1 for Intel X86 EM64T Linux

User input:
--------------------------------------------------------------

$comment
potential surface scanner
$end

$rem
JOBTYPE  PES_SCAN
UNRESTRICTED TRUE
SYM_IGNORE  TRUE
GEOM_OPT_MAX_CYCLES 400
SCF_MAX_CYCLES 400
METHOD   B3LYP
BASIS   6-31G**
PDB_PRINT 2
SCF_CONVERGENCE 6
THRESH 14
SCF_PRINT 1
$end
$molecule
0 3
Br -4.518013 1.794109 0.005245
Br 2.921805 0.801271 0.013637
C 0.103090 0.010449 0.019750
C -0.922193 -1.074690 -0.003616
C 1.515424 -0.595020 -0.001166
H -0.001981 0.627775 0.918634
H -0.009450 0.671642 -0.846322
H -1.252893 -1.507247 -0.942333
H -1.240650 -1.560216 0.913099
H 1.696110 -1.177923 -0.903660
H 1.708652 -1.211450 0.876131
$end
$scan
stre 1 4 4.500000 4.501000 0.100000
$end
--------------------------------------------------------------

   15   -5265.6029272485      6.73e-07  Convergence criterion met
 Total energy in the final basis set =    -5265.6029272485
   15   -5265.6022630699      7.06e-07  Convergence criterion met
 Total energy in the final basis set =    -5265.6022630699
   15   -5265.6026803185      7.35e-07  Convergence criterion met
 Total energy in the final basis set =    -5265.6026803185
   15   -5265.6028811608      7.77e-07  Convergence criterion met
 Total energy in the final basis set =    -5265.6028811608
   15   -5265.6029039275      7.84e-07  Convergence criterion met
 Total energy in the final basis set =    -5265.6029039275
   15   -5265.6029293538      7.98e-07  Convergence criterion met
 Total energy in the final basis set =    -5265.6029293538
   15   -5265.6029308731      7.99e-07  Convergence criterion met
 Total energy in the final basis set =    -5265.6029308731
   15   -5265.6029353275      8.05e-07  Convergence criterion met
 Total energy in the final basis set =    -5265.6029353275
   15   -5265.6029365148      8.06e-07  Convergence criterion met
 Total energy in the final basis set =    -5265.6029365148
   15   -5265.6029381711      8.10e-07  Convergence criterion met
 Total energy in the final basis set =    -5265.6029381711
   15   -5265.6029393127      8.14e-07  Convergence criterion met
 Total energy in the final basis set =    -5265.6029393127

             Standard Nuclear Orientation (Angstroms)
    I     Atom           X                Y                Z
 ----------------------------------------------------------------
    1      Br     -4.4450264795     1.7463260469     0.0057948944
    2      Br      2.9176953811     0.7989575572     0.0137248920
    3      C       0.0967868594     0.0168400189     0.0196036010
    4      C      -0.9315572800    -1.0653365207    -0.0037688435
    5      C       1.5074314965    -0.5932019561    -0.0010720095
    6      H      -0.0063540539     0.6341197720     0.9187431839
    7      H      -0.0133934108     0.6778343593    -0.8469440688
    8      H      -1.2608818950    -1.4988123919    -0.9425564673
    9      H      -1.2493077735    -1.5512576375     0.9129928013
   10      H       1.6861385127    -1.1767253024    -0.9035474443
   11      H       1.6983696429    -1.2100439457     0.8764284607
 ----------------------------------------------------------------

   15   -5265.6029401998      8.19e-07  Convergence criterion met
 Total energy in the final basis set =    -5265.6029401998

                    Orbital Energies (a.u.)
 --------------------------------------------------------------

 Alpha MOs
 -- Occupied --
*******-482.847 -62.559 -62.506 -56.383 -56.376 -56.376 -56.327
-56.323 -56.323 -10.249 -10.212 -10.209  -8.746  -8.693  -6.583
 -6.561  -6.561  -6.523  -6.510  -6.510  -2.674  -2.668  -2.668
 -2.652  -2.652  -2.616  -2.613  -2.612  -2.603  -2.603  -0.828
 -0.799  -0.764  -0.667  -0.603  -0.494  -0.434  -0.431  -0.419
 -0.373  -0.362  -0.361  -0.325  -0.325  -0.278  -0.275  -0.224

 Beta MOs
 -- Occupied --
*******-482.847 -62.558 -62.506 -56.378 -56.375 -56.375 -56.327
-56.323 -56.323 -10.248 -10.210 -10.198  -8.742  -8.693  -6.572
 -6.559  -6.559  -6.522  -6.510  -6.510  -2.666  -2.662  -2.662
 -2.651  -2.651  -2.616  -2.612  -2.612  -2.603  -2.603  -0.823
 -0.755  -0.754  -0.651  -0.591  -0.491  -0.428  -0.425  -0.409
 -0.359  -0.356  -0.311  -0.311  -0.276  -0.274

          Ground-State Mulliken Net Atomic Charges

     Atom                 Charge (a.u.)    Spin (a.u.)
  --------------------------------------------------------
      1 Br                   -0.002022       1.001065
      2 Br                   -0.128069       0.032042
      3 C                    -0.196280      -0.073574
      4 C                    -0.232878       1.063286
      5 C                    -0.243097       0.043355
      6 H                     0.131032       0.013688
      7 H                     0.131279       0.013413
      8 H                     0.117003      -0.046716
      9 H                     0.116942      -0.046702
     10 H                     0.153049       0.000067
     11 H                     0.153041       0.000075
  --------------------------------------------------------
  Sum of atomic charges =     0.000000

                    Cartesian Multipole Moments
 -----------------------------------------------------------------
    Charge (ESU x 10^10)
                 0.0000
    Dipole Moment (Debye)
         X      -1.7004      Y      -1.5282      Z      -0.0162
       Tot       2.2863
    Quadrupole Moments (Debye-Ang)
        XX     -63.0644     XY      -3.5071     YY     -54.7947
        XZ      -0.0158     YZ      -0.0314     ZZ     -56.1261

 Final energy is   -5265.60294019984
 **  OPTIMIZATION CONVERGED  **
 Total job time:  72.78s(wall), 849.72s(cpu)
        *  Thank you very much for using Q-Chem.  Have a nice day.  *
