 Q-Chem 5.1, Q-Chem, Inc., Pleasanton, CA (2018)
 Q-Chem 5.1.1 for Intel X86 EM64T Linux

User input:
--------------------------------------------------------------

$comment
potential surface scanner
$end

$rem
JOBTYPE  PES_SCAN
UNRESTRICTED TRUE
SYM_IGNORE  TRUE
GEOM_OPT_MAX_CYCLES 400
SCF_MAX_CYCLES 400
METHOD   B3LYP
BASIS   6-31G**
PDB_PRINT 2
SCF_CONVERGENCE 6
THRESH 14
SCF_PRINT 1
$end
$molecule
0 1
Br -2.833200 0.507100 -0.012400
Br 2.833200 0.507100 -0.012500
C 0.000000 0.236900 0.032600
C -1.249900 -0.625600 -0.004000
C 1.249800 -0.625500 -0.003800
H 0.000000 0.860400 0.936100
H 0.000100 0.929600 -0.819100
H -1.300300 -1.235900 -0.909900
H -1.328900 -1.269800 0.875900
H 1.300200 -1.236000 -0.909700
H 1.328900 -1.269600 0.876200
$end
$scan
stre 1 4 1.500000 1.501000 0.100000
$end
--------------------------------------------------------------

    9   -5265.7130673012      5.26e-07  Convergence criterion met
 Total energy in the final basis set =    -5265.7130673012
   10   -5265.7010474219      3.43e-07  Convergence criterion met
 Total energy in the final basis set =    -5265.7010474219
   10   -5265.6614263552      3.49e-07  Convergence criterion met
 Total energy in the final basis set =    -5265.6614263552
   10   -5265.5901136425      3.41e-07  Convergence criterion met
 Total energy in the final basis set =    -5265.5901136425
   10   -5265.5752756234      3.59e-07  Convergence criterion met
 Total energy in the final basis set =    -5265.5752756234
   10   -5265.5755336858      3.87e-07  Convergence criterion met
 Total energy in the final basis set =    -5265.5755336858
   10   -5265.5756328690      3.99e-07  Convergence criterion met
 Total energy in the final basis set =    -5265.5756328690
   10   -5265.5756586740      4.03e-07  Convergence criterion met
 Total energy in the final basis set =    -5265.5756586740
   10   -5265.5756642449      4.05e-07  Convergence criterion met
 Total energy in the final basis set =    -5265.5756642449
   10   -5265.5756656817      4.05e-07  Convergence criterion met
 Total energy in the final basis set =    -5265.5756656817
   10   -5265.5756670974      4.06e-07  Convergence criterion met
 Total energy in the final basis set =    -5265.5756670974

             Standard Nuclear Orientation (Angstroms)
    I     Atom           X                Y                Z
 ----------------------------------------------------------------
    1      Br     -2.6419406989     0.2674872480     0.0022144096
    2      Br      2.8809715626     0.4205314496     0.0023987633
    3      C      -0.0235794926     0.2897645322     0.0269278427
    4      C      -1.3695229140    -0.5268198029    -0.0032250531
    5      C       1.1920361298    -0.6182681741    -0.0047581608
    6      H      -0.0126015802     0.9088539399     0.9304890490
    7      H      -0.0115986912     0.9713494459    -0.8305105339
    8      H      -1.2448598162    -1.2014249146    -0.8715180726
    9      H      -1.2609493821    -1.2394722888     0.8364628636
   10      H       1.2371741958    -1.2264693748    -0.9089450460
   11      H       1.2547706871    -1.2668320604     0.8698639382
 ----------------------------------------------------------------

   10   -5265.5756678878      4.06e-07  Convergence criterion met
 Total energy in the final basis set =    -5265.5756678878

                    Orbital Energies (a.u.)
 --------------------------------------------------------------

 Alpha MOs
 -- Occupied --
*******-482.853 -62.528 -62.512 -56.347 -56.345 -56.345 -56.333
-56.329 -56.329 -10.253 -10.235 -10.211  -8.721  -8.699  -6.552
 -6.538  -6.538  -6.529  -6.516  -6.516  -2.648  -2.641  -2.641
 -2.631  -2.631  -2.622  -2.619  -2.619  -2.609  -2.609  -0.943
 -0.825  -0.746  -0.645  -0.614  -0.515  -0.474  -0.458  -0.453
 -0.399  -0.375  -0.374  -0.288  -0.281  -0.268  -0.264

 Beta MOs
 -- Occupied --
*******-482.853 -62.528 -62.512 -56.347 -56.345 -56.345 -56.333
-56.329 -56.329 -10.253 -10.235 -10.211  -8.721  -8.699  -6.552
 -6.538  -6.538  -6.529  -6.516  -6.516  -2.648  -2.641  -2.641
 -2.631  -2.631  -2.622  -2.619  -2.619  -2.609  -2.609  -0.943
 -0.825  -0.746  -0.645  -0.614  -0.515  -0.474  -0.458  -0.453
 -0.399  -0.375  -0.374  -0.288  -0.281  -0.268  -0.264

          Ground-State Mulliken Net Atomic Charges

     Atom                 Charge (a.u.)    Spin (a.u.)
  --------------------------------------------------------
      1 Br                   -0.021265       0.000000
      2 Br                   -0.111506      -0.000000
      3 C                    -0.212579      -0.000000
      4 C                    -0.208103      -0.000000
      5 C                    -0.260482       0.000000
      6 H                     0.134809      -0.000000
      7 H                     0.135468       0.000000
      8 H                     0.118073       0.000000
      9 H                     0.118503      -0.000000
     10 H                     0.153393       0.000000
     11 H                     0.153690      -0.000000
  --------------------------------------------------------
  Sum of atomic charges =     0.000000

                    Cartesian Multipole Moments
 -----------------------------------------------------------------
    Charge (ESU x 10^10)
                -0.0000
    Dipole Moment (Debye)
         X      -0.9137      Y      -1.6480      Z      -0.0087
       Tot       1.8844
    Quadrupole Moments (Debye-Ang)
        XX     -65.4377     XY      -0.3123     YY     -54.8858
        XZ       0.0005     YZ      -0.0054     ZZ     -55.6072

 Final energy is   -5265.57566788777
 **  OPTIMIZATION CONVERGED  **
 Total job time:  65.85s(wall), 760.25s(cpu)
        *  Thank you very much for using Q-Chem.  Have a nice day.  *
