 Q-Chem 5.1, Q-Chem, Inc., Pleasanton, CA (2018)
 Q-Chem 5.1.1 for Intel X86 EM64T Linux

User input:
--------------------------------------------------------------

$comment
potential surface scanner
$end

$rem
JOBTYPE  PES_SCAN
UNRESTRICTED TRUE
SYM_IGNORE  TRUE
GEOM_OPT_MAX_CYCLES 400
SCF_MAX_CYCLES 400
METHOD   B3LYP
BASIS   6-31G**
PDB_PRINT 2
SCF_CONVERGENCE 6
THRESH 14
SCF_PRINT 1
$end
$molecule
0 3
Br -3.968878 1.260336 0.006687
Br 2.926300 0.737054 0.016542
C 0.075108 0.077286 0.018248
C -1.004455 -0.953729 -0.003888
C 1.455890 -0.595828 -0.000778
H 0.000935 0.700664 0.915868
H -0.003159 0.742069 -0.848674
H -1.363671 -1.364007 -0.941732
H -1.349957 -1.418436 0.913512
H 1.611747 -1.186217 -0.903133
H 1.620040 -1.220491 0.876753
$end
$scan
stre 1 4 3.600000 3.601000 0.100000
$end
--------------------------------------------------------------

   14   -5265.6022480949      7.94e-07  Convergence criterion met
 Total energy in the final basis set =    -5265.6022480949
   15   -5265.6019220811      4.58e-07  Convergence criterion met
 Total energy in the final basis set =    -5265.6019220811
   15   -5265.6020389821      5.01e-07  Convergence criterion met
 Total energy in the final basis set =    -5265.6020389821
   14   -5265.6020850258      9.55e-07  Convergence criterion met
 Total energy in the final basis set =    -5265.6020850258

             Standard Nuclear Orientation (Angstroms)
    I     Atom           X                Y                Z
 ----------------------------------------------------------------
    1      Br     -3.8368028931     1.2728288403     0.0088876067
    2      Br      2.8991758187     0.7609225493     0.0166393099
    3      C       0.0555487470     0.0737218904     0.0178130234
    4      C      -1.0168394693    -0.9649444640    -0.0044718903
    5      C       1.4425291737    -0.5864149145    -0.0004741154
    6      H      -0.0234732986     0.6963645245     0.9158610506
    7      H      -0.0266034159     0.7374689093    -0.8500581526
    8      H      -1.3618229323    -1.3870377263    -0.9421336488
    9      H      -1.3483000982    -1.4403407426     0.9122741008
   10      H       1.6043310623    -1.1753230925    -0.9026714145
   11      H       1.6121573057    -1.2085447738     0.8777391303
 ----------------------------------------------------------------

   15   -5265.6020853872      5.05e-07  Convergence criterion met
 Total energy in the final basis set =    -5265.6020853872

                    Orbital Energies (a.u.)
 --------------------------------------------------------------

 Alpha MOs
 -- Occupied --
*******-482.846 -62.559 -62.505 -56.384 -56.376 -56.376 -56.326
-56.322 -56.322 -10.248 -10.207 -10.207  -8.747  -8.692  -6.583
 -6.561  -6.561  -6.522  -6.509  -6.509  -2.674  -2.669  -2.669
 -2.652  -2.652  -2.615  -2.612  -2.611  -2.602  -2.602  -0.826
 -0.799  -0.762  -0.665  -0.600  -0.492  -0.432  -0.428  -0.417
 -0.374  -0.359  -0.359  -0.326  -0.325  -0.277  -0.274  -0.217

 Beta MOs
 -- Occupied --
*******-482.846 -62.558 -62.505 -56.378 -56.375 -56.375 -56.326
-56.322 -56.322 -10.246 -10.208 -10.193  -8.743  -8.692  -6.572
 -6.559  -6.559  -6.521  -6.509  -6.509  -2.666  -2.663  -2.662
 -2.651  -2.651  -2.615  -2.611  -2.611  -2.602  -2.602  -0.821
 -0.756  -0.752  -0.649  -0.588  -0.489  -0.425  -0.423  -0.407
 -0.356  -0.354  -0.311  -0.310  -0.275  -0.273

          Ground-State Mulliken Net Atomic Charges

     Atom                 Charge (a.u.)    Spin (a.u.)
  --------------------------------------------------------
      1 Br                   -0.002183       1.008513
      2 Br                   -0.131615       0.033324
      3 C                    -0.196404      -0.073220
      4 C                    -0.218127       1.053093
      5 C                    -0.243877       0.043258
      6 H                     0.129161       0.014148
      7 H                     0.127546       0.013505
      8 H                     0.115431      -0.046381
      9 H                     0.114629      -0.046419
     10 H                     0.152712       0.000091
     11 H                     0.152727       0.000088
  --------------------------------------------------------
  Sum of atomic charges =     0.000000

                    Cartesian Multipole Moments
 -----------------------------------------------------------------
    Charge (ESU x 10^10)
                -0.0000
    Dipole Moment (Debye)
         X      -1.8543      Y      -1.5185      Z      -0.0149
       Tot       2.3968
    Quadrupole Moments (Debye-Ang)
        XX     -62.7023     XY      -0.5509     YY     -55.3182
        XZ      -0.2897     YZ      -0.2834     ZZ     -56.1118

 Final energy is   -5265.60208538721
 **  OPTIMIZATION CONVERGED  **
 Total job time:  37.02s(wall), 368.00s(cpu)
        *  Thank you very much for using Q-Chem.  Have a nice day.  *
