 Q-Chem 5.1, Q-Chem, Inc., Pleasanton, CA (2018)
 Q-Chem 5.1.1 for Intel X86 EM64T Linux

User input:
--------------------------------------------------------------

$comment
potential surface scanner
$end

$rem
JOBTYPE  PES_SCAN
UNRESTRICTED TRUE
SYM_IGNORE  TRUE
GEOM_OPT_MAX_CYCLES 400
SCF_MAX_CYCLES 400
METHOD   B3LYP
BASIS   6-31G**
PDB_PRINT 2
SCF_CONVERGENCE 6
THRESH 14
SCF_PRINT 1
$end
$molecule
0 3
Br -2.915953 0.666096 -0.009447
Br 2.842515 0.719295 -0.022753
C -0.060565 0.196762 -0.044350
C -1.168409 -0.829096 0.012729
C 1.279939 -0.547152 0.041829
H -0.120085 0.908694 0.788165
H -0.090505 0.770855 -0.977091
H -1.304673 -1.442685 -0.875037
H -1.282142 -1.363560 0.953212
H 1.427781 -1.219462 -0.801469
H 1.391995 -1.081041 0.983618
$end
$scan
stre 1 4 2.200000 2.201000 0.100000
$end
--------------------------------------------------------------

   15   -5265.5644791348      8.51e-07  Convergence criterion met
 Total energy in the final basis set =    -5265.5644791348
   16   -5265.5538866939      2.21e-07  Convergence criterion met
 Total energy in the final basis set =    -5265.5538866939
   16   -5265.5537622384      2.46e-07  Convergence criterion met
 Total energy in the final basis set =    -5265.5537622384
   16   -5265.5539089894      2.99e-07  Convergence criterion met
 Total energy in the final basis set =    -5265.5539089894
   16   -5265.5539225992      3.06e-07  Convergence criterion met
 Total energy in the final basis set =    -5265.5539225992
   16   -5265.5539299556      3.17e-07  Convergence criterion met
 Total energy in the final basis set =    -5265.5539299556
   16   -5265.5539321235      3.23e-07  Convergence criterion met
 Total energy in the final basis set =    -5265.5539321235
   16   -5265.5539359729      3.44e-07  Convergence criterion met
 Total energy in the final basis set =    -5265.5539359729
   16   -5265.5539377588      3.59e-07  Convergence criterion met
 Total energy in the final basis set =    -5265.5539377588
   16   -5265.5539394562      3.73e-07  Convergence criterion met
 Total energy in the final basis set =    -5265.5539394562
   16   -5265.5539414898      3.88e-07  Convergence criterion met
 Total energy in the final basis set =    -5265.5539414898
   16   -5265.5539444553      4.06e-07  Convergence criterion met
 Total energy in the final basis set =    -5265.5539444553
   16   -5265.5539468198      4.25e-07  Convergence criterion met
 Total energy in the final basis set =    -5265.5539468198

             Standard Nuclear Orientation (Angstroms)
    I     Atom           X                Y                Z
 ----------------------------------------------------------------
    1      Br     -2.9292686929     0.5425981220    -0.0993069227
    2      Br      2.8756117894     0.6846442460    -0.0265865735
    3      C      -0.0546569662     0.2305630057    -0.0242653290
    4      C      -1.1811019410    -0.7861934113     0.0356997061
    5      C       1.2495371023    -0.5630024805     0.0239669277
    6      H      -0.0939272093     0.9255568941     0.8215454679
    7      H      -0.0888718653     0.8199926287    -0.9474463843
    8      H      -1.2527304822    -1.4425441347    -0.8306553930
    9      H      -1.2763528955    -1.3068760451     0.9872761629
   10      H       1.3813845629    -1.2078534634    -0.8424995861
   11      H       1.3702745978    -1.1181793615     0.9516779240
 ----------------------------------------------------------------

   16   -5265.5539474882      4.31e-07  Convergence criterion met
 Total energy in the final basis set =    -5265.5539474882

                    Orbital Energies (a.u.)
 --------------------------------------------------------------

 Alpha MOs
 -- Occupied --
*******-482.853 -62.553 -62.511 -56.376 -56.371 -56.370 -56.332
-56.329 -56.329 -10.255 -10.219 -10.200  -8.741  -8.698  -6.574
 -6.560  -6.555  -6.527  -6.517  -6.515  -2.666  -2.664  -2.660
 -2.650  -2.650  -2.621  -2.619  -2.617  -2.609  -2.609  -0.839
 -0.809  -0.759  -0.667  -0.610  -0.500  -0.442  -0.430  -0.429
 -0.372  -0.367  -0.359  -0.346  -0.319  -0.286  -0.281  -0.139

 Beta MOs
 -- Occupied --
*******-482.852 -62.551 -62.511 -56.371 -56.369 -56.368 -56.331
-56.329 -56.328 -10.253 -10.219 -10.187  -8.737  -8.697  -6.564
 -6.556  -6.553  -6.526  -6.516  -6.515  -2.659  -2.657  -2.654
 -2.647  -2.647  -2.620  -2.617  -2.616  -2.608  -2.608  -0.825
 -0.777  -0.742  -0.650  -0.601  -0.497  -0.424  -0.423  -0.418
 -0.364  -0.354  -0.327  -0.303  -0.279  -0.276

          Ground-State Mulliken Net Atomic Charges

     Atom                 Charge (a.u.)    Spin (a.u.)
  --------------------------------------------------------
      1 Br                    0.067185       1.069803
      2 Br                   -0.124548       0.187592
      3 C                    -0.192881      -0.009985
      4 C                    -0.333335       0.708412
      5 C                    -0.247216       0.074075
      6 H                     0.134063       0.007890
      7 H                     0.132831       0.009016
      8 H                     0.122621      -0.023052
      9 H                     0.122791      -0.022720
     10 H                     0.159161      -0.000616
     11 H                     0.159329      -0.000417
  --------------------------------------------------------
  Sum of atomic charges =    -0.000000

                    Cartesian Multipole Moments
 -----------------------------------------------------------------
    Charge (ESU x 10^10)
                -0.0000
    Dipole Moment (Debye)
         X      -1.2578      Y      -1.6344      Z       0.0917
       Tot       2.0644
    Quadrupole Moments (Debye-Ang)
        XX     -64.5335     XY       0.0145     YY     -55.8525
        XZ      -0.1339     YZ       0.0080     ZZ     -56.2070

 Final energy is   -5265.55394748820
 **  OPTIMIZATION CONVERGED  **
 Total job time:  101.09s(wall), 1184.47s(cpu)
        *  Thank you very much for using Q-Chem.  Have a nice day.  *
