 Q-Chem 5.1, Q-Chem, Inc., Pleasanton, CA (2018)
 Q-Chem 5.1.1 for Intel X86 EM64T Linux

User input:
--------------------------------------------------------------

$comment
potential surface scanner
$end

$rem
JOBTYPE  PES_SCAN
UNRESTRICTED TRUE
SYM_IGNORE  TRUE
GEOM_OPT_MAX_CYCLES 400
SCF_MAX_CYCLES 400
METHOD   B3LYP
BASIS   6-31G**
PDB_PRINT 2
SCF_CONVERGENCE 6
THRESH 14
SCF_PRINT 1
$end
$molecule
0 3
Br -3.717123 1.035857 0.038954
Br 2.925139 0.707229 0.022727
C 0.056452 0.110963 0.009429
C -1.043835 -0.898265 -0.013010
C 1.421410 -0.592900 0.003602
H -0.008512 0.741022 0.903435
H -0.000646 0.771428 -0.862863
H -1.381164 -1.328470 -0.950061
H -1.388810 -1.361908 0.904950
H 1.570494 -1.191677 -0.894310
H 1.566494 -1.214575 0.886554
$end
$scan
stre 1 4 3.200000 3.201000 0.100000
$end
--------------------------------------------------------------

   15   -5265.6006937457      9.95e-07  Convergence criterion met
 Total energy in the final basis set =    -5265.6006937457
   39   -5265.5997515773      6.05e-07  Convergence criterion met
 Total energy in the final basis set =    -5265.5997515773
   40   -5265.5998998117      7.13e-07  Convergence criterion met
 Total energy in the final basis set =    -5265.5998998117
   38   -5265.5999492988      9.65e-07  Convergence criterion met
 Total energy in the final basis set =    -5265.5999492988
   38   -5265.5999603125      1.68e-07  Convergence criterion met
 Total energy in the final basis set =    -5265.5999603125
   39   -5265.6000563044      1.85e-07  Convergence criterion met
 Total energy in the final basis set =    -5265.6000563044
   37   -5265.6001296785      2.51e-07  Convergence criterion met
 Total energy in the final basis set =    -5265.6001296785
   32   -5265.6001758851      3.29e-07  Convergence criterion met
   33   -5265.6004145641      3.35e-07  Convergence criterion met
 Total energy in the final basis set =    -5265.6004145641
   34   -5265.6004166367      2.25e-07  Convergence criterion met
 Total energy in the final basis set =    -5265.6004166367
   34   -5265.6004194437      6.83e-07  Convergence criterion met
 Total energy in the final basis set =    -5265.6004194437
   43   -5265.6004237293      5.09e-07  Convergence criterion met
 Total energy in the final basis set =    -5265.6004237293
   27   -5265.5978588734      9.75e-07  Convergence criterion met
 Total energy in the final basis set =    -5265.5978588734
   48   -5265.6004251653      9.76e-07  Convergence criterion met
 Total energy in the final basis set =    -5265.6004251653

             Standard Nuclear Orientation (Angstroms)
    I     Atom           X                Y                Z
 ----------------------------------------------------------------
    1      Br     -3.1454092942     1.3606754184     0.0771988712
    2      Br      2.7729255217     0.8698250302     0.0281222089
    3      C      -0.0450304562     0.0509535830     0.0000741492
    4      C      -1.0474352445    -1.0533642088    -0.0272981644
    5      C       1.3803968622    -0.5364464506     0.0119912953
    6      H      -0.1653666464     0.6765110404     0.8931929985
    7      H      -0.1444733279     0.6983788289    -0.8789171777
    8      H      -1.3710651441    -1.4871847821    -0.9670902380
    9      H      -1.3720564480    -1.5330313687     0.8895025034
   10      H       1.5767871554    -1.1302532193    -0.8798127353
   11      H       1.5606260221    -1.1373598716     0.9024432889
 ----------------------------------------------------------------

   38   -5265.6004244178      8.83e-07  Convergence criterion met
 Total energy in the final basis set =    -5265.6004244178

                    Orbital Energies (a.u.)
 --------------------------------------------------------------

 Alpha MOs
 -- Occupied --
*******-482.853 -62.551 -62.511 -56.375 -56.368 -56.368 -56.332
-56.329 -56.329 -10.255 -10.216 -10.211  -8.739  -8.698  -6.575
 -6.553  -6.553  -6.528  -6.516  -6.515  -2.666  -2.660  -2.660
 -2.645  -2.645  -2.622  -2.618  -2.618  -2.608  -2.608  -0.834
 -0.793  -0.769  -0.671  -0.607  -0.499  -0.438  -0.434  -0.428
 -0.367  -0.366  -0.362  -0.321  -0.319  -0.283  -0.280  -0.220

 Beta MOs
 -- Occupied --
*******-482.853 -62.550 -62.511 -56.370 -56.367 -56.367 -56.332
-56.329 -56.329 -10.253 -10.216 -10.197  -8.735  -8.698  -6.564
 -6.551  -6.551  -6.528  -6.516  -6.515  -2.658  -2.654  -2.654
 -2.643  -2.643  -2.622  -2.618  -2.618  -2.608  -2.608  -0.828
 -0.761  -0.748  -0.654  -0.594  -0.496  -0.432  -0.428  -0.414
 -0.363  -0.361  -0.305  -0.305  -0.280  -0.279

          Ground-State Mulliken Net Atomic Charges

     Atom                 Charge (a.u.)    Spin (a.u.)
  --------------------------------------------------------
      1 Br                   -0.024839       0.980374
      2 Br                   -0.114523       0.046767
      3 C                    -0.212602      -0.066784
      4 C                    -0.232610       1.046094
      5 C                    -0.247629       0.054601
      6 H                     0.135488       0.016043
      7 H                     0.137014       0.014149
      8 H                     0.122710      -0.046345
      9 H                     0.122517      -0.046237
     10 H                     0.157364       0.000886
     11 H                     0.157110       0.000452
  --------------------------------------------------------
  Sum of atomic charges =     0.000000

                    Cartesian Multipole Moments
 -----------------------------------------------------------------
    Charge (ESU x 10^10)
                 0.0000
    Dipole Moment (Debye)
         X      -1.1666      Y      -1.7590      Z      -0.0419
       Tot       2.1112
    Quadrupole Moments (Debye-Ang)
        XX     -61.3618     XY      -1.8960     YY     -56.7158
        XZ       0.0335     YZ      -0.0683     ZZ     -56.0486

 Final energy is   -5265.60042441780
 **  OPTIMIZATION CONVERGED  **
 Total job time:  320.54s(wall), 3673.45s(cpu)
        *  Thank you very much for using Q-Chem.  Have a nice day.  *
