 Q-Chem 5.1, Q-Chem, Inc., Pleasanton, CA (2018)
 Q-Chem 5.1.1 for Intel X86 EM64T Linux

User input:
--------------------------------------------------------------

$comment
potential surface scanner
$end

$rem
JOBTYPE  PES_SCAN
UNRESTRICTED TRUE
SYM_IGNORE  TRUE
GEOM_OPT_MAX_CYCLES 400
SCF_MAX_CYCLES 400
METHOD   B3LYP
BASIS   6-31G**
PDB_PRINT 2
SCF_CONVERGENCE 6
THRESH 14
SCF_PRINT 1
$end
$molecule
0 1
Br -2.833200 0.507100 -0.012400
Br 2.833200 0.507100 -0.012500
C 0.000000 0.236900 0.032600
C -1.249900 -0.625600 -0.004000
C 1.249800 -0.625500 -0.003800
H 0.000000 0.860400 0.936100
H 0.000100 0.929600 -0.819100
H -1.300300 -1.235900 -0.909900
H -1.328900 -1.269800 0.875900
H 1.300200 -1.236000 -0.909700
H 1.328900 -1.269600 0.876200
$end
$scan
stre 1 4 4.600000 4.601000 0.100000
$end
--------------------------------------------------------------

    9   -5265.7130673013      5.26e-07  Convergence criterion met
 Total energy in the final basis set =    -5265.7130673013
   10   -5265.7103419285      3.62e-07  Convergence criterion met
 Total energy in the final basis set =    -5265.7103419285
   10   -5265.7004159107      4.95e-07  Convergence criterion met
 Total energy in the final basis set =    -5265.7004159107
   11   -5265.6887816216      1.28e-07  Convergence criterion met
 Total energy in the final basis set =    -5265.6887816216
   11   -5265.6772527924      2.89e-07  Convergence criterion met
 Total energy in the final basis set =    -5265.6772527924
   11   -5265.6661831981      4.55e-07  Convergence criterion met
 Total energy in the final basis set =    -5265.6661831981
   12   -5265.6556464166      1.80e-07  Convergence criterion met
 Total energy in the final basis set =    -5265.6556464166
   11   -5265.6456341778      8.18e-07  Convergence criterion met
   22   -5265.5878807538      1.56e-07  Convergence criterion met
 Total energy in the final basis set =    -5265.5878807538
   22   -5265.5848010300      8.83e-07  Convergence criterion met
 Total energy in the final basis set =    -5265.5848010300
   36   -5265.5825217540      3.58e-07  Convergence criterion met
 Total energy in the final basis set =    -5265.5825217540
   61   -5265.5852488114      5.80e-07  Convergence criterion met
 Total energy in the final basis set =    -5265.5852488114
   23   -5265.5811583474      3.75e-08  Convergence criterion met
 Total energy in the final basis set =    -5265.5811583474
   34   -5265.5824551022      2.63e-07  Convergence criterion met
 Total energy in the final basis set =    -5265.5824551022

             Standard Nuclear Orientation (Angstroms)
    I     Atom           X                Y                Z
 ----------------------------------------------------------------
    1      Br     -4.7624961666     1.5574683642     0.0054595551
    2      Br      3.0015345355     0.6387646746     0.0125752674
    3      C       0.1526284145     0.0720697162     0.0234243857
    4      C      -0.9006301881    -0.9417127075    -0.0037055500
    5      C       1.5340122961    -0.6667080816    -0.0037005697
    6      H       0.1065613781     0.6737424352     0.9351551504
    7      H       0.1011874653     0.7240409643    -0.8532333625
    8      H      -1.2697221326    -1.3461406391    -0.9414293286
    9      H      -1.2879190000    -1.3798994849     0.9111079663
   10      H       1.6556116783    -1.2567573435    -0.9105099966
   11      H       1.6691317194    -1.2961678979     0.8742564827
 ----------------------------------------------------------------

   30   -5265.5824624343      2.16e-07  Convergence criterion met
 Total energy in the final basis set =    -5265.5824624343

                    Orbital Energies (a.u.)
 --------------------------------------------------------------

 Alpha MOs
 -- Occupied --
*******-482.796 -62.548 -62.453 -56.369 -56.365 -56.365 -56.274
-56.271 -56.271 -10.317 -10.303 -10.268  -8.735  -8.639  -6.566
 -6.552  -6.552  -6.468  -6.457  -6.457  -2.659  -2.655  -2.655
 -2.644  -2.644  -2.561  -2.558  -2.558  -2.550  -2.550  -0.885
 -0.820  -0.717  -0.680  -0.658  -0.557  -0.501  -0.492  -0.465
 -0.420  -0.414  -0.316  -0.314  -0.234  -0.230  -0.230

 Beta MOs
 -- Occupied --
*******-482.796 -62.548 -62.453 -56.369 -56.365 -56.365 -56.274
-56.271 -56.271 -10.317 -10.303 -10.268  -8.735  -8.639  -6.566
 -6.552  -6.552  -6.468  -6.457  -6.457  -2.659  -2.655  -2.655
 -2.644  -2.644  -2.561  -2.558  -2.558  -2.550  -2.550  -0.885
 -0.820  -0.717  -0.680  -0.658  -0.557  -0.501  -0.492  -0.465
 -0.420  -0.414  -0.316  -0.314  -0.234  -0.230  -0.230

          Ground-State Mulliken Net Atomic Charges

     Atom                 Charge (a.u.)    Spin (a.u.)
  --------------------------------------------------------
      1 Br                   -0.422561       0.000001
      2 Br                   -0.046777      -0.000000
      3 C                    -0.230662      -0.000000
      4 C                    -0.116827      -0.000001
      5 C                    -0.273221      -0.000000
      6 H                     0.180491      -0.000000
      7 H                     0.182149       0.000000
      8 H                     0.189030       0.000000
      9 H                     0.189314      -0.000000
     10 H                     0.174410       0.000000
     11 H                     0.174653      -0.000000
  --------------------------------------------------------
  Sum of atomic charges =     0.000000

                    Cartesian Multipole Moments
 -----------------------------------------------------------------
    Charge (ESU x 10^10)
                 0.0000
    Dipole Moment (Debye)
         X       7.4412      Y      -5.4014      Z      -0.0229
       Tot       9.1949
    Quadrupole Moments (Debye-Ang)
        XX    -101.8654     XY      13.6838     YY     -58.3646
        XZ       0.0301     YZ      -0.0180     ZZ     -55.7448

 Final energy is   -5265.58246243430
 **  OPTIMIZATION CONVERGED  **
 Total job time:  180.18s(wall), 2014.47s(cpu)
        *  Thank you very much for using Q-Chem.  Have a nice day.  *
