 Q-Chem 5.1, Q-Chem, Inc., Pleasanton, CA (2018)
 Q-Chem 5.1.1 for Intel X86 EM64T Linux

User input:
--------------------------------------------------------------

$comment
potential surface scanner
$end

$rem
JOBTYPE  PES_SCAN
UNRESTRICTED TRUE
SYM_IGNORE  TRUE
GEOM_OPT_MAX_CYCLES 400
SCF_MAX_CYCLES 400
METHOD   B3LYP
BASIS   6-31G**
PDB_PRINT 2
SCF_CONVERGENCE 6
THRESH 14
SCF_PRINT 1
$end
$molecule
0 1
Br -2.903656 0.493781 0.024268
Br 2.892609 0.488215 0.022676
C 0.000998 0.248242 0.018901
C -1.247331 -0.626844 -0.003795
C 1.254821 -0.622170 -0.003676
H -0.000056 0.872992 0.916159
H 0.000101 0.917706 -0.845536
H -1.329100 -1.225335 -0.911330
H -1.329219 -1.272603 0.870844
H 1.329655 -1.225084 -0.909302
H 1.331078 -1.270200 0.870191
$end
$scan
stre 1 4 2.100000 2.101000 0.100000
$end
--------------------------------------------------------------

    9   -5265.7139174997      5.70e-07  Convergence criterion met
 Total energy in the final basis set =    -5265.7139174997
   10   -5265.7109476382      3.75e-07  Convergence criterion met
 Total energy in the final basis set =    -5265.7109476382
   10   -5265.7111285250      3.69e-07  Convergence criterion met
 Total energy in the final basis set =    -5265.7111285250
   10   -5265.7111990168      3.70e-07  Convergence criterion met
 Total energy in the final basis set =    -5265.7111990168

             Standard Nuclear Orientation (Angstroms)
    I     Atom           X                Y                Z
 ----------------------------------------------------------------
    1      Br     -2.9578975725     0.5387476180     0.0234789279
    2      Br      2.8950983374     0.5013507045     0.0226096396
    3      C       0.0061824208     0.2399558748     0.0190546897
    4      C      -1.2252750428    -0.6475321202    -0.0040743269
    5      C       1.2676718826    -0.6230227228    -0.0040784622
    6      H       0.0009290193     0.8626478695     0.9172727912
    7      H       0.0006112495     0.9086642667    -0.8454593597
    8      H      -1.3406092507    -1.2305669484    -0.9163758616
    9      H      -1.3417503491    -1.2763090143     0.8773010021
   10      H       1.3465085409    -1.2247569663    -0.9100435643
   11      H       1.3484307646    -1.2704785615     0.8697145242
 ----------------------------------------------------------------

   10   -5265.7112004313      3.69e-07  Convergence criterion met
 Total energy in the final basis set =    -5265.7112004313

                    Orbital Energies (a.u.)
 --------------------------------------------------------------

 Alpha MOs
 -- Occupied --
*******-482.854 -62.519 -62.512 -56.340 -56.336 -56.336 -56.334
-56.330 -56.330 -10.268 -10.263 -10.223  -8.706  -8.699  -6.536
 -6.529  -6.523  -6.523  -6.516  -6.516  -2.630  -2.626  -2.626
 -2.622  -2.619  -2.619  -2.616  -2.616  -2.609  -2.609  -0.849
 -0.800  -0.748  -0.672  -0.622  -0.513  -0.452  -0.451  -0.439
 -0.378  -0.378  -0.356  -0.291  -0.287  -0.282  -0.280

 Beta MOs
 -- Occupied --
*******-482.854 -62.519 -62.512 -56.340 -56.336 -56.336 -56.334
-56.330 -56.330 -10.268 -10.263 -10.223  -8.706  -8.699  -6.536
 -6.529  -6.523  -6.523  -6.516  -6.516  -2.630  -2.626  -2.626
 -2.622  -2.619  -2.619  -2.616  -2.616  -2.609  -2.609  -0.849
 -0.800  -0.748  -0.672  -0.622  -0.513  -0.452  -0.451  -0.439
 -0.378  -0.378  -0.356  -0.291  -0.287  -0.282  -0.280

          Ground-State Mulliken Net Atomic Charges

     Atom                 Charge (a.u.)    Spin (a.u.)
  --------------------------------------------------------
      1 Br                   -0.136700       0.000000
      2 Br                   -0.097418       0.000000
      3 C                    -0.183287      -0.000000
      4 C                    -0.255326       0.000000
      5 C                    -0.265090       0.000000
      6 H                     0.150021      -0.000000
      7 H                     0.150142       0.000000
      8 H                     0.162035       0.000000
      9 H                     0.162018       0.000000
     10 H                     0.156800      -0.000000
     11 H                     0.156805      -0.000000
  --------------------------------------------------------
  Sum of atomic charges =     0.000000

                    Cartesian Multipole Moments
 -----------------------------------------------------------------
    Charge (ESU x 10^10)
                 0.0000
    Dipole Moment (Debye)
         X       0.3831      Y      -2.2099      Z      -0.0520
       Tot       2.2434
    Quadrupole Moments (Debye-Ang)
        XX     -68.6259     XY       0.3471     YY     -54.7653
        XZ       0.0129     YZ       0.0017     ZZ     -55.9210

 Final energy is   -5265.71120043125
 **  OPTIMIZATION CONVERGED  **
 Total job time:  26.43s(wall), 301.86s(cpu)
        *  Thank you very much for using Q-Chem.  Have a nice day.  *
