 Q-Chem 5.1, Q-Chem, Inc., Pleasanton, CA (2018)
 Q-Chem 5.1.1 for Intel X86 EM64T Linux

User input:
--------------------------------------------------------------

$comment
potential surface scanner
$end

$rem
JOBTYPE  PES_SCAN
UNRESTRICTED TRUE
SYM_IGNORE  TRUE
GEOM_OPT_MAX_CYCLES 400
SCF_MAX_CYCLES 400
METHOD   B3LYP
BASIS   6-31G**
PDB_PRINT 2
SCF_CONVERGENCE 6
THRESH 14
SCF_PRINT 1
$end
$molecule
0 1
Br -3.188871 0.711021 0.031691
Br 2.905224 0.546726 0.024284
C 0.026203 0.207238 0.017188
C -1.143392 -0.725810 -0.007438
C 1.318539 -0.627951 -0.003941
H 0.004067 0.823095 0.918593
H 0.004293 0.869753 -0.850500
H -1.374877 -1.240578 -0.934565
H -1.376006 -1.286428 0.892470
H 1.412212 -1.227257 -0.909588
H 1.412511 -1.271108 0.871207
$end
$scan
stre 1 4 2.600000 2.601000 0.100000
$end
--------------------------------------------------------------

   11   -5265.6819794682      2.82e-07  Convergence criterion met
 Total energy in the final basis set =    -5265.6819794682
   11   -5265.6736163715      3.63e-07  Convergence criterion met
 Total energy in the final basis set =    -5265.6736163715
   11   -5265.6735062020      3.68e-07  Convergence criterion met
 Total energy in the final basis set =    -5265.6735062020
   11   -5265.6735832583      3.76e-07  Convergence criterion met
 Total energy in the final basis set =    -5265.6735832583

             Standard Nuclear Orientation (Angstroms)
    I     Atom           X                Y                Z
 ----------------------------------------------------------------
    1      Br     -3.2536104888     0.7492498408     0.0374778960
    2      Br      2.9090597565     0.5543673690     0.0248899766
    3      C       0.0316185375     0.2001461603     0.0158855443
    4      C      -1.1245296744    -0.7423341829    -0.0093196534
    5      C       1.3307267056    -0.6296231204    -0.0032012028
    6      H       0.0056516303     0.8149878761     0.9177364064
    7      H       0.0073148954     0.8605167821    -0.8532335577
    8      H      -1.3796590703    -1.2404214917    -0.9388638537
    9      H      -1.3801796878    -1.2877397167     0.8931031884
   10      H       1.4273326039    -1.2294713725    -0.9080584685
   11      H       1.4261777922    -1.2709771439     0.8729847245
 ----------------------------------------------------------------

   11   -5265.6735840880      3.76e-07  Convergence criterion met
 Total energy in the final basis set =    -5265.6735840880

                    Orbital Energies (a.u.)
 --------------------------------------------------------------

 Alpha MOs
 -- Occupied --
*******-482.833 -62.529 -62.491 -56.351 -56.347 -56.347 -56.312
-56.308 -56.308 -10.297 -10.277 -10.239  -8.716  -8.676  -6.547
 -6.533  -6.533  -6.505  -6.494  -6.494  -2.640  -2.636  -2.636
 -2.626  -2.626  -2.599  -2.596  -2.596  -2.586  -2.586  -0.860
 -0.796  -0.724  -0.690  -0.635  -0.529  -0.469  -0.466  -0.446
 -0.393  -0.390  -0.309  -0.296  -0.294  -0.265  -0.264

 Beta MOs
 -- Occupied --
*******-482.833 -62.529 -62.491 -56.351 -56.347 -56.347 -56.312
-56.308 -56.308 -10.297 -10.277 -10.239  -8.716  -8.676  -6.547
 -6.533  -6.533  -6.505  -6.494  -6.494  -2.640  -2.636  -2.636
 -2.626  -2.626  -2.599  -2.596  -2.596  -2.586  -2.586  -0.860
 -0.796  -0.724  -0.690  -0.635  -0.529  -0.469  -0.466  -0.446
 -0.393  -0.390  -0.309  -0.296  -0.294  -0.265  -0.264

          Ground-State Mulliken Net Atomic Charges

     Atom                 Charge (a.u.)    Spin (a.u.)
  --------------------------------------------------------
      1 Br                   -0.306252       0.000000
      2 Br                   -0.076672      -0.000000
      3 C                    -0.196553      -0.000000
      4 C                    -0.171703       0.000000
      5 C                    -0.273375      -0.000000
      6 H                     0.167119       0.000000
      7 H                     0.166984       0.000000
      8 H                     0.181909       0.000000
      9 H                     0.182135      -0.000000
     10 H                     0.163166      -0.000000
     11 H                     0.163242       0.000000
  --------------------------------------------------------
  Sum of atomic charges =    -0.000000

                    Cartesian Multipole Moments
 -----------------------------------------------------------------
    Charge (ESU x 10^10)
                -0.0000
    Dipole Moment (Debye)
         X       2.3545      Y      -3.0845      Z      -0.0876
       Tot       3.8815
    Quadrupole Moments (Debye-Ang)
        XX     -74.5474     XY       2.6475     YY     -54.8470
        XZ       0.1226     YZ      -0.0097     ZZ     -55.8820

 Final energy is   -5265.67358408805
 **  OPTIMIZATION CONVERGED  **
 Total job time:  27.74s(wall), 319.08s(cpu)
        *  Thank you very much for using Q-Chem.  Have a nice day.  *
