 Q-Chem 5.1, Q-Chem, Inc., Pleasanton, CA (2018)
 Q-Chem 5.1.1 for Intel X86 EM64T Linux

User input:
--------------------------------------------------------------

$comment
potential surface scanner
$end

$rem
JOBTYPE  PES_SCAN
UNRESTRICTED TRUE
SYM_IGNORE  TRUE
GEOM_OPT_MAX_CYCLES 400
SCF_MAX_CYCLES 400
METHOD   B3LYP
BASIS   6-31G**
PDB_PRINT 2
SCF_CONVERGENCE 6
THRESH 14
SCF_PRINT 1
$end
$molecule
0 3
Br -4.051651 1.410741 0.003669
Br 2.910758 0.771194 0.014937
C 0.073717 0.055036 0.019101
C -0.984443 -0.998032 -0.003355
C 1.468177 -0.589901 -0.000842
H -0.012462 0.675847 0.917493
H -0.018337 0.718384 -0.847519
H -1.342518 -1.408607 -0.941535
H -1.323444 -1.467490 0.914050
H 1.634819 -1.177342 -0.903169
H 1.645285 -1.211129 0.876573
$end
$scan
stre 1 4 3.800000 3.801000 0.100000
$end
--------------------------------------------------------------

   15   -5265.6025505447      6.67e-07  Convergence criterion met
 Total energy in the final basis set =    -5265.6025505447
   15   -5265.6019575282      7.36e-07  Convergence criterion met
 Total energy in the final basis set =    -5265.6019575282
   15   -5265.6022780017      7.48e-07  Convergence criterion met
 Total energy in the final basis set =    -5265.6022780017
   15   -5265.6024001447      7.73e-07  Convergence criterion met
 Total energy in the final basis set =    -5265.6024001447
   15   -5265.6024048630      7.74e-07  Convergence criterion met
 Total energy in the final basis set =    -5265.6024048630
   15   -5265.6024138649      7.87e-07  Convergence criterion met
 Total energy in the final basis set =    -5265.6024138649
   15   -5265.6024169293      7.90e-07  Convergence criterion met
 Total energy in the final basis set =    -5265.6024169293
   15   -5265.6024232083      7.96e-07  Convergence criterion met
 Total energy in the final basis set =    -5265.6024232083
   15   -5265.6024254500      7.99e-07  Convergence criterion met
 Total energy in the final basis set =    -5265.6024254500
   15   -5265.6024265116      8.01e-07  Convergence criterion met
 Total energy in the final basis set =    -5265.6024265116

             Standard Nuclear Orientation (Angstroms)
    I     Atom           X                Y                Z
 ----------------------------------------------------------------
    1      Br     -4.0111580166     1.3361920957     0.0053691031
    2      Br      2.9182727420     0.7544569751     0.0154599522
    3      C       0.0745498066     0.0659832066     0.0186985149
    4      C      -0.9950897227    -0.9753557116    -0.0036935241
    5      C       1.4621975202    -0.5930511736    -0.0007462715
    6      H      -0.0054799957     0.6883169005     0.9165818451
    7      H      -0.0104688484     0.7303367762    -0.8478998030
    8      H      -1.3527166090    -1.3867775640    -0.9417355163
    9      H      -1.3367253075    -1.4434870047     0.9134843890
   10      H       1.6235210643    -1.1821280113    -0.9029864667
   11      H       1.6329983668    -1.2157854889     0.8768707773
 ----------------------------------------------------------------

   15   -5265.6024268560      8.02e-07  Convergence criterion met
 Total energy in the final basis set =    -5265.6024268560

                    Orbital Energies (a.u.)
 --------------------------------------------------------------

 Alpha MOs
 -- Occupied --
*******-482.845 -62.560 -62.504 -56.384 -56.377 -56.377 -56.325
-56.321 -56.321 -10.247 -10.207 -10.206  -8.747  -8.691  -6.584
 -6.562  -6.562  -6.521  -6.508  -6.508  -2.675  -2.669  -2.669
 -2.653  -2.653  -2.615  -2.611  -2.611  -2.601  -2.601  -0.825
 -0.800  -0.761  -0.665  -0.600  -0.491  -0.431  -0.428  -0.416
 -0.374  -0.358  -0.358  -0.326  -0.326  -0.276  -0.273  -0.218

 Beta MOs
 -- Occupied --
*******-482.845 -62.558 -62.504 -56.379 -56.376 -56.375 -56.325
-56.321 -56.321 -10.245 -10.207 -10.194  -8.743  -8.691  -6.573
 -6.560  -6.560  -6.521  -6.508  -6.508  -2.667  -2.663  -2.663
 -2.652  -2.652  -2.614  -2.611  -2.610  -2.601  -2.601  -0.820
 -0.756  -0.751  -0.648  -0.587  -0.488  -0.425  -0.423  -0.406
 -0.356  -0.354  -0.311  -0.311  -0.274  -0.273

          Ground-State Mulliken Net Atomic Charges

     Atom                 Charge (a.u.)    Spin (a.u.)
  --------------------------------------------------------
      1 Br                   -0.001725       1.007220
      2 Br                   -0.132206       0.031884
      3 C                    -0.193282      -0.073738
      4 C                    -0.220208       1.057570
      5 C                    -0.243732       0.042687
      6 H                     0.129260       0.014280
      7 H                     0.129383       0.013583
      8 H                     0.114363      -0.046858
      9 H                     0.113930      -0.046837
     10 H                     0.152138       0.000119
     11 H                     0.152079       0.000090
  --------------------------------------------------------
  Sum of atomic charges =     0.000000

                    Cartesian Multipole Moments
 -----------------------------------------------------------------
    Charge (ESU x 10^10)
                 0.0000
    Dipole Moment (Debye)
         X      -1.8927      Y      -1.4671      Z      -0.0188
       Tot       2.3948
    Quadrupole Moments (Debye-Ang)
        XX     -64.1945     XY      -2.0019     YY     -56.6050
        XZ      -0.0568     YZ      -0.1471     ZZ     -53.3527

 Final energy is   -5265.60242685598
 **  OPTIMIZATION CONVERGED  **
 Total job time:  69.34s(wall), 805.66s(cpu)
        *  Thank you very much for using Q-Chem.  Have a nice day.  *
