 Q-Chem 5.1, Q-Chem, Inc., Pleasanton, CA (2018)
 Q-Chem 5.1.1 for Intel X86 EM64T Linux

User input:
--------------------------------------------------------------

$comment
potential surface scanner
$end

$rem
JOBTYPE  PES_SCAN
UNRESTRICTED TRUE
SYM_IGNORE  TRUE
GEOM_OPT_MAX_CYCLES 400
SCF_MAX_CYCLES 400
METHOD   B3LYP
BASIS   6-31G**
PDB_PRINT 2
SCF_CONVERGENCE 6
THRESH 14
SCF_PRINT 1
$end
$molecule
0 3
Br -4.977675 2.173403 0.003146
Br 2.930048 0.837238 0.013421
C 0.131295 -0.037004 0.021197
C -0.855066 -1.157373 -0.002731
C 1.561863 -0.597668 -0.002478
H 0.007343 0.574483 0.921609
H -0.003715 0.620274 -0.844703
H -1.167506 -1.602200 -0.941720
H -1.160862 -1.649468 0.914524
H 1.759260 -1.173290 -0.906131
H 1.774918 -1.209696 0.873266
$end
$scan
stre 1 4 5.200000 5.201000 0.100000
$end
--------------------------------------------------------------

   16   -5265.6027773476      2.95e-07  Convergence criterion met
 Total energy in the final basis set =    -5265.6027773476
   15   -5265.6021456554      9.31e-07  Convergence criterion met
 Total energy in the final basis set =    -5265.6021456554
   15   -5265.6025251901      9.27e-07  Convergence criterion met
 Total energy in the final basis set =    -5265.6025251901
   15   -5265.6027129989      9.56e-07  Convergence criterion met
 Total energy in the final basis set =    -5265.6027129989
   15   -5265.6027386701      9.61e-07  Convergence criterion met
 Total energy in the final basis set =    -5265.6027386701
   15   -5265.6027638390      9.73e-07  Convergence criterion met
 Total energy in the final basis set =    -5265.6027638390
   15   -5265.6027657544      9.73e-07  Convergence criterion met
 Total energy in the final basis set =    -5265.6027657544
   15   -5265.6027710898      9.77e-07  Convergence criterion met
 Total energy in the final basis set =    -5265.6027710898
   15   -5265.6027730057      9.79e-07  Convergence criterion met
 Total energy in the final basis set =    -5265.6027730057
   15   -5265.6027748400      9.82e-07  Convergence criterion met
 Total energy in the final basis set =    -5265.6027748400
   15   -5265.6027760490      9.84e-07  Convergence criterion met
 Total energy in the final basis set =    -5265.6027760490

             Standard Nuclear Orientation (Angstroms)
    I     Atom           X                Y                Z
 ----------------------------------------------------------------
    1      Br     -4.9189572369     2.1136996926     0.0041950181
    2      Br      2.9318370670     0.8291678624     0.0134753787
    3      C       0.1292306472    -0.0297101369     0.0206671070
    4      C      -0.8650568705    -1.1429614498    -0.0031241294
    5      C       1.5565517391    -0.5985675592    -0.0020338374
    6      H       0.0083150199     0.5832987498     0.9205214401
    7      H      -0.0015831244     0.6284099318    -0.8452813976
    8      H      -1.1824727984    -1.5846576370    -0.9419511963
    9      H      -1.1747162485    -1.6330915125     0.9139194892
   10      H       1.7509990679    -1.1758083400    -0.9052902938
   11      H       1.7657557377    -1.2110806012     0.8743024214
 ----------------------------------------------------------------

   15   -5265.6027769133      9.85e-07  Convergence criterion met
 Total energy in the final basis set =    -5265.6027769133

                    Orbital Energies (a.u.)
 --------------------------------------------------------------

 Alpha MOs
 -- Occupied --
*******-482.846 -62.559 -62.505 -56.384 -56.376 -56.376 -56.326
-56.322 -56.322 -10.248 -10.210 -10.208  -8.747  -8.692  -6.583
 -6.561  -6.561  -6.522  -6.509  -6.509  -2.674  -2.669  -2.669
 -2.652  -2.652  -2.616  -2.612  -2.612  -2.602  -2.602  -0.827
 -0.799  -0.763  -0.666  -0.601  -0.493  -0.433  -0.430  -0.417
 -0.374  -0.360  -0.359  -0.325  -0.325  -0.277  -0.274  -0.222

 Beta MOs
 -- Occupied --
*******-482.846 -62.558 -62.505 -56.378 -56.375 -56.375 -56.326
-56.322 -56.322 -10.246 -10.208 -10.196  -8.743  -8.692  -6.573
 -6.559  -6.559  -6.522  -6.509  -6.509  -2.666  -2.663  -2.663
 -2.651  -2.651  -2.615  -2.611  -2.611  -2.602  -2.602  -0.821
 -0.756  -0.753  -0.650  -0.589  -0.490  -0.427  -0.424  -0.408
 -0.357  -0.355  -0.311  -0.311  -0.275  -0.273

          Ground-State Mulliken Net Atomic Charges

     Atom                 Charge (a.u.)    Spin (a.u.)
  --------------------------------------------------------
      1 Br                   -0.000208       1.000186
      2 Br                   -0.130147       0.032200
      3 C                    -0.194951      -0.074040
      4 C                    -0.228869       1.065233
      5 C                    -0.242982       0.042913
      6 H                     0.130229       0.013611
      7 H                     0.130546       0.013765
      8 H                     0.115544      -0.046999
      9 H                     0.115558      -0.046992
     10 H                     0.152626       0.000043
     11 H                     0.152654       0.000080
  --------------------------------------------------------
  Sum of atomic charges =    -0.000000

                    Cartesian Multipole Moments
 -----------------------------------------------------------------
    Charge (ESU x 10^10)
                 0.0000
    Dipole Moment (Debye)
         X      -1.7433      Y      -1.5577      Z      -0.0160
       Tot       2.3379
    Quadrupole Moments (Debye-Ang)
        XX     -63.9248     XY      -3.0489     YY     -53.8889
        XZ      -0.0228     YZ      -0.0195     ZZ     -56.1367

 Final energy is   -5265.60277691331
 **  OPTIMIZATION CONVERGED  **
 Total job time:  76.49s(wall), 834.06s(cpu)
        *  Thank you very much for using Q-Chem.  Have a nice day.  *
