 Q-Chem 5.1, Q-Chem, Inc., Pleasanton, CA (2018)
 Q-Chem 5.1.1 for Intel X86 EM64T Linux

User input:
--------------------------------------------------------------

$comment
potential surface scanner
$end

$rem
JOBTYPE  PES_SCAN
UNRESTRICTED TRUE
SYM_IGNORE  TRUE
GEOM_OPT_MAX_CYCLES 400
SCF_MAX_CYCLES 400
METHOD   B3LYP
BASIS   6-31G**
PDB_PRINT 2
SCF_CONVERGENCE 6
THRESH 14
SCF_PRINT 1
$end
$molecule
0 3
Br -4.011158 1.336192 0.005369
Br 2.918273 0.754457 0.015460
C 0.074550 0.065983 0.018699
C -0.995090 -0.975356 -0.003694
C 1.462198 -0.593051 -0.000746
H -0.005480 0.688317 0.916582
H -0.010469 0.730337 -0.847900
H -1.352717 -1.386778 -0.941736
H -1.336725 -1.443487 0.913484
H 1.623521 -1.182128 -0.902986
H 1.632998 -1.215785 0.876871
$end
$scan
stre 1 4 3.700000 3.701000 0.100000
$end
--------------------------------------------------------------

   15   -5265.6024268557      8.02e-07  Convergence criterion met
 Total energy in the final basis set =    -5265.6024268557
   14   -5265.6017670595      6.71e-07  Convergence criterion met
 Total energy in the final basis set =    -5265.6017670595
   14   -5265.6020901013      7.72e-07  Convergence criterion met
 Total energy in the final basis set =    -5265.6020901013
   14   -5265.6022170675      8.54e-07  Convergence criterion met
 Total energy in the final basis set =    -5265.6022170675
   14   -5265.6022222336      8.55e-07  Convergence criterion met
 Total energy in the final basis set =    -5265.6022222336
   14   -5265.6022329319      8.49e-07  Convergence criterion met
 Total energy in the final basis set =    -5265.6022329319
   14   -5265.6022365329      8.43e-07  Convergence criterion met
 Total energy in the final basis set =    -5265.6022365329
   14   -5265.6022438319      8.19e-07  Convergence criterion met
 Total energy in the final basis set =    -5265.6022438319
   14   -5265.6022463663      8.05e-07  Convergence criterion met
 Total energy in the final basis set =    -5265.6022463663
   14   -5265.6022476052      7.96e-07  Convergence criterion met
 Total energy in the final basis set =    -5265.6022476052

             Standard Nuclear Orientation (Angstroms)
    I     Atom           X                Y                Z
 ----------------------------------------------------------------
    1      Br     -3.9688778184     1.2603363018     0.0066871498
    2      Br      2.9263001317     0.7370537967     0.0165416848
    3      C       0.0751079670     0.0772861999     0.0182479344
    4      C      -1.0044546788    -0.9537294225    -0.0038884142
    5      C       1.4558898119    -0.5958282191    -0.0007784434
    6      H       0.0009354190     0.7006639112     0.9158682652
    7      H      -0.0031587720     0.7420686811    -0.8486742989
    8      H      -1.3636708170    -1.3640068825    -0.9417323947
    9      H      -1.3499571231    -1.4184355754     0.9135117615
   10      H       1.6117465953    -1.1862169037    -0.9031334642
   11      H       1.6200402844    -1.2204908874     0.8767532197
 ----------------------------------------------------------------

   14   -5265.6022480959      7.94e-07  Convergence criterion met
 Total energy in the final basis set =    -5265.6022480959

                    Orbital Energies (a.u.)
 --------------------------------------------------------------

 Alpha MOs
 -- Occupied --
*******-482.845 -62.560 -62.504 -56.384 -56.377 -56.377 -56.325
-56.321 -56.321 -10.247 -10.207 -10.206  -8.747  -8.691  -6.584
 -6.562  -6.562  -6.521  -6.508  -6.508  -2.675  -2.669  -2.669
 -2.653  -2.653  -2.614  -2.611  -2.611  -2.601  -2.601  -0.825
 -0.800  -0.761  -0.664  -0.599  -0.491  -0.431  -0.428  -0.416
 -0.374  -0.358  -0.358  -0.326  -0.326  -0.276  -0.273  -0.218

 Beta MOs
 -- Occupied --
*******-482.845 -62.558 -62.504 -56.379 -56.376 -56.376 -56.325
-56.321 -56.321 -10.245 -10.207 -10.194  -8.743  -8.691  -6.573
 -6.560  -6.560  -6.521  -6.508  -6.508  -2.667  -2.663  -2.663
 -2.652  -2.652  -2.614  -2.610  -2.610  -2.601  -2.601  -0.820
 -0.756  -0.751  -0.648  -0.587  -0.488  -0.425  -0.422  -0.406
 -0.356  -0.353  -0.311  -0.311  -0.274  -0.273

          Ground-State Mulliken Net Atomic Charges

     Atom                 Charge (a.u.)    Spin (a.u.)
  --------------------------------------------------------
      1 Br                   -0.001373       1.008631
      2 Br                   -0.132605       0.032128
      3 C                    -0.193025      -0.073694
      4 C                    -0.219560       1.055778
      5 C                    -0.243778       0.042602
      6 H                     0.129294       0.014250
      7 H                     0.129041       0.013643
      8 H                     0.114161      -0.046765
      9 H                     0.113696      -0.046761
     10 H                     0.152092       0.000105
     11 H                     0.152056       0.000083
  --------------------------------------------------------
  Sum of atomic charges =    -0.000000

                    Cartesian Multipole Moments
 -----------------------------------------------------------------
    Charge (ESU x 10^10)
                 0.0000
    Dipole Moment (Debye)
         X      -1.9180      Y      -1.4498      Z      -0.0185
       Tot       2.4043
    Quadrupole Moments (Debye-Ang)
        XX     -64.2469     XY      -1.9460     YY     -56.6001
        XZ      -0.1331     YZ      -0.1993     ZZ     -53.3661

 Final energy is   -5265.60224809593
 **  OPTIMIZATION CONVERGED  **
 Total job time:  66.78s(wall), 775.93s(cpu)
        *  Thank you very much for using Q-Chem.  Have a nice day.  *
