 Q-Chem 5.1, Q-Chem, Inc., Pleasanton, CA (2018)
 Q-Chem 5.1.1 for Intel X86 EM64T Linux

User input:
--------------------------------------------------------------

$comment
potential surface scanner
$end

$rem
JOBTYPE  PES_SCAN
UNRESTRICTED TRUE
SYM_IGNORE  TRUE
GEOM_OPT_MAX_CYCLES 400
SCF_MAX_CYCLES 400
METHOD   B3LYP
BASIS   6-31G**
PDB_PRINT 2
SCF_CONVERGENCE 6
THRESH 14
SCF_PRINT 1
$end
$molecule
0 3
Br -2.680121 1.029369 0.829476
Br 2.718371 0.891281 0.167473
C -0.050483 0.045033 -0.268239
C -1.089876 -1.017893 -0.228749
C 1.315719 -0.497065 0.170152
H -0.291674 0.890219 0.423096
H 0.015868 0.499295 -1.260977
H -1.691278 -1.248725 -1.098719
H -1.198718 -1.649387 0.645962
H 1.662302 -1.270783 -0.515233
H 1.289790 -0.892639 1.185166
$end
$scan
stre 1 4 2.700000 2.701000 0.100000
$end
--------------------------------------------------------------

   15   -5265.5940167007      5.45e-07  Convergence criterion met
 Total energy in the final basis set =    -5265.5940167007
   15   -5265.5904785335      5.48e-07  Convergence criterion met
 Total energy in the final basis set =    -5265.5904785335
   14   -5265.5904849789      8.96e-07  Convergence criterion met
 Total energy in the final basis set =    -5265.5904849789
   14   -5265.5905095268      6.87e-07  Convergence criterion met
 Total energy in the final basis set =    -5265.5905095268
   14   -5265.5905158060      6.69e-07  Convergence criterion met
 Total energy in the final basis set =    -5265.5905158060
   14   -5265.5905217919      7.02e-07  Convergence criterion met
 Total energy in the final basis set =    -5265.5905217919

             Standard Nuclear Orientation (Angstroms)
    I     Atom           X                Y                Z
 ----------------------------------------------------------------
    1      Br     -2.6544685051     0.9677223070     0.8058387633
    2      Br      2.7249622841     0.8773417685     0.1632360561
    3      C      -0.0536060596     0.0575592553    -0.2654329781
    4      C      -1.1048920637    -0.9931751072    -0.2157750679
    5      C       1.3083024998    -0.4974188105     0.1709264552
    6      H      -0.2796507260     0.9112229997     0.4230097128
    7      H       0.0118236834     0.5076702641    -1.2601286217
    8      H      -1.6845500504    -1.2459044283    -1.0942819871
    9      H      -1.1929505012    -1.6396029756     0.6502106615
   10      H       1.6445353566    -1.2754972371    -0.5147095989
   11      H       1.2803940821    -0.8912130360     1.1865146049
 ----------------------------------------------------------------

   14   -5265.5905225606      7.37e-07  Convergence criterion met
 Total energy in the final basis set =    -5265.5905225606

                    Orbital Energies (a.u.)
 --------------------------------------------------------------

 Alpha MOs
 -- Occupied --
*******-482.856 -62.543 -62.515 -56.367 -56.360 -56.360 -56.336
-56.332 -56.332 -10.259 -10.227 -10.206  -8.731  -8.702  -6.566
 -6.546  -6.545  -6.532  -6.519  -6.519  -2.657  -2.652  -2.652
 -2.637  -2.637  -2.626  -2.622  -2.621  -2.612  -2.612  -0.842
 -0.795  -0.768  -0.674  -0.614  -0.503  -0.454  -0.441  -0.428
 -0.379  -0.371  -0.336  -0.327  -0.314  -0.285  -0.283  -0.203

 Beta MOs
 -- Occupied --
*******-482.856 -62.541 -62.515 -56.361 -56.359 -56.359 -56.336
-56.332 -56.332 -10.258 -10.226 -10.192  -8.726  -8.702  -6.555
 -6.544  -6.544  -6.532  -6.519  -6.519  -2.649  -2.646  -2.646
 -2.636  -2.636  -2.625  -2.621  -2.621  -2.612  -2.611  -0.834
 -0.770  -0.741  -0.658  -0.598  -0.496  -0.445  -0.434  -0.409
 -0.373  -0.365  -0.303  -0.300  -0.284  -0.282

          Ground-State Mulliken Net Atomic Charges

     Atom                 Charge (a.u.)    Spin (a.u.)
  --------------------------------------------------------
      1 Br                   -0.038375       0.953437
      2 Br                   -0.108306       0.030113
      3 C                    -0.211851      -0.009724
      4 C                    -0.251319       0.995805
      5 C                    -0.251354       0.041995
      6 H                     0.136621       0.064248
      7 H                     0.146436       0.003899
      8 H                     0.129285      -0.044490
      9 H                     0.123248      -0.044139
     10 H                     0.165492       0.010331
     11 H                     0.160123      -0.001477
  --------------------------------------------------------
  Sum of atomic charges =    -0.000000

                    Cartesian Multipole Moments
 -----------------------------------------------------------------
    Charge (ESU x 10^10)
                 0.0000
    Dipole Moment (Debye)
         X      -0.8035      Y      -1.8055      Z      -0.4191
       Tot       2.0202
    Quadrupole Moments (Debye-Ang)
        XX     -61.5725     XY      -0.9215     YY     -57.0370
        XZ       0.3181     YZ      -0.8006     ZZ     -56.2449

 Final energy is   -5265.59052256060
 **  OPTIMIZATION CONVERGED  **
 Total job time:  46.93s(wall), 546.00s(cpu)
        *  Thank you very much for using Q-Chem.  Have a nice day.  *
