 Q-Chem 5.1, Q-Chem, Inc., Pleasanton, CA (2018)
 Q-Chem 5.1.1 for Intel X86 EM64T Linux

User input:
--------------------------------------------------------------

$comment
potential surface scanner
$end

$rem
JOBTYPE  PES_SCAN
UNRESTRICTED TRUE
SYM_IGNORE  TRUE
GEOM_OPT_MAX_CYCLES 400
SCF_MAX_CYCLES 400
METHOD   B3LYP
BASIS   6-31G**
PDB_PRINT 2
SCF_CONVERGENCE 6
THRESH 14
SCF_PRINT 1
$end
$molecule
0 3
Br -4.593715 1.840401 0.004841
Br 2.926995 0.801537 0.013567
C 0.109352 0.005294 0.019892
C -0.913087 -1.082426 -0.003502
C 1.523058 -0.597251 -0.001248
H 0.003080 0.621908 0.919144
H -0.004666 0.665940 -0.846429
H -1.243015 -1.515218 -0.942328
H -1.230253 -1.568499 0.913319
H 1.704667 -1.179651 -0.903867
H 1.717487 -1.213335 0.876011
$end
$scan
stre 1 4 4.600000 4.601000 0.100000
$end
--------------------------------------------------------------

   15   -5265.6028930638      7.10e-07  Convergence criterion met
 Total energy in the final basis set =    -5265.6028930638
   15   -5265.6022472800      6.31e-07  Convergence criterion met
 Total energy in the final basis set =    -5265.6022472800
   15   -5265.6026642476      6.01e-07  Convergence criterion met
 Total energy in the final basis set =    -5265.6026642476
   15   -5265.6028654857      6.26e-07  Convergence criterion met
 Total energy in the final basis set =    -5265.6028654857
   15   -5265.6028886411      6.31e-07  Convergence criterion met
 Total energy in the final basis set =    -5265.6028886411
   15   -5265.6029140917      6.42e-07  Convergence criterion met
 Total energy in the final basis set =    -5265.6029140917
   15   -5265.6029157697      6.44e-07  Convergence criterion met
 Total energy in the final basis set =    -5265.6029157697
   15   -5265.6029210154      6.52e-07  Convergence criterion met
 Total energy in the final basis set =    -5265.6029210154
   15   -5265.6029224975      6.55e-07  Convergence criterion met
 Total energy in the final basis set =    -5265.6029224975
   15   -5265.6029244752      6.60e-07  Convergence criterion met
 Total energy in the final basis set =    -5265.6029244752
   15   -5265.6029258365      6.65e-07  Convergence criterion met
 Total energy in the final basis set =    -5265.6029258365
   15   -5265.6029268842      6.70e-07  Convergence criterion met
 Total energy in the final basis set =    -5265.6029268842

             Standard Nuclear Orientation (Angstroms)
    I     Atom           X                Y                Z
 ----------------------------------------------------------------
    1      Br     -4.5180126580     1.7941087730     0.0052453891
    2      Br      2.9218050456     0.8012705698     0.0136372527
    3      C       0.1030903194     0.0104489841     0.0197502959
    4      C      -0.9221926661    -1.0746895289    -0.0036161322
    5      C       1.5154237314    -0.5950199604    -0.0011659017
    6      H      -0.0019806358     0.6277752674     0.9186340290
    7      H      -0.0094496809     0.6716418614    -0.8463222822
    8      H      -1.2528933566    -1.5072472867    -0.9423325144
    9      H      -1.2406498877    -1.5602156485     0.9130992058
   10      H       1.6961102898    -1.1779226535    -0.9036600740
   11      H       1.7086524990    -1.2114503777     0.8761307320
 ----------------------------------------------------------------

   15   -5265.6029272485      6.73e-07  Convergence criterion met
 Total energy in the final basis set =    -5265.6029272485

                    Orbital Energies (a.u.)
 --------------------------------------------------------------

 Alpha MOs
 -- Occupied --
*******-482.847 -62.559 -62.505 -56.384 -56.376 -56.376 -56.327
-56.323 -56.323 -10.249 -10.211 -10.209  -8.747  -8.692  -6.583
 -6.561  -6.561  -6.523  -6.510  -6.510  -2.674  -2.669  -2.669
 -2.652  -2.652  -2.616  -2.612  -2.612  -2.602  -2.602  -0.828
 -0.799  -0.764  -0.667  -0.602  -0.494  -0.434  -0.431  -0.418
 -0.373  -0.361  -0.360  -0.325  -0.325  -0.277  -0.274  -0.224

 Beta MOs
 -- Occupied --
*******-482.847 -62.558 -62.505 -56.378 -56.375 -56.375 -56.326
-56.323 -56.323 -10.247 -10.209 -10.198  -8.743  -8.692  -6.572
 -6.559  -6.559  -6.522  -6.510  -6.510  -2.666  -2.662  -2.662
 -2.651  -2.651  -2.616  -2.612  -2.612  -2.602  -2.602  -0.822
 -0.755  -0.754  -0.651  -0.590  -0.491  -0.428  -0.425  -0.409
 -0.358  -0.356  -0.311  -0.311  -0.275  -0.274

          Ground-State Mulliken Net Atomic Charges

     Atom                 Charge (a.u.)    Spin (a.u.)
  --------------------------------------------------------
      1 Br                   -0.001511       1.000900
      2 Br                   -0.128538       0.031903
      3 C                    -0.195928      -0.073701
      4 C                    -0.232165       1.064000
      5 C                    -0.243022       0.043192
      6 H                     0.130933       0.013739
      7 H                     0.131195       0.013440
      8 H                     0.116612      -0.046814
      9 H                     0.116548      -0.046799
     10 H                     0.152943       0.000067
     11 H                     0.152932       0.000073
  --------------------------------------------------------
  Sum of atomic charges =     0.000000

                    Cartesian Multipole Moments
 -----------------------------------------------------------------
    Charge (ESU x 10^10)
                 0.0000
    Dipole Moment (Debye)
         X      -1.7168      Y      -1.5253      Z      -0.0162
       Tot       2.2966
    Quadrupole Moments (Debye-Ang)
        XX     -63.2973     XY      -3.4635     YY     -54.5502
        XZ      -0.0149     YZ      -0.0325     ZZ     -56.1312

 Final energy is   -5265.60292724852
 **  OPTIMIZATION CONVERGED  **
 Total job time:  79.21s(wall), 916.61s(cpu)
        *  Thank you very much for using Q-Chem.  Have a nice day.  *
