 Q-Chem 5.1, Q-Chem, Inc., Pleasanton, CA (2018)
 Q-Chem 5.1.1 for Intel X86 EM64T Linux

User input:
--------------------------------------------------------------

$comment
potential surface scanner
$end

$rem
JOBTYPE  PES_SCAN
UNRESTRICTED TRUE
SYM_IGNORE  TRUE
GEOM_OPT_MAX_CYCLES 400
SCF_MAX_CYCLES 400
METHOD   B3LYP
BASIS   6-31G**
PDB_PRINT 2
SCF_CONVERGENCE 6
THRESH 14
SCF_PRINT 1
$end
$molecule
0 1
Br -2.833200 0.507100 -0.012400
Br 2.833200 0.507100 -0.012500
C 0.000000 0.236900 0.032600
C -1.249900 -0.625600 -0.004000
C 1.249800 -0.625500 -0.003800
H 0.000000 0.860400 0.936100
H 0.000100 0.929600 -0.819100
H -1.300300 -1.235900 -0.909900
H -1.328900 -1.269800 0.875900
H 1.300200 -1.236000 -0.909700
H 1.328900 -1.269600 0.876200
$end
$scan
stre 1 4 0.900000 0.901000 0.100000
$end
--------------------------------------------------------------

    9   -5265.7130673013      5.26e-07  Convergence criterion met
 Total energy in the final basis set =    -5265.7130673013
   10   -5265.7010474219      3.43e-07  Convergence criterion met
 Total energy in the final basis set =    -5265.7010474219
   10   -5265.6614263552      3.49e-07  Convergence criterion met
 Total energy in the final basis set =    -5265.6614263552
   10   -5265.5886423454      3.40e-07  Convergence criterion met
 Total energy in the final basis set =    -5265.5886423454
   10   -5265.4762505180      3.34e-07  Convergence criterion met
 Total energy in the final basis set =    -5265.4762505180
   10   -5265.2916843004      3.25e-07  Convergence criterion met
 Total energy in the final basis set =    -5265.2916843004
   10   -5265.0194688196      4.39e-07  Convergence criterion met
 Total energy in the final basis set =    -5265.0194688196
   10   -5264.7234192639      9.06e-07  Convergence criterion met
   13   -5262.8718530774      7.50e-07  Convergence criterion met
 Total energy in the final basis set =    -5262.8718530774
   13   -5262.8718559674      7.99e-07  Convergence criterion met
 Total energy in the final basis set =    -5262.8718559674
   13   -5262.8718571727      8.12e-07  Convergence criterion met
 Total energy in the final basis set =    -5262.8718571727
   13   -5262.8718579242      8.13e-07  Convergence criterion met
 Total energy in the final basis set =    -5262.8718579242
   13   -5262.8718589687      8.17e-07  Convergence criterion met
 Total energy in the final basis set =    -5262.8718589687
   13   -5262.8718601679      8.31e-07  Convergence criterion met
 Total energy in the final basis set =    -5262.8718601679

             Standard Nuclear Orientation (Angstroms)
    I     Atom           X                Y                Z
 ----------------------------------------------------------------
    1      Br     -2.6236875846     0.3377156489     0.0338990886
    2      Br      3.3722359866     0.6781255163     0.0107143558
    3      C       0.2404947018     0.1400993051     0.0223554919
    4      C      -2.1586279963    -0.4320387945    -0.0007132887
    5      C       1.4126857192    -0.6245422848     0.0008254091
    6      H      -0.0403483406     0.6288015321     0.9575720424
    7      H      -0.0378718548     0.6809914209    -0.8840115612
    8      H      -1.7675539378    -1.1330315633    -0.8118561871
    9      H      -1.7640448221    -1.2013160198     0.7434446484
   10      H       1.6791092478    -1.1288044749    -0.9211374782
   11      H       1.6875088808    -1.1673002860     0.8983074790
 ----------------------------------------------------------------

   13   -5262.8718609423      8.50e-07  Convergence criterion met
 Total energy in the final basis set =    -5262.8718609423

                    Orbital Energies (a.u.)
 --------------------------------------------------------------

 Alpha MOs
 -- Occupied --
*******-482.771 -62.749 -62.429 -56.566 -56.560 -56.558 -56.249
-56.247 -56.247 -10.588 -10.212 -10.179  -9.009  -8.615  -6.884
 -6.800  -6.792  -6.442  -6.434  -6.434  -2.985  -2.944  -2.937
 -2.876  -2.876  -2.536  -2.534  -2.534  -2.527  -2.527  -1.122
 -0.761  -0.722  -0.693  -0.675  -0.662  -0.579  -0.472  -0.463
 -0.407  -0.361  -0.307  -0.265  -0.215  -0.213  -0.182

 Beta MOs
 -- Occupied --
*******-482.771 -62.749 -62.429 -56.566 -56.560 -56.558 -56.249
-56.247 -56.247 -10.588 -10.212 -10.179  -9.009  -8.615  -6.884
 -6.800  -6.792  -6.442  -6.434  -6.434  -2.985  -2.944  -2.937
 -2.876  -2.876  -2.536  -2.534  -2.534  -2.527  -2.527  -1.122
 -0.761  -0.722  -0.693  -0.675  -0.662  -0.579  -0.472  -0.463
 -0.407  -0.361  -0.307  -0.265  -0.215  -0.213  -0.182

          Ground-State Mulliken Net Atomic Charges

     Atom                 Charge (a.u.)    Spin (a.u.)
  --------------------------------------------------------
      1 Br                    1.155916       0.000000
      2 Br                   -0.405978       0.000000
      3 C                    -0.341591      -0.000000
      4 C                    -0.875445      -0.000000
      5 C                    -0.206960      -0.000000
      6 H                     0.092814       0.000000
      7 H                     0.093728       0.000000
      8 H                     0.099375      -0.000000
      9 H                     0.099947      -0.000000
     10 H                     0.144359      -0.000000
     11 H                     0.143834       0.000000
  --------------------------------------------------------
  Sum of atomic charges =     0.000000

                    Cartesian Multipole Moments
 -----------------------------------------------------------------
    Charge (ESU x 10^10)
                 0.0000
    Dipole Moment (Debye)
         X     -10.7267      Y      -2.8745      Z      -0.0394
       Tot      11.1052
    Quadrupole Moments (Debye-Ang)
        XX     -67.6281     XY      -3.2573     YY     -56.5925
        XZ      -0.0444     YZ      -0.0836     ZZ     -54.5342

 Final energy is   -5262.87186094232
 **  OPTIMIZATION CONVERGED  **
 Total job time:  379.20s(wall), 4374.00s(cpu)
        *  Thank you very much for using Q-Chem.  Have a nice day.  *
