 Q-Chem 5.1, Q-Chem, Inc., Pleasanton, CA (2018)
 Q-Chem 5.1.1 for Intel X86 EM64T Linux

User input:
--------------------------------------------------------------

$comment
potential surface scanner
$end

$rem
JOBTYPE  PES_SCAN
UNRESTRICTED TRUE
SYM_IGNORE  TRUE
GEOM_OPT_MAX_CYCLES 400
SCF_MAX_CYCLES 400
METHOD   B3LYP
BASIS   6-31G**
PDB_PRINT 2
SCF_CONVERGENCE 6
THRESH 14
SCF_PRINT 1
$end
$molecule
0 3
Br -3.725598 1.249160 0.033772
Br 2.884567 0.773780 0.020779
C 0.043606 0.073141 0.010639
C -1.021606 -0.972624 -0.012151
C 1.434098 -0.579948 0.004418
H -0.044222 0.700391 0.904702
H -0.037682 0.730878 -0.861615
H -1.374831 -1.386482 -0.950466
H -1.363578 -1.439546 0.905149
H 1.603277 -1.174010 -0.893074
H 1.601870 -1.196037 0.887252
$end
$scan
stre 1 4 3.400000 3.401000 0.100000
$end
--------------------------------------------------------------

   16   -5265.6017766597      6.36e-07  Convergence criterion met
 Total energy in the final basis set =    -5265.6017766597
   33   -5265.6008110682      2.27e-07  Convergence criterion met
 Total energy in the final basis set =    -5265.6008110682
   32   -5265.6011508422      7.26e-07  Convergence criterion met
 Total energy in the final basis set =    -5265.6011508422
   32   -5265.6012686705      9.71e-07  Convergence criterion met
 Total energy in the final basis set =    -5265.6012686705
   33   -5265.6012727438      2.43e-07  Convergence criterion met
 Total energy in the final basis set =    -5265.6012727438
   33   -5265.6012793477      8.04e-08  Convergence criterion met
 Total energy in the final basis set =    -5265.6012793477
   33   -5265.6012818063      1.44e-07  Convergence criterion met
 Total energy in the final basis set =    -5265.6012818063
   33   -5265.6012877217      2.38e-07  Convergence criterion met
   33   -5265.6012928960      2.40e-07  Convergence criterion met
 Total energy in the final basis set =    -5265.6012928960
   33   -5265.6012940130      2.43e-07  Convergence criterion met
 Total energy in the final basis set =    -5265.6012940130
   33   -5265.6012952756      2.71e-07  Convergence criterion met
 Total energy in the final basis set =    -5265.6012952756
   32   -5265.6012972796      9.91e-07  Convergence criterion met
 Total energy in the final basis set =    -5265.6012972796
   15   -5265.6013342676      9.55e-07  Convergence criterion met
 Total energy in the final basis set =    -5265.6013342676
   15   -5265.6013354593      9.46e-07  Convergence criterion met
 Total energy in the final basis set =    -5265.6013354593

             Standard Nuclear Orientation (Angstroms)
    I     Atom           X                Y                Z
 ----------------------------------------------------------------
    1      Br     -3.7429089534     1.1187148292     0.0312558769
    2      Br      2.9131950289     0.7330579712     0.0201856959
    3      C       0.0556096557     0.0938821757     0.0119726412
    4      C      -1.0304144923    -0.9308166758    -0.0111464480
    5      C       1.4312643823    -0.5891484647     0.0025146867
    6      H      -0.0171838225     0.7211901476     0.9074860965
    7      H      -0.0124638115     0.7554368502    -0.8589097803
    8      H      -1.3820799663    -1.3467143040    -0.9487683674
    9      H      -1.3887186139    -1.3824954760     0.9070515357
   10      H       1.5868243370    -1.1845106062    -0.8965220909
   11      H       1.5867772561    -1.2098934472     0.8842851537
 ----------------------------------------------------------------

   15   -5265.6013363454      9.26e-07  Convergence criterion met
 Total energy in the final basis set =    -5265.6013363454

                    Orbital Energies (a.u.)
 --------------------------------------------------------------

 Alpha MOs
 -- Occupied --
*******-482.846 -62.560 -62.504 -56.384 -56.376 -56.376 -56.325
-56.322 -56.322 -10.247 -10.207 -10.206  -8.747  -8.691  -6.584
 -6.561  -6.561  -6.521  -6.509  -6.509  -2.674  -2.669  -2.669
 -2.653  -2.653  -2.615  -2.611  -2.611  -2.601  -2.601  -0.826
 -0.800  -0.761  -0.665  -0.600  -0.492  -0.431  -0.428  -0.417
 -0.374  -0.359  -0.358  -0.327  -0.326  -0.276  -0.274  -0.215

 Beta MOs
 -- Occupied --
*******-482.846 -62.558 -62.504 -56.378 -56.375 -56.375 -56.325
-56.322 -56.322 -10.246 -10.208 -10.192  -8.743  -8.691  -6.573
 -6.560  -6.559  -6.521  -6.509  -6.508  -2.666  -2.663  -2.663
 -2.651  -2.651  -2.615  -2.611  -2.611  -2.601  -2.601  -0.820
 -0.756  -0.751  -0.649  -0.588  -0.488  -0.425  -0.422  -0.407
 -0.356  -0.354  -0.311  -0.311  -0.274  -0.273

          Ground-State Mulliken Net Atomic Charges

     Atom                 Charge (a.u.)    Spin (a.u.)
  --------------------------------------------------------
      1 Br                   -0.000061       1.012010
      2 Br                   -0.132895       0.034544
      3 C                    -0.195065      -0.073227
      4 C                    -0.219579       1.048589
      5 C                    -0.243818       0.042632
      6 H                     0.127721       0.013977
      7 H                     0.128026       0.014110
      8 H                     0.115089      -0.046435
      9 H                     0.115158      -0.046427
     10 H                     0.152707       0.000100
     11 H                     0.152716       0.000126
  --------------------------------------------------------
  Sum of atomic charges =    -0.000000

                    Cartesian Multipole Moments
 -----------------------------------------------------------------
    Charge (ESU x 10^10)
                 0.0000
    Dipole Moment (Debye)
         X      -1.9296      Y      -1.4706      Z      -0.0213
       Tot       2.4262
    Quadrupole Moments (Debye-Ang)
        XX     -63.0181     XY      -0.4595     YY     -55.0973
        XZ      -0.0050     YZ       0.0185     ZZ     -56.1623

 Final energy is   -5265.60133634545
 **  OPTIMIZATION CONVERGED  **
 Total job time:  169.18s(wall), 1987.73s(cpu)
        *  Thank you very much for using Q-Chem.  Have a nice day.  *
