 Q-Chem 5.1, Q-Chem, Inc., Pleasanton, CA (2018)
 Q-Chem 5.1.1 for Intel X86 EM64T Linux

User input:
--------------------------------------------------------------

$comment
potential surface scanner
$end

$rem
JOBTYPE  PES_SCAN
UNRESTRICTED TRUE
SYM_IGNORE  TRUE
GEOM_OPT_MAX_CYCLES 400
SCF_MAX_CYCLES 400
METHOD   B3LYP
BASIS   6-31G**
PDB_PRINT 2
SCF_CONVERGENCE 6
THRESH 14
SCF_PRINT 1
$end
$molecule
0 3
Br -4.445026 1.746326 0.005795
Br 2.917695 0.798958 0.013725
C 0.096787 0.016840 0.019604
C -0.931557 -1.065337 -0.003769
C 1.507431 -0.593202 -0.001072
H -0.006354 0.634120 0.918743
H -0.013393 0.677834 -0.846944
H -1.260882 -1.498812 -0.942556
H -1.249308 -1.551258 0.912993
H 1.686139 -1.176725 -0.903547
H 1.698370 -1.210044 0.876428
$end
$scan
stre 1 4 4.400000 4.401000 0.100000
$end
--------------------------------------------------------------

   15   -5265.6029402001      8.19e-07  Convergence criterion met
 Total energy in the final basis set =    -5265.6029402001
   15   -5265.6022585318      8.68e-07  Convergence criterion met
 Total energy in the final basis set =    -5265.6022585318
   15   -5265.6026827165      8.99e-07  Convergence criterion met
 Total energy in the final basis set =    -5265.6026827165
   15   -5265.6028881940      9.41e-07  Convergence criterion met
 Total energy in the final basis set =    -5265.6028881940
   15   -5265.6029108572      9.53e-07  Convergence criterion met
 Total energy in the final basis set =    -5265.6029108572
   15   -5265.6029362901      9.78e-07  Convergence criterion met
 Total energy in the final basis set =    -5265.6029362901
   15   -5265.6029378646      9.80e-07  Convergence criterion met
 Total energy in the final basis set =    -5265.6029378646
   15   -5265.6029424761      9.85e-07  Convergence criterion met
 Total energy in the final basis set =    -5265.6029424761
   15   -5265.6029436994      9.85e-07  Convergence criterion met
 Total energy in the final basis set =    -5265.6029436994
   15   -5265.6029453436      9.87e-07  Convergence criterion met
 Total energy in the final basis set =    -5265.6029453436
   15   -5265.6029464339      9.90e-07  Convergence criterion met
 Total energy in the final basis set =    -5265.6029464339

             Standard Nuclear Orientation (Angstroms)
    I     Atom           X                Y                Z
 ----------------------------------------------------------------
    1      Br     -4.3728485138     1.6976295423     0.0065053582
    2      Br      2.9138614137     0.7965425347     0.0138615581
    3      C       0.0909156362     0.0230178111     0.0193974985
    4      C      -0.9409096153    -1.0558572096    -0.0039724912
    5      C       1.4997088780    -0.5915189625    -0.0009502472
    6      H      -0.0103145018     0.6407391382     0.9184568002
    7      H      -0.0168843705     0.6842031368    -0.8473217891
    8      H      -1.2697467965    -1.4898563971    -0.9427221053
    9      H      -1.2590535156    -1.5416155951     0.9127702331
   10      H       1.6766749950    -1.1757506773    -0.9033160741
   11      H       1.6884983906    -1.2088333214     0.8766912589
 ----------------------------------------------------------------

   15   -5265.6029472487      9.93e-07  Convergence criterion met
 Total energy in the final basis set =    -5265.6029472487

                    Orbital Energies (a.u.)
 --------------------------------------------------------------

 Alpha MOs
 -- Occupied --
*******-482.847 -62.559 -62.506 -56.383 -56.376 -56.376 -56.327
-56.323 -56.323 -10.249 -10.212 -10.209  -8.746  -8.693  -6.583
 -6.561  -6.561  -6.523  -6.510  -6.510  -2.674  -2.668  -2.668
 -2.652  -2.652  -2.617  -2.613  -2.613  -2.603  -2.603  -0.828
 -0.799  -0.765  -0.667  -0.603  -0.494  -0.434  -0.431  -0.419
 -0.373  -0.362  -0.361  -0.325  -0.325  -0.278  -0.275  -0.224

 Beta MOs
 -- Occupied --
*******-482.847 -62.558 -62.506 -56.378 -56.375 -56.375 -56.327
-56.323 -56.323 -10.248 -10.210 -10.198  -8.742  -8.693  -6.572
 -6.559  -6.559  -6.523  -6.510  -6.510  -2.666  -2.662  -2.662
 -2.651  -2.651  -2.616  -2.613  -2.612  -2.603  -2.603  -0.823
 -0.755  -0.754  -0.651  -0.591  -0.491  -0.428  -0.426  -0.409
 -0.359  -0.356  -0.311  -0.310  -0.276  -0.274

          Ground-State Mulliken Net Atomic Charges

     Atom                 Charge (a.u.)    Spin (a.u.)
  --------------------------------------------------------
      1 Br                   -0.002613       1.001256
      2 Br                   -0.127665       0.032138
      3 C                    -0.196593      -0.073437
      4 C                    -0.233446       1.062615
      5 C                    -0.243190       0.043480
      6 H                     0.131182       0.013651
      7 H                     0.131416       0.013405
      8 H                     0.117349      -0.046631
      9 H                     0.117290      -0.046620
     10 H                     0.153138       0.000066
     11 H                     0.153132       0.000077
  --------------------------------------------------------
  Sum of atomic charges =     0.000000

                    Cartesian Multipole Moments
 -----------------------------------------------------------------
    Charge (ESU x 10^10)
                 0.0000
    Dipole Moment (Debye)
         X      -1.6859      Y      -1.5301      Z      -0.0162
       Tot       2.2768
    Quadrupole Moments (Debye-Ang)
        XX     -62.9205     XY      -3.4944     YY     -54.9524
        XZ      -0.0177     YZ      -0.0296     ZZ     -56.1239

 Final energy is   -5265.60294724873
 **  OPTIMIZATION CONVERGED  **
 Total job time:  73.33s(wall), 851.44s(cpu)
        *  Thank you very much for using Q-Chem.  Have a nice day.  *
