 Q-Chem 5.1, Q-Chem, Inc., Pleasanton, CA (2018)
 Q-Chem 5.1.1 for Intel X86 EM64T Linux

User input:
--------------------------------------------------------------

$comment
potential surface scanner
$end

$rem
JOBTYPE  PES_SCAN
UNRESTRICTED TRUE
SYM_IGNORE  TRUE
GEOM_OPT_MAX_CYCLES 400
SCF_MAX_CYCLES 400
METHOD   B3LYP
BASIS   6-31G**
PDB_PRINT 2
SCF_CONVERGENCE 6
THRESH 14
SCF_PRINT 1
$end
$molecule
0 1
Br -2.833200 0.507100 -0.012400
Br 2.833200 0.507100 -0.012500
C 0.000000 0.236900 0.032600
C -1.249900 -0.625600 -0.004000
C 1.249800 -0.625500 -0.003800
H 0.000000 0.860400 0.936100
H 0.000100 0.929600 -0.819100
H -1.300300 -1.235900 -0.909900
H -1.328900 -1.269800 0.875900
H 1.300200 -1.236000 -0.909700
H 1.328900 -1.269600 0.876200
$end
$scan
stre 1 4 1.800000 1.801000 0.100000
$end
--------------------------------------------------------------

    9   -5265.7130673013      5.26e-07  Convergence criterion met
 Total energy in the final basis set =    -5265.7130673013
   10   -5265.7026897788      3.44e-07  Convergence criterion met
 Total energy in the final basis set =    -5265.7026897788
   10   -5265.7024931859      3.42e-07  Convergence criterion met
 Total energy in the final basis set =    -5265.7024931859
   10   -5265.7029860427      3.44e-07  Convergence criterion met
 Total energy in the final basis set =    -5265.7029860427
   10   -5265.7030121939      3.44e-07  Convergence criterion met
 Total energy in the final basis set =    -5265.7030121939
   10   -5265.7030273217      3.44e-07  Convergence criterion met
 Total energy in the final basis set =    -5265.7030273217
   10   -5265.7030284773      3.43e-07  Convergence criterion met
 Total energy in the final basis set =    -5265.7030284773
   10   -5265.7030311324      3.42e-07  Convergence criterion met
 Total energy in the final basis set =    -5265.7030311324

             Standard Nuclear Orientation (Angstroms)
    I     Atom           X                Y                Z
 ----------------------------------------------------------------
    1      Br     -2.7971430407     0.4025293904     0.0035321370
    2      Br      2.8881749365     0.4612207988     0.0042146533
    3      C      -0.0096285218     0.2650852459     0.0260215064
    4      C      -1.2923604422    -0.5851857267    -0.0034126379
    5      C       1.2286166048    -0.6205827278    -0.0044375511
    6      H      -0.0033597550     0.8835873302     0.9285573299
    7      H      -0.0031491413     0.9441972653    -0.8317838881
    8      H      -1.2935133967    -1.2199862228    -0.8948071801
    9      H      -1.3094684463    -1.2581611508     0.8593855691
   10      H       1.2876132799    -1.2272855504    -0.9088215870
   11      H       1.3041179228    -1.2667186521     0.8709516484
 ----------------------------------------------------------------

   10   -5265.7030318523      3.42e-07  Convergence criterion met
 Total energy in the final basis set =    -5265.7030318523

                    Orbital Energies (a.u.)
 --------------------------------------------------------------

 Alpha MOs
 -- Occupied --
*******-482.856 -62.522 -62.514 -56.343 -56.339 -56.339 -56.336
-56.332 -56.332 -10.257 -10.249 -10.216  -8.710  -8.701  -6.540
 -6.532  -6.527  -6.527  -6.519  -6.519  -2.634  -2.630  -2.630
 -2.625  -2.621  -2.621  -2.620  -2.620  -2.611  -2.611  -0.866
 -0.821  -0.749  -0.659  -0.617  -0.509  -0.454  -0.448  -0.441
 -0.387  -0.374  -0.369  -0.292  -0.285  -0.281  -0.277

 Beta MOs
 -- Occupied --
*******-482.856 -62.522 -62.514 -56.343 -56.339 -56.339 -56.336
-56.332 -56.332 -10.257 -10.249 -10.216  -8.710  -8.701  -6.540
 -6.532  -6.527  -6.527  -6.519  -6.519  -2.634  -2.630  -2.630
 -2.625  -2.621  -2.621  -2.620  -2.620  -2.611  -2.611  -0.866
 -0.821  -0.749  -0.659  -0.617  -0.509  -0.454  -0.448  -0.441
 -0.387  -0.374  -0.369  -0.292  -0.285  -0.281  -0.277

          Ground-State Mulliken Net Atomic Charges

     Atom                 Charge (a.u.)    Spin (a.u.)
  --------------------------------------------------------
      1 Br                   -0.065248       0.000000
      2 Br                   -0.106773      -0.000000
      3 C                    -0.190796      -0.000000
      4 C                    -0.256363      -0.000000
      5 C                    -0.261837      -0.000000
      6 H                     0.140942      -0.000000
      7 H                     0.141826       0.000000
      8 H                     0.144587      -0.000000
      9 H                     0.144924       0.000000
     10 H                     0.154234       0.000000
     11 H                     0.154503       0.000000
  --------------------------------------------------------
  Sum of atomic charges =    -0.000000

                    Cartesian Multipole Moments
 -----------------------------------------------------------------
    Charge (ESU x 10^10)
                 0.0000
    Dipole Moment (Debye)
         X      -0.4492      Y      -1.8446      Z      -0.0109
       Tot       1.8985
    Quadrupole Moments (Debye-Ang)
        XX     -66.4413     XY      -0.3098     YY     -54.8301
        XZ      -0.0024     YZ      -0.0036     ZZ     -55.8308

 Final energy is   -5265.70303185230
 **  OPTIMIZATION CONVERGED  **
 Total job time:  48.06s(wall), 556.08s(cpu)
        *  Thank you very much for using Q-Chem.  Have a nice day.  *
