 Q-Chem 5.1, Q-Chem, Inc., Pleasanton, CA (2018)
 Q-Chem 5.1.1 for Intel X86 EM64T Linux

User input:
--------------------------------------------------------------

$comment
potential surface scanner
$end

$rem
JOBTYPE  PES_SCAN
UNRESTRICTED TRUE
SYM_IGNORE  TRUE
GEOM_OPT_MAX_CYCLES 400
SCF_MAX_CYCLES 400
METHOD   B3LYP
BASIS   6-31G**
PDB_PRINT 2
SCF_CONVERGENCE 6
THRESH 14
SCF_PRINT 1
$end
$molecule
0 1
Br -2.833200 0.507100 -0.012400
Br 2.833200 0.507100 -0.012500
C 0.000000 0.236900 0.032600
C -1.249900 -0.625600 -0.004000
C 1.249800 -0.625500 -0.003800
H 0.000000 0.860400 0.936100
H 0.000100 0.929600 -0.819100
H -1.300300 -1.235900 -0.909900
H -1.328900 -1.269800 0.875900
H 1.300200 -1.236000 -0.909700
H 1.328900 -1.269600 0.876200
$end
$scan
stre 1 4 1.300000 1.301000 0.100000
$end
--------------------------------------------------------------

    9   -5265.7130673013      5.26e-07  Convergence criterion met
 Total energy in the final basis set =    -5265.7130673013
   10   -5265.7010474219      3.43e-07  Convergence criterion met
 Total energy in the final basis set =    -5265.7010474219
   10   -5265.6614263552      3.49e-07  Convergence criterion met
 Total energy in the final basis set =    -5265.6614263552
   10   -5265.5886423454      3.40e-07  Convergence criterion met
 Total energy in the final basis set =    -5265.5886423454
   10   -5265.4762505180      3.34e-07  Convergence criterion met
 Total energy in the final basis set =    -5265.4762505180
   10   -5265.3013561158      3.30e-07  Convergence criterion met
 Total energy in the final basis set =    -5265.3013561158
   10   -5265.2897901356      3.55e-07  Convergence criterion met
 Total energy in the final basis set =    -5265.2897901356
   10   -5265.2882380480      4.14e-07  Convergence criterion met
   10   -5265.2886048614      5.52e-07  Convergence criterion met
 Total energy in the final basis set =    -5265.2886048614
   10   -5265.2886265834      5.78e-07  Convergence criterion met
 Total energy in the final basis set =    -5265.2886265834
   10   -5265.2886357702      5.88e-07  Convergence criterion met
 Total energy in the final basis set =    -5265.2886357702
   10   -5265.2886407121      5.91e-07  Convergence criterion met
 Total energy in the final basis set =    -5265.2886407121
   10   -5265.2886432342      5.92e-07  Convergence criterion met
 Total energy in the final basis set =    -5265.2886432342
   10   -5265.2886448877      5.94e-07  Convergence criterion met
 Total energy in the final basis set =    -5265.2886448877

             Standard Nuclear Orientation (Angstroms)
    I     Atom           X                Y                Z
 ----------------------------------------------------------------
    1      Br     -2.5481496256     0.1837352018     0.0042412343
    2      Br      2.8852375127     0.3911082478     0.0034392322
    3      C      -0.0248603490     0.3069568456     0.0265029830
    4      C      -1.4373778737    -0.4916388321    -0.0032442085
    5      C       1.1728873411    -0.6162141108    -0.0047740161
    6      H      -0.0205116913     0.9242258691     0.9322399289
    7      H      -0.0189154563     0.9866865724    -0.8334786061
    8      H      -1.2156405851    -1.1886141631    -0.8570598849
    9      H      -1.2283662692    -1.2274817818     0.8207280754
   10      H       1.2097623626    -1.2246079124    -0.9089993420
   11      H       1.2258346340    -1.2654559366     0.8698046035
 ----------------------------------------------------------------

   10   -5265.2886456212      5.96e-07  Convergence criterion met
 Total energy in the final basis set =    -5265.2886456212

                    Orbital Energies (a.u.)
 --------------------------------------------------------------

 Alpha MOs
 -- Occupied --
*******-482.852 -62.537 -62.510 -56.355 -56.354 -56.354 -56.331
-56.327 -56.327 -10.251 -10.241 -10.208  -8.739  -8.697  -6.572
 -6.555  -6.555  -6.527  -6.514  -6.514  -2.673  -2.661  -2.660
 -2.647  -2.647  -2.620  -2.617  -2.617  -2.607  -2.607  -1.012
 -0.823  -0.743  -0.638  -0.612  -0.535  -0.493  -0.468  -0.465
 -0.403  -0.377  -0.376  -0.285  -0.279  -0.250  -0.245

 Beta MOs
 -- Occupied --
*******-482.852 -62.537 -62.510 -56.355 -56.354 -56.354 -56.331
-56.327 -56.327 -10.251 -10.241 -10.208  -8.739  -8.697  -6.572
 -6.555  -6.555  -6.527  -6.514  -6.514  -2.673  -2.661  -2.660
 -2.647  -2.647  -2.620  -2.617  -2.617  -2.607  -2.607  -1.012
 -0.823  -0.743  -0.638  -0.612  -0.535  -0.493  -0.468  -0.465
 -0.403  -0.377  -0.376  -0.285  -0.279  -0.250  -0.245

          Ground-State Mulliken Net Atomic Charges

     Atom                 Charge (a.u.)    Spin (a.u.)
  --------------------------------------------------------
      1 Br                    0.093366      -0.000000
      2 Br                   -0.114892      -0.000000
      3 C                    -0.234972      -0.000000
      4 C                    -0.228686       0.000000
      5 C                    -0.258305      -0.000000
      6 H                     0.130395       0.000000
      7 H                     0.130834       0.000000
      8 H                     0.087170      -0.000000
      9 H                     0.087486      -0.000000
     10 H                     0.153664       0.000000
     11 H                     0.153940      -0.000000
  --------------------------------------------------------
  Sum of atomic charges =    -0.000000

                    Cartesian Multipole Moments
 -----------------------------------------------------------------
    Charge (ESU x 10^10)
                -0.0000
    Dipole Moment (Debye)
         X      -1.2322      Y      -1.5365      Z      -0.0115
       Tot       1.9696
    Quadrupole Moments (Debye-Ang)
        XX     -65.0233     XY      -0.1095     YY     -54.9689
        XZ       0.0047     YZ      -0.0073     ZZ     -55.3996

 Final energy is   -5265.28864562119
 **  OPTIMIZATION CONVERGED  **
 Total job time:  93.41s(wall), 1026.79s(cpu)
        *  Thank you very much for using Q-Chem.  Have a nice day.  *
