 Q-Chem 5.1, Q-Chem, Inc., Pleasanton, CA (2018)
 Q-Chem 5.1.1 for Intel X86 EM64T Linux

User input:
--------------------------------------------------------------

$comment
potential surface scanner
$end

$rem
JOBTYPE  PES_SCAN
UNRESTRICTED TRUE
SYM_IGNORE  TRUE
GEOM_OPT_MAX_CYCLES 400
SCF_MAX_CYCLES 400
METHOD   B3LYP
BASIS   6-31G**
PDB_PRINT 2
SCF_CONVERGENCE 6
THRESH 14
SCF_PRINT 1
$end
$molecule
0 1
Br -2.833200 0.507100 -0.012400
Br 2.833200 0.507100 -0.012500
C 0.000000 0.236900 0.032600
C -1.249900 -0.625600 -0.004000
C 1.249800 -0.625500 -0.003800
H 0.000000 0.860400 0.936100
H 0.000100 0.929600 -0.819100
H -1.300300 -1.235900 -0.909900
H -1.328900 -1.269800 0.875900
H 1.300200 -1.236000 -0.909700
H 1.328900 -1.269600 0.876200
$end
$scan
stre 1 4 1.600000 1.601000 0.100000
$end
--------------------------------------------------------------

    9   -5265.7130673013      5.26e-07  Convergence criterion met
 Total energy in the final basis set =    -5265.7130673013
   10   -5265.7010474219      3.43e-07  Convergence criterion met
 Total energy in the final basis set =    -5265.7010474219
   10   -5265.6614263552      3.49e-07  Convergence criterion met
 Total energy in the final basis set =    -5265.6614263552
   10   -5265.6420140119      3.55e-07  Convergence criterion met
 Total energy in the final basis set =    -5265.6420140119
   10   -5265.6427421834      3.66e-07  Convergence criterion met
 Total energy in the final basis set =    -5265.6427421834
   10   -5265.6430883291      3.76e-07  Convergence criterion met
 Total energy in the final basis set =    -5265.6430883291
   10   -5265.6431134626      3.77e-07  Convergence criterion met
 Total energy in the final basis set =    -5265.6431134626
   10   -5265.6431269404      3.78e-07  Convergence criterion met
 Total energy in the final basis set =    -5265.6431269404
   10   -5265.6431279428      3.78e-07  Convergence criterion met
 Total energy in the final basis set =    -5265.6431279428
   10   -5265.6431300191      3.78e-07  Convergence criterion met
 Total energy in the final basis set =    -5265.6431300191

             Standard Nuclear Orientation (Angstroms)
    I     Atom           X                Y                Z
 ----------------------------------------------------------------
    1      Br     -2.6938651026     0.3092796900     0.0021893138
    2      Br      2.8833748913     0.4323850486     0.0026976497
    3      C      -0.0198167545     0.2824980779     0.0268130223
    4      C      -1.3412955365    -0.5454287311    -0.0032032380
    5      C       1.2030999560    -0.6187251664    -0.0046977682
    6      H      -0.0090440478     0.9016317629     0.9298548250
    7      H      -0.0083583078     0.9636942856    -0.8303829423
    8      H      -1.2596403166    -1.2075722723    -0.8792551638
    9      H      -1.2761515344    -1.2455665813     0.8442969223
   10      H       1.2520263476    -1.2266430356    -0.9089170311
   11      H       1.2695704053    -1.2668530783     0.8700044103
 ----------------------------------------------------------------

   10   -5265.6431305531      3.78e-07  Convergence criterion met
 Total energy in the final basis set =    -5265.6431305531

                    Orbital Energies (a.u.)
 --------------------------------------------------------------

 Alpha MOs
 -- Occupied --
*******-482.854 -62.526 -62.513 -56.346 -56.343 -56.343 -56.334
-56.330 -56.330 -10.254 -10.238 -10.213  -8.716  -8.700  -6.547
 -6.534  -6.534  -6.530  -6.517  -6.517  -2.642  -2.637  -2.637
 -2.626  -2.626  -2.623  -2.620  -2.620  -2.609  -2.609  -0.912
 -0.825  -0.747  -0.650  -0.615  -0.511  -0.466  -0.453  -0.448
 -0.396  -0.374  -0.372  -0.290  -0.282  -0.274  -0.270

 Beta MOs
 -- Occupied --
*******-482.854 -62.526 -62.513 -56.346 -56.343 -56.343 -56.334
-56.330 -56.330 -10.254 -10.238 -10.213  -8.716  -8.700  -6.547
 -6.534  -6.534  -6.530  -6.517  -6.517  -2.642  -2.637  -2.637
 -2.626  -2.626  -2.623  -2.620  -2.620  -2.609  -2.609  -0.912
 -0.825  -0.747  -0.650  -0.615  -0.511  -0.466  -0.453  -0.448
 -0.396  -0.374  -0.372  -0.290  -0.282  -0.274  -0.270

          Ground-State Mulliken Net Atomic Charges

     Atom                 Charge (a.u.)    Spin (a.u.)
  --------------------------------------------------------
      1 Br                   -0.040464      -0.000000
      2 Br                   -0.110197      -0.000000
      3 C                    -0.203662      -0.000000
      4 C                    -0.224016       0.000000
      5 C                    -0.260956       0.000000
      6 H                     0.136645       0.000000
      7 H                     0.137389      -0.000000
      8 H                     0.128804       0.000000
      9 H                     0.129228       0.000000
     10 H                     0.153468       0.000000
     11 H                     0.153760      -0.000000
  --------------------------------------------------------
  Sum of atomic charges =     0.000000

                    Cartesian Multipole Moments
 -----------------------------------------------------------------
    Charge (ESU x 10^10)
                 0.0000
    Dipole Moment (Debye)
         X      -0.7839      Y      -1.6977      Z      -0.0087
       Tot       1.8700
    Quadrupole Moments (Debye-Ang)
        XX     -65.6775     XY      -0.3690     YY     -54.8683
        XZ      -0.0011     YZ      -0.0049     ZZ     -55.6972

 Final energy is   -5265.64313055314
 **  OPTIMIZATION CONVERGED  **
 Total job time:  59.00s(wall), 685.42s(cpu)
        *  Thank you very much for using Q-Chem.  Have a nice day.  *
