 Q-Chem 5.1, Q-Chem, Inc., Pleasanton, CA (2018)
 Q-Chem 5.1.1 for Intel X86 EM64T Linux

User input:
--------------------------------------------------------------

$comment
potential surface scanner
$end

$rem
JOBTYPE  PES_SCAN
UNRESTRICTED TRUE
SYM_IGNORE  TRUE
GEOM_OPT_MAX_CYCLES 400
SCF_MAX_CYCLES 400
METHOD   B3LYP
BASIS   6-31G**
PDB_PRINT 2
SCF_CONVERGENCE 6
THRESH 14
SCF_PRINT 1
$end
$molecule
0 3
Br -4.798832 1.997203 0.005180
Br 2.934000 0.812931 0.013519
C 0.123332 -0.013883 0.020071
C -0.885088 -1.114473 -0.003550
C 1.543909 -0.599801 -0.001460
H 0.009654 0.601121 0.919559
H 0.001172 0.645437 -0.846238
H -1.207718 -1.552565 -0.942371
H -1.197655 -1.603196 0.913355
H 1.731824 -1.180039 -0.904186
H 1.745305 -1.214036 0.875518
$end
$scan
stre 1 4 4.900000 4.901000 0.100000
$end
--------------------------------------------------------------

   15   -5265.6027864744      7.41e-07  Convergence criterion met
 Total energy in the final basis set =    -5265.6027864744
   15   -5265.6021430152      7.83e-07  Convergence criterion met
 Total energy in the final basis set =    -5265.6021430152
   15   -5265.6025529622      6.81e-07  Convergence criterion met
 Total energy in the final basis set =    -5265.6025529622
   15   -5265.6027566312      6.78e-07  Convergence criterion met
 Total energy in the final basis set =    -5265.6027566312
   15   -5265.6027784070      6.88e-07  Convergence criterion met
 Total energy in the final basis set =    -5265.6027784070
   15   -5265.6027934298      7.57e-07  Convergence criterion met
 Total energy in the final basis set =    -5265.6027934298

             Standard Nuclear Orientation (Angstroms)
    I     Atom           X                Y                Z
 ----------------------------------------------------------------
    1      Br     -4.7373177678     1.9458756793     0.0052156401
    2      Br      2.9334639201     0.8034878530     0.0133782391
    3      C       0.1181411756    -0.0042288911     0.0200522499
    4      C      -0.8976846384    -1.0983231634    -0.0034123383
    5      C       1.5342546770    -0.6001913913    -0.0013809100
    6      H       0.0086796152     0.6134260848     0.9182963393
    7      H       0.0004481802     0.6576853398    -0.8449252910
    8      H      -1.2101058124    -1.5451739931    -0.9419064316
    9      H      -1.1997179630    -1.5962629516     0.9124355826
   10      H       1.7182725512    -1.1818595558    -0.9040078065
   11      H       1.7314690622    -1.2157360105     0.8756517263
 ----------------------------------------------------------------

   15   -5265.6027943811      7.64e-07  Convergence criterion met
 Total energy in the final basis set =    -5265.6027943811

                    Orbital Energies (a.u.)
 --------------------------------------------------------------

 Alpha MOs
 -- Occupied --
*******-482.847 -62.559 -62.505 -56.384 -56.376 -56.376 -56.327
-56.323 -56.323 -10.249 -10.211 -10.209  -8.747  -8.692  -6.583
 -6.561  -6.561  -6.523  -6.510  -6.510  -2.674  -2.669  -2.669
 -2.652  -2.652  -2.616  -2.612  -2.612  -2.602  -2.602  -0.828
 -0.799  -0.764  -0.667  -0.602  -0.494  -0.434  -0.430  -0.419
 -0.373  -0.361  -0.360  -0.325  -0.325  -0.277  -0.274  -0.224

 Beta MOs
 -- Occupied --
*******-482.847 -62.558 -62.505 -56.378 -56.375 -56.375 -56.326
-56.323 -56.323 -10.247 -10.209 -10.198  -8.743  -8.692  -6.572
 -6.559  -6.559  -6.522  -6.510  -6.510  -2.666  -2.663  -2.663
 -2.651  -2.651  -2.616  -2.612  -2.612  -2.602  -2.602  -0.822
 -0.755  -0.754  -0.650  -0.591  -0.490  -0.427  -0.425  -0.409
 -0.358  -0.356  -0.311  -0.311  -0.275  -0.274

          Ground-State Mulliken Net Atomic Charges

     Atom                 Charge (a.u.)    Spin (a.u.)
  --------------------------------------------------------
      1 Br                   -0.000691       1.000399
      2 Br                   -0.128734       0.032510
      3 C                    -0.196036      -0.073542
      4 C                    -0.230426       1.063894
      5 C                    -0.243059       0.043023
      6 H                     0.130332       0.013450
      7 H                     0.130568       0.013315
      8 H                     0.116131      -0.046558
      9 H                     0.116106      -0.046552
     10 H                     0.152899       0.000021
     11 H                     0.152910       0.000040
  --------------------------------------------------------
  Sum of atomic charges =     0.000000

                    Cartesian Multipole Moments
 -----------------------------------------------------------------
    Charge (ESU x 10^10)
                 0.0000
    Dipole Moment (Debye)
         X      -1.7095      Y      -1.5457      Z      -0.0162
       Tot       2.3047
    Quadrupole Moments (Debye-Ang)
        XX     -63.0999     XY      -3.6171     YY     -54.7145
        XZ      -0.0170     YZ      -0.0284     ZZ     -56.1453

 Final energy is   -5265.60279438109
 **  OPTIMIZATION CONVERGED  **
 Total job time:  42.38s(wall), 491.04s(cpu)
        *  Thank you very much for using Q-Chem.  Have a nice day.  *
