 Q-Chem 5.1, Q-Chem, Inc., Pleasanton, CA (2018)
 Q-Chem 5.1.1 for Intel X86 EM64T Linux

User input:
--------------------------------------------------------------

$comment
potential surface scanner
$end

$rem
JOBTYPE  PES_SCAN
UNRESTRICTED TRUE
SYM_IGNORE  TRUE
GEOM_OPT_MAX_CYCLES 400
SCF_MAX_CYCLES 400
METHOD   B3LYP
BASIS   6-31G**
PDB_PRINT 2
SCF_CONVERGENCE 6
THRESH 14
SCF_PRINT 1
$end
$molecule
0 1
Br -2.833200 0.507100 -0.012400
Br 2.833200 0.507100 -0.012500
C 0.000000 0.236900 0.032600
C -1.249900 -0.625600 -0.004000
C 1.249800 -0.625500 -0.003800
H 0.000000 0.860400 0.936100
H 0.000100 0.929600 -0.819100
H -1.300300 -1.235900 -0.909900
H -1.328900 -1.269800 0.875900
H 1.300200 -1.236000 -0.909700
H 1.328900 -1.269600 0.876200
$end
$scan
stre 1 4 1.900000 1.901000 0.100000
$end
--------------------------------------------------------------

    9   -5265.7130673013      5.26e-07  Convergence criterion met
 Total energy in the final basis set =    -5265.7130673013
   10   -5265.7121414147      3.66e-07  Convergence criterion met
 Total energy in the final basis set =    -5265.7121414147
   10   -5265.7122598609      3.66e-07  Convergence criterion met
 Total energy in the final basis set =    -5265.7122598609
   10   -5265.7122882756      3.66e-07  Convergence criterion met
 Total energy in the final basis set =    -5265.7122882756
   10   -5265.7122904113      3.66e-07  Convergence criterion met
 Total energy in the final basis set =    -5265.7122904113
   10   -5265.7122953872      3.66e-07  Convergence criterion met
 Total energy in the final basis set =    -5265.7122953872
   10   -5265.7122980735      3.65e-07  Convergence criterion met
 Total energy in the final basis set =    -5265.7122980735
   10   -5265.7123009179      3.66e-07  Convergence criterion met
 Total energy in the final basis set =    -5265.7123009179

             Standard Nuclear Orientation (Angstroms)
    I     Atom           X                Y                Z
 ----------------------------------------------------------------
    1      Br     -2.8498978555     0.4488615425     0.0283227570
    2      Br      2.8901096254     0.4747590887     0.0246761358
    3      C      -0.0043153373     0.2565156670     0.0174358145
    4      C      -1.2699015632    -0.6059140593    -0.0042374581
    5      C       1.2417532698    -0.6216822571    -0.0033050984
    6      H      -0.0013419594     0.8830701319     0.9138851045
    7      H      -0.0007170980     0.9264245855    -0.8471472459
    8      H      -1.3177429209    -1.2198149101    -0.9060273503
    9      H      -1.3148215284    -1.2682776338     0.8628413473
   10      H       1.3141399755    -1.2258150670    -0.9083299330
   11      H       1.3126353920    -1.2694270883     0.8712859266
 ----------------------------------------------------------------

   10   -5265.7123016466      3.66e-07  Convergence criterion met
 Total energy in the final basis set =    -5265.7123016466

                    Orbital Energies (a.u.)
 --------------------------------------------------------------

 Alpha MOs
 -- Occupied --
*******-482.857 -62.519 -62.516 -56.340 -56.337 -56.337 -56.337
-56.333 -56.333 -10.259 -10.255 -10.218  -8.707  -8.703  -6.537
 -6.533  -6.524  -6.524  -6.520  -6.520  -2.630  -2.627  -2.627
 -2.626  -2.623  -2.623  -2.616  -2.616  -2.612  -2.612  -0.854
 -0.815  -0.750  -0.663  -0.618  -0.509  -0.451  -0.448  -0.440
 -0.382  -0.375  -0.368  -0.292  -0.286  -0.282  -0.279

 Beta MOs
 -- Occupied --
*******-482.857 -62.519 -62.516 -56.340 -56.337 -56.337 -56.337
-56.333 -56.333 -10.259 -10.255 -10.218  -8.707  -8.703  -6.537
 -6.533  -6.524  -6.524  -6.520  -6.520  -2.630  -2.627  -2.627
 -2.626  -2.623  -2.623  -2.616  -2.616  -2.612  -2.612  -0.854
 -0.815  -0.750  -0.663  -0.618  -0.509  -0.451  -0.448  -0.440
 -0.382  -0.375  -0.368  -0.292  -0.286  -0.282  -0.279

          Ground-State Mulliken Net Atomic Charges

     Atom                 Charge (a.u.)    Spin (a.u.)
  --------------------------------------------------------
      1 Br                   -0.083071      -0.000000
      2 Br                   -0.104094       0.000000
      3 C                    -0.186817       0.000000
      4 C                    -0.263345      -0.000000
      5 C                    -0.262631       0.000000
      6 H                     0.144008      -0.000000
      7 H                     0.143916      -0.000000
      8 H                     0.151092      -0.000000
      9 H                     0.150999       0.000000
     10 H                     0.154970      -0.000000
     11 H                     0.154973       0.000000
  --------------------------------------------------------
  Sum of atomic charges =     0.000000

                    Cartesian Multipole Moments
 -----------------------------------------------------------------
    Charge (ESU x 10^10)
                 0.0000
    Dipole Moment (Debye)
         X      -0.2167      Y      -1.9449      Z      -0.0546
       Tot       1.9577
    Quadrupole Moments (Debye-Ang)
        XX     -67.0185     XY      -0.1689     YY     -54.8069
        XZ       0.0010     YZ       0.0056     ZZ     -55.8746

 Final energy is   -5265.71230164658
 **  OPTIMIZATION CONVERGED  **
 Total job time:  47.50s(wall), 551.41s(cpu)
        *  Thank you very much for using Q-Chem.  Have a nice day.  *
