 Q-Chem 5.1, Q-Chem, Inc., Pleasanton, CA (2018)
 Q-Chem 5.1.1 for Intel X86 EM64T Linux

User input:
--------------------------------------------------------------

$comment
potential surface scanner
$end

$rem
JOBTYPE  PES_SCAN
UNRESTRICTED TRUE
SYM_IGNORE  TRUE
GEOM_OPT_MAX_CYCLES 400
SCF_MAX_CYCLES 400
METHOD   B3LYP
BASIS   6-31G**
PDB_PRINT 2
SCF_CONVERGENCE 6
THRESH 14
SCF_PRINT 1
$end
$molecule
0 1
Br -2.833200 0.507100 -0.012400
Br 2.833200 0.507100 -0.012500
C 0.000000 0.236900 0.032600
C -1.249900 -0.625600 -0.004000
C 1.249800 -0.625500 -0.003800
H 0.000000 0.860400 0.936100
H 0.000100 0.929600 -0.819100
H -1.300300 -1.235900 -0.909900
H -1.328900 -1.269800 0.875900
H 1.300200 -1.236000 -0.909700
H 1.328900 -1.269600 0.876200
$end
$scan
stre 1 4 1.200000 1.201000 0.100000
$end
--------------------------------------------------------------

    9   -5265.7130673012      5.26e-07  Convergence criterion met
 Total energy in the final basis set =    -5265.7130673012
   10   -5265.7010474219      3.43e-07  Convergence criterion met
 Total energy in the final basis set =    -5265.7010474219
   10   -5265.6614263552      3.49e-07  Convergence criterion met
 Total energy in the final basis set =    -5265.6614263552
   10   -5265.5886423454      3.40e-07  Convergence criterion met
 Total energy in the final basis set =    -5265.5886423454
   10   -5265.4762505180      3.34e-07  Convergence criterion met
 Total energy in the final basis set =    -5265.4762505180
   10   -5265.2916843004      3.25e-07  Convergence criterion met
 Total energy in the final basis set =    -5265.2916843004
   10   -5265.0821129342      3.88e-07  Convergence criterion met
 Total energy in the final basis set =    -5265.0821129342
   10   -5265.0225945153      4.88e-07  Convergence criterion met
   10   -5265.0103312146      2.71e-07  Convergence criterion met
 Total energy in the final basis set =    -5265.0103312146
   10   -5265.0103453237      2.60e-07  Convergence criterion met
 Total energy in the final basis set =    -5265.0103453237
   10   -5265.0103598127      2.85e-07  Convergence criterion met
 Total energy in the final basis set =    -5265.0103598127
   10   -5265.0103718788      2.87e-07  Convergence criterion met
 Total energy in the final basis set =    -5265.0103718788
   10   -5265.0103764434      2.71e-07  Convergence criterion met
 Total energy in the final basis set =    -5265.0103764434
   10   -5265.0103777105      2.62e-07  Convergence criterion met
 Total energy in the final basis set =    -5265.0103777105

             Standard Nuclear Orientation (Angstroms)
    I     Atom           X                Y                Z
 ----------------------------------------------------------------
    1      Br     -2.5103952753     0.1406197585     0.0127752250
    2      Br      2.8985881183     0.3709327776     0.0079734322
    3      C      -0.0176733114     0.3196186505     0.0241523486
    4      C      -1.4827137422    -0.4787554812    -0.0028803410
    5      C       1.1670032419    -0.6122278494    -0.0043278727
    6      H      -0.0236313251     0.9346263803     0.9317692814
    7      H      -0.0220058341     0.9945266131    -0.8399978978
    8      H      -1.2092065164    -1.1819281624    -0.8532494618
    9      H      -1.2128303029    -1.2262591194     0.8101545640
   10      H       1.2009278803    -1.2214720083    -0.9080044008
   11      H       1.2118370669    -1.2609815593     0.8710351229
 ----------------------------------------------------------------

   10   -5265.0103785957      2.59e-07  Convergence criterion met
 Total energy in the final basis set =    -5265.0103785957

                    Orbital Energies (a.u.)
 --------------------------------------------------------------

 Alpha MOs
 -- Occupied --
*******-482.850 -62.549 -62.508 -56.366 -56.365 -56.365 -56.329
-56.325 -56.325 -10.259 -10.249 -10.205  -8.758  -8.695  -6.595
 -6.572  -6.572  -6.525  -6.512  -6.512  -2.699  -2.681  -2.681
 -2.664  -2.664  -2.618  -2.615  -2.615  -2.605  -2.605  -1.043
 -0.820  -0.740  -0.635  -0.612  -0.553  -0.507  -0.472  -0.466
 -0.404  -0.378  -0.377  -0.282  -0.277  -0.240  -0.233

 Beta MOs
 -- Occupied --
*******-482.850 -62.549 -62.508 -56.366 -56.365 -56.365 -56.329
-56.325 -56.325 -10.259 -10.249 -10.205  -8.758  -8.695  -6.595
 -6.572  -6.572  -6.525  -6.512  -6.512  -2.699  -2.681  -2.681
 -2.664  -2.664  -2.618  -2.615  -2.615  -2.605  -2.605  -1.043
 -0.820  -0.740  -0.635  -0.612  -0.553  -0.507  -0.472  -0.466
 -0.404  -0.378  -0.377  -0.282  -0.277  -0.240  -0.233

          Ground-State Mulliken Net Atomic Charges

     Atom                 Charge (a.u.)    Spin (a.u.)
  --------------------------------------------------------
      1 Br                    0.225297       0.000000
      2 Br                   -0.119051       0.000000
      3 C                    -0.249852      -0.000000
      4 C                    -0.297575       0.000000
      5 C                    -0.255616       0.000000
      6 H                     0.127130       0.000000
      7 H                     0.127513      -0.000000
      8 H                     0.067404      -0.000000
      9 H                     0.067291      -0.000000
     10 H                     0.153623      -0.000000
     11 H                     0.153836      -0.000000
  --------------------------------------------------------
  Sum of atomic charges =    -0.000000

                    Cartesian Multipole Moments
 -----------------------------------------------------------------
    Charge (ESU x 10^10)
                 0.0000
    Dipole Moment (Debye)
         X      -1.5294      Y      -1.4691      Z      -0.0213
       Tot       2.1208
    Quadrupole Moments (Debye-Ang)
        XX     -64.7894     XY       0.0201     YY     -55.0334
        XZ       0.0119     YZ      -0.0113     ZZ     -55.2846

 Final energy is   -5265.01037859566
 **  OPTIMIZATION CONVERGED  **
 Total job time:  115.55s(wall), 1284.88s(cpu)
        *  Thank you very much for using Q-Chem.  Have a nice day.  *
