 Q-Chem 5.1, Q-Chem, Inc., Pleasanton, CA (2018)
 Q-Chem 5.1.1 for Intel X86 EM64T Linux

User input:
--------------------------------------------------------------

$comment
potential surface scanner
$end

$rem
JOBTYPE  PES_SCAN
UNRESTRICTED TRUE
SYM_IGNORE  TRUE
GEOM_OPT_MAX_CYCLES 400
SCF_MAX_CYCLES 400
METHOD   B3LYP
BASIS   6-31G**
PDB_PRINT 2
SCF_CONVERGENCE 6
THRESH 14
SCF_PRINT 1
$end
$molecule
0 1
Br -2.833200 0.507100 -0.012400
Br 2.833200 0.507100 -0.012500
C 0.000000 0.236900 0.032600
C -1.249900 -0.625600 -0.004000
C 1.249800 -0.625500 -0.003800
H 0.000000 0.860400 0.936100
H 0.000100 0.929600 -0.819100
H -1.300300 -1.235900 -0.909900
H -1.328900 -1.269800 0.875900
H 1.300200 -1.236000 -0.909700
H 1.328900 -1.269600 0.876200
$end
$scan
stre 1 4 1.000000 1.001000 0.100000
$end
--------------------------------------------------------------

    9   -5265.7130673012      5.26e-07  Convergence criterion met
 Total energy in the final basis set =    -5265.7130673012
   10   -5265.7010474219      3.43e-07  Convergence criterion met
 Total energy in the final basis set =    -5265.7010474219
   10   -5265.6614263552      3.49e-07  Convergence criterion met
 Total energy in the final basis set =    -5265.6614263552
   10   -5265.5886423454      3.40e-07  Convergence criterion met
 Total energy in the final basis set =    -5265.5886423454
   10   -5265.4762505180      3.34e-07  Convergence criterion met
 Total energy in the final basis set =    -5265.4762505180
   10   -5265.2916843004      3.25e-07  Convergence criterion met
 Total energy in the final basis set =    -5265.2916843004
   10   -5265.0194688196      4.39e-07  Convergence criterion met
 Total energy in the final basis set =    -5265.0194688196
   10   -5264.7234192639      9.06e-07  Convergence criterion met
   12   -5263.9029872123      5.25e-07  Convergence criterion met
 Total energy in the final basis set =    -5263.9029872123
   12   -5263.9029892133      5.28e-07  Convergence criterion met
 Total energy in the final basis set =    -5263.9029892133
   12   -5263.9029913047      5.30e-07  Convergence criterion met
 Total energy in the final basis set =    -5263.9029913047
   12   -5263.9029941030      5.33e-07  Convergence criterion met
 Total energy in the final basis set =    -5263.9029941030
   12   -5263.9029967325      5.36e-07  Convergence criterion met
 Total energy in the final basis set =    -5263.9029967325
   12   -5263.9029980947      5.36e-07  Convergence criterion met
 Total energy in the final basis set =    -5263.9029980947

             Standard Nuclear Orientation (Angstroms)
    I     Atom           X                Y                Z
 ----------------------------------------------------------------
    1      Br     -2.6093367873     0.1664538306     0.0041036040
    2      Br      3.2027122068     0.4324003889     0.0310002504
    3      C       0.1558406619     0.2994908028     0.0221409427
    4      C      -1.8982212973    -0.5366011868    -0.0012250117
    5      C       1.2937610886    -0.5816786775    -0.0097122726
    6      H      -0.0097829156     0.8507218592     0.9509357194
    7      H      -0.0160217753     0.9083760807    -0.8690160066
    8      H      -1.4784917031    -1.1913788188    -0.8167779244
    9      H      -1.4867218514    -1.2134872618     0.8004933458
   10      H       1.4235651790    -1.1450929759    -0.9309242031
   11      H       1.4225971937    -1.2105040413     0.8683815561
 ----------------------------------------------------------------

   12   -5263.9029986007      5.35e-07  Convergence criterion met
 Total energy in the final basis set =    -5263.9029986007

                    Orbital Energies (a.u.)
 --------------------------------------------------------------

 Alpha MOs
 -- Occupied --
*******-482.803 -62.653 -62.461 -56.469 -56.467 -56.466 -56.282
-56.279 -56.279 -10.400 -10.225 -10.178  -8.889  -8.648  -6.746
 -6.694  -6.689  -6.476  -6.466  -6.466  -2.854  -2.818  -2.814
 -2.779  -2.779  -2.570  -2.567  -2.567  -2.559  -2.559  -1.100
 -0.774  -0.697  -0.646  -0.644  -0.619  -0.566  -0.479  -0.462
 -0.401  -0.362  -0.339  -0.254  -0.242  -0.239  -0.188

 Beta MOs
 -- Occupied --
*******-482.803 -62.653 -62.461 -56.469 -56.467 -56.466 -56.282
-56.279 -56.279 -10.400 -10.225 -10.178  -8.889  -8.648  -6.746
 -6.694  -6.689  -6.476  -6.466  -6.466  -2.854  -2.818  -2.814
 -2.779  -2.779  -2.570  -2.567  -2.567  -2.559  -2.559  -1.100
 -0.774  -0.697  -0.646  -0.644  -0.619  -0.566  -0.479  -0.462
 -0.401  -0.362  -0.339  -0.254  -0.242  -0.239  -0.188

          Ground-State Mulliken Net Atomic Charges

     Atom                 Charge (a.u.)    Spin (a.u.)
  --------------------------------------------------------
      1 Br                    0.823270       0.000000
      2 Br                   -0.270269      -0.000000
      3 C                    -0.341258       0.000000
      4 C                    -0.662302      -0.000000
      5 C                    -0.227894      -0.000000
      6 H                     0.105132       0.000000
      7 H                     0.104199      -0.000000
      8 H                     0.091617       0.000000
      9 H                     0.091785      -0.000000
     10 H                     0.142762       0.000000
     11 H                     0.142958       0.000000
  --------------------------------------------------------
  Sum of atomic charges =    -0.000000

                    Cartesian Multipole Moments
 -----------------------------------------------------------------
    Charge (ESU x 10^10)
                 0.0000
    Dipole Moment (Debye)
         X      -6.9187      Y      -2.1801      Z      -0.0712
       Tot       7.2544
    Quadrupole Moments (Debye-Ang)
        XX     -65.9595     XY      -0.5365     YY     -54.8941
        XZ      -0.1589     YZ      -0.0241     ZZ     -54.6923

 Final energy is   -5263.90299860074
 **  OPTIMIZATION CONVERGED  **
 Total job time:  232.75s(wall), 2653.72s(cpu)
        *  Thank you very much for using Q-Chem.  Have a nice day.  *
