 Q-Chem 5.1, Q-Chem, Inc., Pleasanton, CA (2018)
 Q-Chem 5.1.1 for Intel X86 EM64T Linux

User input:
--------------------------------------------------------------

$comment
potential surface scanner
$end

$rem
JOBTYPE  PES_SCAN
UNRESTRICTED TRUE
SYM_IGNORE  TRUE
GEOM_OPT_MAX_CYCLES 400
SCF_MAX_CYCLES 400
METHOD   B3LYP
BASIS   6-31G**
PDB_PRINT 2
SCF_CONVERGENCE 6
THRESH 14
SCF_PRINT 1
$end
$molecule
0 1
Br -2.833200 0.507100 -0.012400
Br 2.833200 0.507100 -0.012500
C 0.000000 0.236900 0.032600
C -1.249900 -0.625600 -0.004000
C 1.249800 -0.625500 -0.003800
H 0.000000 0.860400 0.936100
H 0.000100 0.929600 -0.819100
H -1.300300 -1.235900 -0.909900
H -1.328900 -1.269800 0.875900
H 1.300200 -1.236000 -0.909700
H 1.328900 -1.269600 0.876200
$end
$scan
stre 1 4 1.700000 1.701000 0.100000
$end
--------------------------------------------------------------

    9   -5265.7130673012      5.26e-07  Convergence criterion met
 Total energy in the final basis set =    -5265.7130673012
   10   -5265.7010474219      3.43e-07  Convergence criterion met
 Total energy in the final basis set =    -5265.7010474219
   10   -5265.6808023457      3.46e-07  Convergence criterion met
 Total energy in the final basis set =    -5265.6808023457
   10   -5265.6812990364      3.50e-07  Convergence criterion met
 Total energy in the final basis set =    -5265.6812990364
   10   -5265.6819982882      3.56e-07  Convergence criterion met
 Total energy in the final basis set =    -5265.6819982882
   10   -5265.6820218403      3.57e-07  Convergence criterion met
 Total energy in the final basis set =    -5265.6820218403
   10   -5265.6820378651      3.56e-07  Convergence criterion met
 Total energy in the final basis set =    -5265.6820378651
   10   -5265.6820389395      3.56e-07  Convergence criterion met
 Total energy in the final basis set =    -5265.6820389395
   10   -5265.6820416162      3.56e-07  Convergence criterion met
 Total energy in the final basis set =    -5265.6820416162

             Standard Nuclear Orientation (Angstroms)
    I     Atom           X                Y                Z
 ----------------------------------------------------------------
    1      Br     -2.7459059175     0.3543032204     0.0038976040
    2      Br      2.8862388645     0.4458349007     0.0036899954
    3      C      -0.0149333340     0.2743232024     0.0261339871
    4      C      -1.3157870563    -0.5647751259    -0.0035214477
    5      C       1.2154622072    -0.6194713968    -0.0045051744
    6      H      -0.0060051234     0.8932457800     0.9288311634
    7      H      -0.0054770895     0.9546094774    -0.8312423426
    8      H      -1.2766914984    -1.2135827841    -0.8875070570
    9      H      -1.2922604853    -1.2521224639     0.8514644439
   10      H       1.2693394794    -1.2271945517    -0.9085548678
   11      H       1.2859199532    -1.2664702586     0.8707136956
 ----------------------------------------------------------------

   10   -5265.6820423045      3.55e-07  Convergence criterion met
 Total energy in the final basis set =    -5265.6820423045

                    Orbital Energies (a.u.)
 --------------------------------------------------------------

 Alpha MOs
 -- Occupied --
*******-482.855 -62.524 -62.513 -56.345 -56.341 -56.341 -56.335
-56.331 -56.331 -10.255 -10.243 -10.214  -8.713  -8.700  -6.543
 -6.530  -6.530  -6.530  -6.518  -6.518  -2.638  -2.633  -2.633
 -2.624  -2.623  -2.623  -2.620  -2.620  -2.610  -2.610  -0.886
 -0.824  -0.748  -0.654  -0.616  -0.509  -0.459  -0.450  -0.444
 -0.392  -0.374  -0.370  -0.291  -0.283  -0.278  -0.274

 Beta MOs
 -- Occupied --
*******-482.855 -62.524 -62.513 -56.345 -56.341 -56.341 -56.335
-56.331 -56.331 -10.255 -10.243 -10.214  -8.713  -8.700  -6.543
 -6.530  -6.530  -6.530  -6.518  -6.518  -2.638  -2.633  -2.633
 -2.624  -2.623  -2.623  -2.620  -2.620  -2.610  -2.610  -0.886
 -0.824  -0.748  -0.654  -0.616  -0.509  -0.459  -0.450  -0.444
 -0.392  -0.374  -0.370  -0.291  -0.283  -0.278  -0.274

          Ground-State Mulliken Net Atomic Charges

     Atom                 Charge (a.u.)    Spin (a.u.)
  --------------------------------------------------------
      1 Br                   -0.052407      -0.000000
      2 Br                   -0.108704       0.000000
      3 C                    -0.196367       0.000000
      4 C                    -0.242274       0.000000
      5 C                    -0.261338      -0.000000
      6 H                     0.138654      -0.000000
      7 H                     0.139457      -0.000000
      8 H                     0.137416      -0.000000
      9 H                     0.137769      -0.000000
     10 H                     0.153756       0.000000
     11 H                     0.154038       0.000000
  --------------------------------------------------------
  Sum of atomic charges =     0.000000

                    Cartesian Multipole Moments
 -----------------------------------------------------------------
    Charge (ESU x 10^10)
                 0.0000
    Dipole Moment (Debye)
         X      -0.6349      Y      -1.7608      Z      -0.0107
       Tot       1.8718
    Quadrupole Moments (Debye-Ang)
        XX     -66.0012     XY      -0.3728     YY     -54.8517
        XZ      -0.0011     YZ      -0.0035     ZZ     -55.7725

 Final energy is   -5265.68204230447
 **  OPTIMIZATION CONVERGED  **
 Total job time:  53.85s(wall), 624.72s(cpu)
        *  Thank you very much for using Q-Chem.  Have a nice day.  *
