 Q-Chem 5.1, Q-Chem, Inc., Pleasanton, CA (2018)
 Q-Chem 5.1.1 for Intel X86 EM64T Linux

User input:
--------------------------------------------------------------

$comment
potential surface scanner
$end

$rem
JOBTYPE  PES_SCAN
UNRESTRICTED TRUE
SYM_IGNORE  TRUE
GEOM_OPT_MAX_CYCLES 400
SCF_MAX_CYCLES 400
METHOD   B3LYP
BASIS   6-31G**
PDB_PRINT 2
SCF_CONVERGENCE 6
THRESH 14
SCF_PRINT 1
$end
$molecule
0 1
Br -2.833200 0.507100 -0.012400
Br 2.833200 0.507100 -0.012500
C 0.000000 0.236900 0.032600
C -1.249900 -0.625600 -0.004000
C 1.249800 -0.625500 -0.003800
H 0.000000 0.860400 0.936100
H 0.000100 0.929600 -0.819100
H -1.300300 -1.235900 -0.909900
H -1.328900 -1.269800 0.875900
H 1.300200 -1.236000 -0.909700
H 1.328900 -1.269600 0.876200
$end
$scan
stre 1 4 3.600000 3.601000 0.100000
$end
--------------------------------------------------------------

    9   -5265.7130673013      5.26e-07  Convergence criterion met
 Total energy in the final basis set =    -5265.7130673013
   10   -5265.7103419285      3.62e-07  Convergence criterion met
 Total energy in the final basis set =    -5265.7103419285
   10   -5265.7004159107      4.95e-07  Convergence criterion met
 Total energy in the final basis set =    -5265.7004159107
   11   -5265.6887816216      1.28e-07  Convergence criterion met
 Total energy in the final basis set =    -5265.6887816216
   11   -5265.6772527924      2.89e-07  Convergence criterion met
 Total energy in the final basis set =    -5265.6772527924
   11   -5265.6661831981      4.55e-07  Convergence criterion met
 Total energy in the final basis set =    -5265.6661831981
   12   -5265.6556464166      1.80e-07  Convergence criterion met
 Total energy in the final basis set =    -5265.6556464166
   11   -5265.6456341778      8.18e-07  Convergence criterion met
   13   -5265.6275437690      5.26e-07  Convergence criterion met
 Total energy in the final basis set =    -5265.6275437690
   13   -5265.6195197860      8.62e-07  Convergence criterion met
 Total energy in the final basis set =    -5265.6195197860
   16   -5265.6123357444      7.93e-07  Convergence criterion met
 Total energy in the final basis set =    -5265.6123357444
   15   -5265.6102881070      2.86e-07  Convergence criterion met
 Total energy in the final basis set =    -5265.6102881070
   15   -5265.6102814389      2.78e-07  Convergence criterion met
 Total energy in the final basis set =    -5265.6102814389
   15   -5265.6102842008      2.62e-07  Convergence criterion met
 Total energy in the final basis set =    -5265.6102842008

             Standard Nuclear Orientation (Angstroms)
    I     Atom           X                Y                Z
 ----------------------------------------------------------------
    1      Br     -3.9814734549     1.1457826494     0.0055716213
    2      Br      2.9483625857     0.6141216404     0.0101606625
    3      C       0.0891255790     0.1294623135     0.0238807558
    4      C      -0.9929912804    -0.8614225035    -0.0045162551
    5      C       1.4417938085    -0.6482013291    -0.0034104369
    6      H       0.0512986474     0.7315911980     0.9344932957
    7      H       0.0477945070     0.7840486997    -0.8499837772
    8      H      -1.3490045596    -1.2790410116    -0.9412390924
    9      H      -1.3687779460    -1.3130560393     0.9082654655
   10      H       1.5499192172    -1.2439914769    -0.9086756613
   11      H       1.5638528961    -1.2805941407     0.8748534221
 ----------------------------------------------------------------

   15   -5265.6102846796      2.60e-07  Convergence criterion met
 Total energy in the final basis set =    -5265.6102846796

                    Orbital Energies (a.u.)
 --------------------------------------------------------------

 Alpha MOs
 -- Occupied --
*******-482.805 -62.544 -62.462 -56.365 -56.361 -56.361 -56.283
-56.280 -56.280 -10.318 -10.297 -10.261  -8.731  -8.648  -6.562
 -6.548  -6.548  -6.477  -6.466  -6.466  -2.655  -2.651  -2.651
 -2.640  -2.640  -2.570  -2.567  -2.567  -2.559  -2.559  -0.880
 -0.815  -0.712  -0.689  -0.653  -0.551  -0.495  -0.487  -0.460
 -0.414  -0.409  -0.312  -0.309  -0.252  -0.238  -0.238

 Beta MOs
 -- Occupied --
*******-482.805 -62.544 -62.462 -56.365 -56.361 -56.361 -56.283
-56.280 -56.280 -10.318 -10.297 -10.261  -8.731  -8.648  -6.562
 -6.548  -6.548  -6.477  -6.466  -6.466  -2.655  -2.651  -2.651
 -2.640  -2.640  -2.570  -2.567  -2.567  -2.559  -2.559  -0.880
 -0.815  -0.712  -0.689  -0.653  -0.551  -0.495  -0.487  -0.460
 -0.414  -0.409  -0.312  -0.309  -0.252  -0.238  -0.238

          Ground-State Mulliken Net Atomic Charges

     Atom                 Charge (a.u.)    Spin (a.u.)
  --------------------------------------------------------
      1 Br                   -0.439739       0.000000
      2 Br                   -0.050624       0.000000
      3 C                    -0.226565       0.000000
      4 C                    -0.103429      -0.000000
      5 C                    -0.277924       0.000000
      6 H                     0.182302      -0.000000
      7 H                     0.184361      -0.000000
      8 H                     0.193280      -0.000000
      9 H                     0.193617       0.000000
     10 H                     0.172223       0.000000
     11 H                     0.172499      -0.000000
  --------------------------------------------------------
  Sum of atomic charges =     0.000000

                    Cartesian Multipole Moments
 -----------------------------------------------------------------
    Charge (ESU x 10^10)
                 0.0000
    Dipole Moment (Debye)
         X       5.6427      Y      -4.4983      Z      -0.0220
       Tot       7.2163
    Quadrupole Moments (Debye-Ang)
        XX     -88.3063     XY       8.0901     YY     -56.1226
        XZ       0.0274     YZ      -0.0105     ZZ     -55.7577

 Final energy is   -5265.61028467957
 **  OPTIMIZATION CONVERGED  **
 Total job time:  97.66s(wall), 1076.60s(cpu)
        *  Thank you very much for using Q-Chem.  Have a nice day.  *
