 Q-Chem 5.1, Q-Chem, Inc., Pleasanton, CA (2018)
 Q-Chem 5.1.1 for Intel X86 EM64T Linux

User input:
--------------------------------------------------------------

$comment
potential surface scanner
$end

$rem
JOBTYPE  PES_SCAN
UNRESTRICTED TRUE
SYM_IGNORE  TRUE
GEOM_OPT_MAX_CYCLES 400
SCF_MAX_CYCLES 400
METHOD   B3LYP
BASIS   6-31G**
PDB_PRINT 2
SCF_CONVERGENCE 6
THRESH 14
SCF_PRINT 1
$end
$molecule
0 3
Br -4.235249 1.594136 0.007126
Br 2.908614 0.789021 0.014258
C 0.080885 0.035897 0.018945
C -0.959565 -1.034508 -0.004164
C 1.485098 -0.589300 -0.000638
H -0.015519 0.654615 0.917833
H -0.021148 0.697322 -0.848235
H -1.291729 -1.466114 -0.942826
H -1.279131 -1.519410 0.912538
H 1.658373 -1.175209 -0.902656
H 1.669271 -1.207747 0.877220
$end
$scan
stre 1 4 4.100000 4.101000 0.100000
$end
--------------------------------------------------------------

   17   -5265.6029601960      9.86e-07  Convergence criterion met
 Total energy in the final basis set =    -5265.6029601960
   16   -5265.6022518403      9.78e-07  Convergence criterion met
 Total energy in the final basis set =    -5265.6022518403
   17   -5265.6026917087      9.83e-07  Convergence criterion met
 Total energy in the final basis set =    -5265.6026917087
   19   -5265.6029061590      9.99e-07  Convergence criterion met
 Total energy in the final basis set =    -5265.6029061590
   19   -5265.6029282009      1.00e-06  Convergence criterion met
 Total energy in the final basis set =    -5265.6029282009
   19   -5265.6029548966      9.93e-07  Convergence criterion met
 Total energy in the final basis set =    -5265.6029548966
   19   -5265.6029566160      9.91e-07  Convergence criterion met
 Total energy in the final basis set =    -5265.6029566160
   18   -5265.6029604859      9.96e-07  Convergence criterion met
 Total energy in the final basis set =    -5265.6029604859

             Standard Nuclear Orientation (Angstroms)
    I     Atom           X                Y                Z
 ----------------------------------------------------------------
    1      Br     -4.1680736885     1.5421043264     0.0071468283
    2      Br      2.9067714792     0.7824498547     0.0143317250
    3      C       0.0751328991     0.0449279885     0.0188877900
    4      C      -0.9692400090    -1.0225276390    -0.0042426318
    5      C       1.4756250260    -0.5884595910    -0.0005141640
    6      H      -0.0173465509     0.6639543184     0.9179370377
    7      H      -0.0229976801     0.7063753954    -0.8486503858
    8      H      -1.2983171880    -1.4562092982    -0.9431023301
    9      H      -1.2842798937    -1.5104518076     0.9124911500
   10      H       1.6460789742    -1.1756226654    -0.9022831378
   11      H       1.6565466315    -1.2078378822     0.8773991186
 ----------------------------------------------------------------

   17   -5265.6029613245      9.99e-07  Convergence criterion met
 Total energy in the final basis set =    -5265.6029613245

                    Orbital Energies (a.u.)
 --------------------------------------------------------------

 Alpha MOs
 -- Occupied --
*******-482.848 -62.558 -62.506 -56.383 -56.375 -56.375 -56.327
-56.324 -56.324 -10.250 -10.213 -10.210  -8.746  -8.693  -6.582
 -6.560  -6.560  -6.523  -6.511  -6.511  -2.673  -2.668  -2.668
 -2.651  -2.651  -2.617  -2.613  -2.613  -2.603  -2.603  -0.829
 -0.798  -0.765  -0.668  -0.604  -0.495  -0.435  -0.432  -0.420
 -0.372  -0.363  -0.361  -0.324  -0.324  -0.278  -0.275  -0.225

 Beta MOs
 -- Occupied --
*******-482.848 -62.557 -62.506 -56.377 -56.374 -56.374 -56.327
-56.324 -56.324 -10.248 -10.211 -10.199  -8.742  -8.693  -6.571
 -6.558  -6.558  -6.523  -6.511  -6.511  -2.665  -2.662  -2.661
 -2.650  -2.650  -2.617  -2.613  -2.613  -2.603  -2.603  -0.824
 -0.755  -0.754  -0.652  -0.592  -0.492  -0.429  -0.426  -0.410
 -0.360  -0.357  -0.310  -0.310  -0.276  -0.275

          Ground-State Mulliken Net Atomic Charges

     Atom                 Charge (a.u.)    Spin (a.u.)
  --------------------------------------------------------
      1 Br                   -0.005010       1.001802
      2 Br                   -0.126734       0.032908
      3 C                    -0.197319      -0.072975
      4 C                    -0.234899       1.060054
      5 C                    -0.243684       0.043853
      6 H                     0.131926       0.013696
      7 H                     0.132100       0.013161
      8 H                     0.118487      -0.046306
      9 H                     0.118311      -0.046298
     10 H                     0.153427       0.000055
     11 H                     0.153395       0.000050
  --------------------------------------------------------
  Sum of atomic charges =    -0.000000

                    Cartesian Multipole Moments
 -----------------------------------------------------------------
    Charge (ESU x 10^10)
                 0.0000
    Dipole Moment (Debye)
         X      -1.6406      Y      -1.5340      Z      -0.0172
       Tot       2.2461
    Quadrupole Moments (Debye-Ang)
        XX     -62.7714     XY      -3.3573     YY     -55.2070
        XZ      -0.0102     YZ      -0.0344     ZZ     -56.1169

 Final energy is   -5265.60296132452
 **  OPTIMIZATION CONVERGED  **
 Total job time:  63.65s(wall), 741.68s(cpu)
        *  Thank you very much for using Q-Chem.  Have a nice day.  *
