 Q-Chem 5.1, Q-Chem, Inc., Pleasanton, CA (2018)
 Q-Chem 5.1.1 for Intel X86 EM64T Linux

User input:
--------------------------------------------------------------

$comment
potential surface scanner
$end

$rem
JOBTYPE  PES_SCAN
UNRESTRICTED TRUE
SYM_IGNORE  TRUE
GEOM_OPT_MAX_CYCLES 400
SCF_MAX_CYCLES 400
METHOD   B3LYP
BASIS   6-31G**
PDB_PRINT 2
SCF_CONVERGENCE 6
THRESH 14
SCF_PRINT 1
$end
$molecule
0 1
Br -2.833200 0.507100 -0.012400
Br 2.833200 0.507100 -0.012500
C 0.000000 0.236900 0.032600
C -1.249900 -0.625600 -0.004000
C 1.249800 -0.625500 -0.003800
H 0.000000 0.860400 0.936100
H 0.000100 0.929600 -0.819100
H -1.300300 -1.235900 -0.909900
H -1.328900 -1.269800 0.875900
H 1.300200 -1.236000 -0.909700
H 1.328900 -1.269600 0.876200
$end
$scan
stre 1 4 3.700000 3.701000 0.100000
$end
--------------------------------------------------------------

    9   -5265.7130673013      5.26e-07  Convergence criterion met
 Total energy in the final basis set =    -5265.7130673013
   10   -5265.7103419285      3.62e-07  Convergence criterion met
 Total energy in the final basis set =    -5265.7103419285
   10   -5265.7004159107      4.95e-07  Convergence criterion met
 Total energy in the final basis set =    -5265.7004159107
   11   -5265.6887816216      1.28e-07  Convergence criterion met
 Total energy in the final basis set =    -5265.6887816216
   11   -5265.6772527924      2.89e-07  Convergence criterion met
 Total energy in the final basis set =    -5265.6772527924
   11   -5265.6661831981      4.55e-07  Convergence criterion met
 Total energy in the final basis set =    -5265.6661831981
   12   -5265.6556464166      1.80e-07  Convergence criterion met
 Total energy in the final basis set =    -5265.6556464166
   11   -5265.6456341778      8.18e-07  Convergence criterion met
   16   -5265.6123357444      7.93e-07  Convergence criterion met
 Total energy in the final basis set =    -5265.6123357444
   16   -5265.6064009590      2.71e-07  Convergence criterion met
 Total energy in the final basis set =    -5265.6064009590
   17   -5265.6061931012      1.14e-07  Convergence criterion met
 Total energy in the final basis set =    -5265.6061931012
   16   -5265.5902734182      8.37e-07  Convergence criterion met
 Total energy in the final basis set =    -5265.5902734182
   16   -5265.6061192888      8.35e-07  Convergence criterion met
 Total energy in the final basis set =    -5265.6061192888
   17   -5265.6061904393      1.15e-07  Convergence criterion met
 Total energy in the final basis set =    -5265.6061904393

             Standard Nuclear Orientation (Angstroms)
    I     Atom           X                Y                Z
 ----------------------------------------------------------------
    1      Br     -4.0586307138     1.1867801603     0.0058538877
    2      Br      2.9536931995     0.6176950055     0.0106502026
    3      C       0.0953921176     0.1230296179     0.0236914714
    4      C      -0.9833901986    -0.8705934874    -0.0045067616
    5      C       1.4521485115    -0.6500416924    -0.0033961847
    6      H       0.0564011335     0.7252827173     0.9341543692
    7      H       0.0528024265     0.7772476639    -0.8504034014
    8      H      -1.3434208270    -1.2847554670    -0.9412832811
    9      H      -1.3629547190    -1.3186394911     0.9085438559
   10      H       1.5621057981    -1.2452358750    -0.9086761291
   11      H       1.5757532716    -1.2820691520     0.8747719712
 ----------------------------------------------------------------

   17   -5265.6061951727      1.14e-07  Convergence criterion met
 Total energy in the final basis set =    -5265.6061951727

                    Orbital Energies (a.u.)
 --------------------------------------------------------------

 Alpha MOs
 -- Occupied --
*******-482.804 -62.545 -62.461 -56.366 -56.362 -56.362 -56.282
-56.279 -56.279 -10.318 -10.298 -10.262  -8.732  -8.646  -6.562
 -6.549  -6.548  -6.475  -6.464  -6.464  -2.656  -2.652  -2.652
 -2.641  -2.641  -2.569  -2.566  -2.566  -2.557  -2.557  -0.881
 -0.815  -0.713  -0.687  -0.654  -0.552  -0.496  -0.488  -0.461
 -0.415  -0.410  -0.313  -0.310  -0.249  -0.237  -0.237

 Beta MOs
 -- Occupied --
*******-482.804 -62.545 -62.461 -56.366 -56.362 -56.362 -56.282
-56.279 -56.279 -10.318 -10.298 -10.262  -8.732  -8.646  -6.562
 -6.549  -6.548  -6.475  -6.464  -6.464  -2.656  -2.652  -2.652
 -2.641  -2.641  -2.569  -2.566  -2.566  -2.557  -2.557  -0.881
 -0.815  -0.713  -0.687  -0.654  -0.552  -0.496  -0.488  -0.461
 -0.415  -0.410  -0.313  -0.310  -0.249  -0.237  -0.237

          Ground-State Mulliken Net Atomic Charges

     Atom                 Charge (a.u.)    Spin (a.u.)
  --------------------------------------------------------
      1 Br                   -0.440869       0.000000
      2 Br                   -0.049608      -0.000000
      3 C                    -0.227778       0.000000
      4 C                    -0.103940      -0.000000
      5 C                    -0.277505      -0.000000
      6 H                     0.182592      -0.000000
      7 H                     0.184602      -0.000000
      8 H                     0.193287       0.000000
      9 H                     0.193616       0.000000
     10 H                     0.172668      -0.000000
     11 H                     0.172935      -0.000000
  --------------------------------------------------------
  Sum of atomic charges =    -0.000000

                    Cartesian Multipole Moments
 -----------------------------------------------------------------
    Charge (ESU x 10^10)
                 0.0000
    Dipole Moment (Debye)
         X       5.8711      Y      -4.6057      Z      -0.0230
       Tot       7.4621
    Quadrupole Moments (Debye-Ang)
        XX     -89.6696     XY       8.6432     YY     -56.3179
        XZ       0.0300     YZ      -0.0117     ZZ     -55.7555

 Final energy is   -5265.60619517273
 **  OPTIMIZATION CONVERGED  **
 Total job time:  107.60s(wall), 1248.36s(cpu)
        *  Thank you very much for using Q-Chem.  Have a nice day.  *
