 Q-Chem 5.1, Q-Chem, Inc., Pleasanton, CA (2018)
 Q-Chem 5.1.1 for Intel X86 EM64T Linux

User input:
--------------------------------------------------------------

$comment
potential surface scanner
$end

$rem
JOBTYPE  PES_SCAN
UNRESTRICTED TRUE
SYM_IGNORE  TRUE
GEOM_OPT_MAX_CYCLES 400
SCF_MAX_CYCLES 400
METHOD   B3LYP
BASIS   6-31G**
PDB_PRINT 2
SCF_CONVERGENCE 6
THRESH 14
SCF_PRINT 1
$end
$molecule
0 3
Br -2.654469 0.967722 0.805839
Br 2.724962 0.877342 0.163236
C -0.053606 0.057559 -0.265433
C -1.104892 -0.993175 -0.215775
C 1.308302 -0.497419 0.170926
H -0.279651 0.911223 0.423010
H 0.011824 0.507670 -1.260129
H -1.684550 -1.245904 -1.094282
H -1.192951 -1.639603 0.650211
H 1.644535 -1.275497 -0.514710
H 1.280394 -0.891213 1.186515
$end
$scan
stre 1 4 2.600000 2.601000 0.100000
$end
--------------------------------------------------------------

   14   -5265.5905225640      7.37e-07  Convergence criterion met
 Total energy in the final basis set =    -5265.5905225640
   14   -5265.5859629763      9.10e-07  Convergence criterion met
 Total energy in the final basis set =    -5265.5859629763
   14   -5265.5859593368      6.55e-07  Convergence criterion met
 Total energy in the final basis set =    -5265.5859593368
   13   -5265.5859938309      9.33e-07  Convergence criterion met
 Total energy in the final basis set =    -5265.5859938309
   13   -5265.5860048701      9.78e-07  Convergence criterion met
 Total energy in the final basis set =    -5265.5860048701
   14   -5265.5860128211      6.71e-07  Convergence criterion met
 Total energy in the final basis set =    -5265.5860128211

             Standard Nuclear Orientation (Angstroms)
    I     Atom           X                Y                Z
 ----------------------------------------------------------------
    1      Br     -2.6394618229     0.9078309854     0.7746055642
    2      Br      2.7341581395     0.8594404806     0.1568287611
    3      C      -0.0569768909     0.0728256453    -0.2594842033
    4      C      -1.1215674361    -0.9653026561    -0.1987225566
    5      C       1.3001742827    -0.4988119150     0.1704219709
    6      H      -0.2655836162     0.9337581113     0.4266600281
    7      H       0.0063569453     0.5190535332    -1.2560808962
    8      H      -1.6704941011    -1.2466913093    -1.0883857056
    9      H      -1.1819839630    -1.6304504702     0.6555546453
   10      H       1.6229317484    -1.2802712867    -0.5178769215
   11      H       1.2723447141    -0.8926761186     1.1858873135
 ----------------------------------------------------------------

   14   -5265.5860138119      7.13e-07  Convergence criterion met
 Total energy in the final basis set =    -5265.5860138119

                    Orbital Energies (a.u.)
 --------------------------------------------------------------

 Alpha MOs
 -- Occupied --
*******-482.856 -62.543 -62.515 -56.367 -56.360 -56.360 -56.336
-56.332 -56.332 -10.259 -10.227 -10.204  -8.731  -8.702  -6.566
 -6.546  -6.545  -6.532  -6.519  -6.519  -2.657  -2.652  -2.652
 -2.638  -2.638  -2.625  -2.622  -2.621  -2.612  -2.612  -0.842
 -0.797  -0.766  -0.673  -0.614  -0.503  -0.453  -0.441  -0.428
 -0.379  -0.371  -0.335  -0.331  -0.314  -0.285  -0.283  -0.195

 Beta MOs
 -- Occupied --
*******-482.856 -62.541 -62.515 -56.361 -56.359 -56.359 -56.336
-56.332 -56.332 -10.258 -10.227 -10.190  -8.726  -8.702  -6.555
 -6.544  -6.543  -6.532  -6.519  -6.519  -2.649  -2.646  -2.646
 -2.636  -2.636  -2.625  -2.621  -2.621  -2.612  -2.612  -0.834
 -0.771  -0.740  -0.657  -0.599  -0.496  -0.444  -0.433  -0.409
 -0.372  -0.365  -0.304  -0.299  -0.283  -0.282

          Ground-State Mulliken Net Atomic Charges

     Atom                 Charge (a.u.)    Spin (a.u.)
  --------------------------------------------------------
      1 Br                   -0.028053       0.965719
      2 Br                   -0.108784       0.033883
      3 C                    -0.212570      -0.004257
      4 C                    -0.260749       0.969888
      5 C                    -0.251089       0.043820
      6 H                     0.136484       0.063359
      7 H                     0.147254       0.004047
      8 H                     0.128524      -0.042761
      9 H                     0.122741      -0.042594
     10 H                     0.165821       0.010418
     11 H                     0.160421      -0.001523
  --------------------------------------------------------
  Sum of atomic charges =     0.000000

                    Cartesian Multipole Moments
 -----------------------------------------------------------------
    Charge (ESU x 10^10)
                 0.0000
    Dipole Moment (Debye)
         X      -0.8039      Y      -1.7914      Z      -0.4146
       Tot       2.0068
    Quadrupole Moments (Debye-Ang)
        XX     -61.6854     XY      -0.7268     YY     -57.0004
        XZ       0.3913     YZ      -0.8232     ZZ     -56.2685

 Final energy is   -5265.58601381189
 **  OPTIMIZATION CONVERGED  **
 Total job time:  46.92s(wall), 540.06s(cpu)
        *  Thank you very much for using Q-Chem.  Have a nice day.  *
