 Q-Chem 5.1, Q-Chem, Inc., Pleasanton, CA (2018)
 Q-Chem 5.1.1 for Intel X86 EM64T Linux

User input:
--------------------------------------------------------------

$comment
potential surface scanner
$end

$rem
JOBTYPE  PES_SCAN
UNRESTRICTED TRUE
SYM_IGNORE  TRUE
GEOM_OPT_MAX_CYCLES 400
SCF_MAX_CYCLES 400
METHOD   B3LYP
BASIS   6-31G**
PDB_PRINT 2
SCF_CONVERGENCE 6
THRESH 14
SCF_PRINT 1
$end
$molecule
0 3
Br -2.662049 0.786283 0.656893
Br 2.767112 0.806126 0.125915
C -0.065081 0.118632 -0.226654
C -1.158350 -0.900762 -0.151047
C 1.282674 -0.508323 0.156279
H -0.223703 0.972680 0.475094
H -0.016800 0.569061 -1.221956
H -1.584901 -1.281489 -1.072229
H -1.171758 -1.582072 0.694124
H 1.562758 -1.286473 -0.553688
H 1.269995 -0.914958 1.166675
$end
$scan
stre 1 4 2.300000 2.301000 0.100000
$end
--------------------------------------------------------------

   14   -5265.5728406084      9.71e-07  Convergence criterion met
 Total energy in the final basis set =    -5265.5728406084
   14   -5265.5636714373      6.51e-07  Convergence criterion met
 Total energy in the final basis set =    -5265.5636714373
   14   -5265.5636505200      7.94e-07  Convergence criterion met
 Total energy in the final basis set =    -5265.5636505200
   14   -5265.5637559305      8.51e-07  Convergence criterion met
 Total energy in the final basis set =    -5265.5637559305
   14   -5265.5637935014      8.65e-07  Convergence criterion met
 Total energy in the final basis set =    -5265.5637935014
   14   -5265.5638109975      8.62e-07  Convergence criterion met
 Total energy in the final basis set =    -5265.5638109975
   14   -5265.5638185829      8.51e-07  Convergence criterion met
 Total energy in the final basis set =    -5265.5638185829
   14   -5265.5638259059      8.41e-07  Convergence criterion met
   16   -5265.5643390069      6.36e-07  Convergence criterion met
 Total energy in the final basis set =    -5265.5643390069
   16   -5265.5643949816      5.75e-07  Convergence criterion met
 Total energy in the final basis set =    -5265.5643949816
   15   -5265.5644483045      9.54e-07  Convergence criterion met
 Total energy in the final basis set =    -5265.5644483045
   15   -5265.5644685851      8.97e-07  Convergence criterion met
 Total energy in the final basis set =    -5265.5644685851
   15   -5265.5644772225      8.50e-07  Convergence criterion met
 Total energy in the final basis set =    -5265.5644772225
   15   -5265.5644788757      8.47e-07  Convergence criterion met
 Total energy in the final basis set =    -5265.5644788757

             Standard Nuclear Orientation (Angstroms)
    I     Atom           X                Y                Z
 ----------------------------------------------------------------
    1      Br     -2.9159528657     0.6660962122    -0.0094471970
    2      Br      2.8425146782     0.7192949146    -0.0227530998
    3      C      -0.0605649861     0.1967620445    -0.0443498795
    4      C      -1.1684088471    -0.8290959297     0.0127287588
    5      C       1.2799388600    -0.5471523097     0.0418293858
    6      H      -0.1200851566     0.9086944400     0.7881652523
    7      H      -0.0905049860     0.7708545003    -0.9770907760
    8      H      -1.3046733052    -1.4426851560    -0.8750371164
    9      H      -1.2821421316    -1.3635602822     0.9532117632
   10      H       1.4277806570    -1.2194624837    -0.8014692513
   11      H       1.3919950831    -1.0810409502     0.9836181599
 ----------------------------------------------------------------

   15   -5265.5644791374      8.51e-07  Convergence criterion met
 Total energy in the final basis set =    -5265.5644791374

                    Orbital Energies (a.u.)
 --------------------------------------------------------------

 Alpha MOs
 -- Occupied --
*******-482.854 -62.552 -62.513 -56.375 -56.370 -56.369 -56.334
-56.330 -56.330 -10.256 -10.217 -10.196  -8.740  -8.700  -6.574
 -6.558  -6.554  -6.529  -6.518  -6.517  -2.666  -2.663  -2.660
 -2.648  -2.648  -2.623  -2.620  -2.619  -2.610  -2.610  -0.836
 -0.807  -0.761  -0.666  -0.608  -0.498  -0.439  -0.429  -0.428
 -0.369  -0.365  -0.355  -0.349  -0.319  -0.285  -0.282  -0.154

 Beta MOs
 -- Occupied --
*******-482.854 -62.550 -62.512 -56.370 -56.368 -56.367 -56.333
-56.330 -56.330 -10.254 -10.217 -10.183  -8.736  -8.699  -6.564
 -6.554  -6.552  -6.528  -6.517  -6.516  -2.658  -2.656  -2.654
 -2.646  -2.645  -2.622  -2.619  -2.618  -2.610  -2.610  -0.826
 -0.774  -0.742  -0.650  -0.597  -0.495  -0.423  -0.421  -0.418
 -0.362  -0.357  -0.320  -0.304  -0.280  -0.279

          Ground-State Mulliken Net Atomic Charges

     Atom                 Charge (a.u.)    Spin (a.u.)
  --------------------------------------------------------
      1 Br                    0.056889       1.065910
      2 Br                   -0.115052       0.124940
      3 C                    -0.202400      -0.023076
      4 C                    -0.314864       0.809258
      5 C                    -0.246470       0.061545
      6 H                     0.132093       0.011599
      7 H                     0.134342       0.007645
      8 H                     0.118909      -0.029055
      9 H                     0.118479      -0.029408
     10 H                     0.159249       0.000794
     11 H                     0.158827      -0.000152
  --------------------------------------------------------
  Sum of atomic charges =     0.000000

                    Cartesian Multipole Moments
 -----------------------------------------------------------------
    Charge (ESU x 10^10)
                 0.0000
    Dipole Moment (Debye)
         X      -1.1427      Y      -1.5951      Z       0.0548
       Tot       1.9629
    Quadrupole Moments (Debye-Ang)
        XX     -63.2019     XY       0.0699     YY     -56.1731
        XZ       0.0688     YZ      -0.0082     ZZ     -56.1785

 Final energy is   -5265.56447913742
 **  OPTIMIZATION CONVERGED  **
 Total job time:  156.52s(wall), 1834.74s(cpu)
        *  Thank you very much for using Q-Chem.  Have a nice day.  *
