 Q-Chem 5.1, Q-Chem, Inc., Pleasanton, CA (2018)
 Q-Chem 5.1.1 for Intel X86 EM64T Linux

User input:
--------------------------------------------------------------

$comment
potential surface scanner
$end

$rem
JOBTYPE  PES_SCAN
UNRESTRICTED TRUE
SYM_IGNORE  TRUE
GEOM_OPT_MAX_CYCLES 400
SCF_MAX_CYCLES 400
METHOD   B3LYP
BASIS   6-31G**
PDB_PRINT 2
SCF_CONVERGENCE 6
THRESH 14
SCF_PRINT 1
$end
$molecule
0 1
Br -3.321003 0.787053 0.038135
Br 2.913015 0.562140 0.024296
C 0.037547 0.192476 0.016071
C -1.107205 -0.757880 -0.009622
C 1.343280 -0.631445 -0.003170
H 0.008612 0.805666 0.918884
H 0.010411 0.851236 -0.854118
H -1.383250 -1.240096 -0.941218
H -1.384745 -1.287678 0.895220
H 1.441849 -1.230629 -0.908150
H 1.441393 -1.272140 0.873073
$end
$scan
stre 1 4 2.800000 2.801000 0.100000
$end
--------------------------------------------------------------

   11   -5265.6653830165      5.89e-07  Convergence criterion met
 Total energy in the final basis set =    -5265.6653830165
   12   -5265.6574708811      1.72e-07  Convergence criterion met
 Total energy in the final basis set =    -5265.6574708811
   12   -5265.6573385359      1.75e-07  Convergence criterion met
 Total energy in the final basis set =    -5265.6573385359
   12   -5265.6574918927      1.81e-07  Convergence criterion met
 Total energy in the final basis set =    -5265.6574918927
   12   -5265.6575039663      1.83e-07  Convergence criterion met
 Total energy in the final basis set =    -5265.6575039663
   12   -5265.6575125461      1.85e-07  Convergence criterion met
 Total energy in the final basis set =    -5265.6575125461
   12   -5265.6575148275      1.85e-07  Convergence criterion met
 Total energy in the final basis set =    -5265.6575148275
   12   -5265.6575159811      1.85e-07  Convergence criterion met
 Total energy in the final basis set =    -5265.6575159811

             Standard Nuclear Orientation (Angstroms)
    I     Atom           X                Y                Z
 ----------------------------------------------------------------
    1      Br     -3.3908847756     0.8232249614     0.0479895341
    2      Br      2.9173263436     0.5686205851     0.0235262879
    3      C       0.0434080258     0.1854660664     0.0142355988
    4      C      -1.0905659537    -0.7720242676    -0.0129396076
    5      C       1.3553629196    -0.6333800969    -0.0015252180
    6      H       0.0105701862     0.7980874977     0.9172915139
    7      H       0.0157259236     0.8423677573    -0.8573073139
    8      H      -1.3855101576    -1.2385650491    -0.9466494023
    9      H      -1.3866242727    -1.2895560538     0.8925321937
   10      H       1.4565173431    -1.2347961139    -0.9046385747
   11      H       1.4545784175    -1.2707422866     0.8768859881
 ----------------------------------------------------------------

   12   -5265.6575167753      1.84e-07  Convergence criterion met
 Total energy in the final basis set =    -5265.6575167753

                    Orbital Energies (a.u.)
 --------------------------------------------------------------

 Alpha MOs
 -- Occupied --
*******-482.825 -62.533 -62.483 -56.355 -56.351 -56.351 -56.304
-56.300 -56.300 -10.304 -10.283 -10.245  -8.720  -8.668  -6.551
 -6.537  -6.537  -6.497  -6.486  -6.486  -2.644  -2.641  -2.640
 -2.630  -2.630  -2.590  -2.587  -2.587  -2.578  -2.578  -0.865
 -0.801  -0.715  -0.695  -0.640  -0.535  -0.477  -0.472  -0.450
 -0.399  -0.395  -0.304  -0.300  -0.287  -0.257  -0.257

 Beta MOs
 -- Occupied --
*******-482.825 -62.533 -62.483 -56.355 -56.351 -56.351 -56.304
-56.300 -56.300 -10.304 -10.283 -10.245  -8.720  -8.668  -6.551
 -6.537  -6.537  -6.497  -6.486  -6.486  -2.644  -2.641  -2.640
 -2.630  -2.630  -2.590  -2.587  -2.587  -2.578  -2.578  -0.865
 -0.801  -0.715  -0.695  -0.640  -0.535  -0.477  -0.472  -0.450
 -0.399  -0.395  -0.304  -0.300  -0.287  -0.257  -0.257

          Ground-State Mulliken Net Atomic Charges

     Atom                 Charge (a.u.)    Spin (a.u.)
  --------------------------------------------------------
      1 Br                   -0.358321       0.000000
      2 Br                   -0.068925       0.000000
      3 C                    -0.205240       0.000000
      4 C                    -0.142204      -0.000000
      5 C                    -0.275952      -0.000000
      6 H                     0.172877      -0.000000
      7 H                     0.172373       0.000000
      8 H                     0.186692       0.000000
      9 H                     0.187156       0.000000
     10 H                     0.165660       0.000000
     11 H                     0.165885       0.000000
  --------------------------------------------------------
  Sum of atomic charges =     0.000000

                    Cartesian Multipole Moments
 -----------------------------------------------------------------
    Charge (ESU x 10^10)
                -0.0000
    Dipole Moment (Debye)
         X       3.1611      Y      -3.4181      Z      -0.1116
       Tot       4.6571
    Quadrupole Moments (Debye-Ang)
        XX     -77.3060     XY       3.7151     YY     -54.9909
        XZ       0.2117     YZ      -0.0240     ZZ     -55.8472

 Final energy is   -5265.65751677529
 **  OPTIMIZATION CONVERGED  **
 Total job time:  51.39s(wall), 593.64s(cpu)
        *  Thank you very much for using Q-Chem.  Have a nice day.  *
