 Q-Chem 5.1, Q-Chem, Inc., Pleasanton, CA (2018)
 Q-Chem 5.1.1 for Intel X86 EM64T Linux

User input:
--------------------------------------------------------------

$comment
potential surface scanner
$end

$rem
JOBTYPE  PES_SCAN
UNRESTRICTED TRUE
SYM_IGNORE  TRUE
GEOM_OPT_MAX_CYCLES 400
SCF_MAX_CYCLES 400
METHOD   B3LYP
BASIS   6-31G**
PDB_PRINT 2
SCF_CONVERGENCE 6
THRESH 14
SCF_PRINT 1
$end
$molecule
0 1
Br -3.070438 0.625524 0.030113
Br 2.900238 0.525179 0.023471
C 0.016341 0.223713 0.017605
C -1.182709 -0.687926 -0.006341
C 1.293268 -0.625240 -0.003350
H 0.001667 0.843622 0.916875
H 0.002692 0.888736 -0.848843
H -1.361771 -1.234707 -0.928257
H -1.360368 -1.283855 0.885039
H 1.380150 -1.226571 -0.908615
H 1.380831 -1.269774 0.871705
$end
$scan
stre 1 4 2.400000 2.401000 0.100000
$end
--------------------------------------------------------------

   10   -5265.6982683142      8.18e-07  Convergence criterion met
 Total energy in the final basis set =    -5265.6982683142
   11   -5265.6902519620      1.45e-07  Convergence criterion met
 Total energy in the final basis set =    -5265.6902519620
   11   -5265.6902110568      1.51e-07  Convergence criterion met
 Total energy in the final basis set =    -5265.6902110568
   11   -5265.6902887182      1.56e-07  Convergence criterion met
 Total energy in the final basis set =    -5265.6902887182

             Standard Nuclear Orientation (Angstroms)
    I     Atom           X                Y                Z
 ----------------------------------------------------------------
    1      Br     -3.1283208575     0.6692228820     0.0271665416
    2      Br      2.9024878694     0.5367247346     0.0228914177
    3      C       0.0212147351     0.2152338951     0.0185270962
    4      C      -1.1627217072    -0.7074879247    -0.0058018883
    5      C       1.3060345298    -0.6265182084    -0.0040300690
    6      H       0.0029703144     0.8328140784     0.9190535744
    7      H       0.0028776325     0.8792647495    -0.8482939215
    8      H      -1.3686472000    -1.2382289298    -0.9306147654
    9      H      -1.3696201463    -1.2852315962     0.8902941672
   10      H       1.3957075148    -1.2259453778    -0.9101579763
   11      H       1.3979183151    -1.2711473026     0.8703678233
 ----------------------------------------------------------------

   11   -5265.6902898211      1.57e-07  Convergence criterion met
 Total energy in the final basis set =    -5265.6902898211

                    Orbital Energies (a.u.)
 --------------------------------------------------------------

 Alpha MOs
 -- Occupied --
*******-482.842 -62.525 -62.499 -56.346 -56.342 -56.342 -56.321
-56.317 -56.317 -10.287 -10.271 -10.233  -8.712  -8.685  -6.542
 -6.529  -6.529  -6.515  -6.503  -6.503  -2.636  -2.632  -2.632
 -2.622  -2.622  -2.608  -2.605  -2.605  -2.595  -2.595  -0.854
 -0.793  -0.735  -0.683  -0.630  -0.522  -0.461  -0.460  -0.442
 -0.387  -0.385  -0.326  -0.293  -0.292  -0.272  -0.272

 Beta MOs
 -- Occupied --
*******-482.842 -62.525 -62.499 -56.346 -56.342 -56.342 -56.321
-56.317 -56.317 -10.287 -10.271 -10.233  -8.712  -8.685  -6.542
 -6.529  -6.529  -6.515  -6.503  -6.503  -2.636  -2.632  -2.632
 -2.622  -2.622  -2.608  -2.605  -2.605  -2.595  -2.595  -0.854
 -0.793  -0.735  -0.683  -0.630  -0.522  -0.461  -0.460  -0.442
 -0.387  -0.385  -0.326  -0.293  -0.292  -0.272  -0.272

          Ground-State Mulliken Net Atomic Charges

     Atom                 Charge (a.u.)    Spin (a.u.)
  --------------------------------------------------------
      1 Br                   -0.241034       0.000000
      2 Br                   -0.085155       0.000000
      3 C                    -0.188621       0.000000
      4 C                    -0.208035       0.000000
      5 C                    -0.270049       0.000000
      6 H                     0.160402       0.000000
      7 H                     0.160554       0.000000
      8 H                     0.175489       0.000000
      9 H                     0.175433      -0.000000
     10 H                     0.160497      -0.000000
     11 H                     0.160520      -0.000000
  --------------------------------------------------------
  Sum of atomic charges =    -0.000000

                    Cartesian Multipole Moments
 -----------------------------------------------------------------
    Charge (ESU x 10^10)
                -0.0000
    Dipole Moment (Debye)
         X       1.5277      Y      -2.7251      Z      -0.0643
       Tot       3.1248
    Quadrupole Moments (Debye-Ang)
        XX     -71.9481     XY       1.6161     YY     -54.7699
        XZ       0.0581     YZ      -0.0042     ZZ     -55.9111

 Final energy is   -5265.69028982108
 **  OPTIMIZATION CONVERGED  **
 Total job time:  28.07s(wall), 320.57s(cpu)
        *  Thank you very much for using Q-Chem.  Have a nice day.  *
