 Q-Chem 5.1, Q-Chem, Inc., Pleasanton, CA (2018)
 Q-Chem 5.1.1 for Intel X86 EM64T Linux

User input:
--------------------------------------------------------------

$comment
potential surface scanner
$end

$rem
JOBTYPE  PES_SCAN
UNRESTRICTED TRUE
SYM_IGNORE  TRUE
GEOM_OPT_MAX_CYCLES 400
SCF_MAX_CYCLES 400
METHOD   B3LYP
BASIS   6-31G**
PDB_PRINT 2
SCF_CONVERGENCE 6
THRESH 14
SCF_PRINT 1
$end
$molecule
0 1
S -1.384800 -0.000090 -0.000650
C 0.254740 0.000000 -0.000460
C 1.069650 1.268800 0.000070
C 1.069930 -1.268640 0.000060
H 1.723780 1.290230 0.882300
H 1.730580 1.287500 -0.877070
H 0.440180 2.158930 -0.003450
H 0.440730 -2.158960 -0.002030
H 1.725260 -1.289320 0.881400
H 1.729680 -1.287880 -0.877960
$end
$scan
stre 1 2 1.100000 1.101000 0.100000
$end
--------------------------------------------------------------

    8    -516.1187619766      7.37e-07  Convergence criterion met
 Total energy in the final basis set =     -516.1187619766
    8    -516.1012628011      6.20e-07  Convergence criterion met
 Total energy in the final basis set =     -516.1012628011
    8    -516.0171684350      8.30e-07  Convergence criterion met
 Total energy in the final basis set =     -516.0171684350
    9    -515.9069807260      2.83e-07  Convergence criterion met
 Total energy in the final basis set =     -515.9069807260
    9    -515.6060823188      3.46e-07  Convergence criterion met
 Total energy in the final basis set =     -515.6060823188
    9    -515.5700766685      3.54e-07  Convergence criterion met
 Total energy in the final basis set =     -515.5700766685
    9    -515.5315536138      3.64e-07  Convergence criterion met
 Total energy in the final basis set =     -515.5315536138
    9    -515.5313515773      3.66e-07  Convergence criterion met
    9    -515.5322049328      3.73e-07  Convergence criterion met
 Total energy in the final basis set =     -515.5322049328
    9    -515.5322829171      3.73e-07  Convergence criterion met
 Total energy in the final basis set =     -515.5322829171
    9    -515.5323015677      3.73e-07  Convergence criterion met
 Total energy in the final basis set =     -515.5323015677
    9    -515.5323058524      3.73e-07  Convergence criterion met
 Total energy in the final basis set =     -515.5323058524
    9    -515.5323070569      3.73e-07  Convergence criterion met
 Total energy in the final basis set =     -515.5323070569
    9    -515.5323083928      3.72e-07  Convergence criterion met
 Total energy in the final basis set =     -515.5323083928

             Standard Nuclear Orientation (Angstroms)
    I     Atom           X                Y                Z
 ----------------------------------------------------------------
    1      S      -1.0606824913    -0.0001494950    -0.0013952621
    2      C       0.0393173248    -0.0000339099    -0.0007586072
    3      C       1.0493301705     1.2507370693     0.0002205688
    4      C       1.0496000119    -1.2505884661     0.0002237808
    5      H       1.6910346962     1.2267484303     0.8866610020
    6      H       1.6970055357     1.2244083586    -0.8817606069
    7      H       0.4725429849     2.1814192864    -0.0028057734
    8      H       0.4730100910    -2.1813965964    -0.0014361828
    9      H       1.6923967970    -1.2257824460     0.8858454074
   10      H       1.6961748794    -1.2247922312    -0.8825843266
 ----------------------------------------------------------------

    9    -515.5323090318      3.72e-07  Convergence criterion met
 Total energy in the final basis set =     -515.5323090318

                    Orbital Energies (a.u.)
 --------------------------------------------------------------

 Alpha MOs
 -- Occupied --
-88.811 -10.218 -10.173 -10.173  -7.933  -5.900  -5.886  -5.878
 -0.933  -0.713  -0.684  -0.480  -0.473  -0.470  -0.418  -0.381
 -0.375  -0.375  -0.358  -0.183

 Beta MOs
 -- Occupied --
-88.811 -10.218 -10.173 -10.173  -7.933  -5.900  -5.886  -5.878
 -0.933  -0.713  -0.684  -0.480  -0.473  -0.470  -0.418  -0.381
 -0.375  -0.375  -0.358  -0.183

          Ground-State Mulliken Net Atomic Charges

     Atom                 Charge (a.u.)    Spin (a.u.)
  --------------------------------------------------------
      1 S                     0.138355       0.000000
      2 C                    -0.030787      -0.000000
      3 C                    -0.378693      -0.000000
      4 C                    -0.378692      -0.000000
      5 H                     0.112352      -0.000000
      6 H                     0.112279       0.000000
      7 H                     0.100279       0.000000
      8 H                     0.100278       0.000000
      9 H                     0.112331       0.000000
     10 H                     0.112299       0.000000
  --------------------------------------------------------
  Sum of atomic charges =     0.000000

                    Cartesian Multipole Moments
 -----------------------------------------------------------------
    Charge (ESU x 10^10)
                -0.0000
    Dipole Moment (Debye)
         X       0.9558      Y       0.0001      Z       0.0015
       Tot       0.9558
    Quadrupole Moments (Debye-Ang)
        XX     -32.9446     XY      -0.0000     YY     -33.0515
        XZ      -0.0019     YZ       0.0004     ZZ     -30.2272

 Final energy is   -515.532309031774
 **  OPTIMIZATION CONVERGED  **
 Total job time:  43.38s(wall), 489.27s(cpu)
        *  Thank you very much for using Q-Chem.  Have a nice day.  *
