 Q-Chem 5.1, Q-Chem, Inc., Pleasanton, CA (2018)
 Q-Chem 5.1.1 for Intel X86 EM64T Linux

User input:
--------------------------------------------------------------

$comment
potential surface scanner
$end

$rem
JOBTYPE  PES_SCAN
UNRESTRICTED TRUE
SYM_IGNORE  TRUE
GEOM_OPT_MAX_CYCLES 400
SCF_MAX_CYCLES 400
METHOD   B3LYP
BASIS   6-31G**
PDB_PRINT 2
SCF_CONVERGENCE 6
THRESH 14
SCF_PRINT 1
$end
$molecule
0 1
S -1.418819 -0.000184 -0.001450
C 0.281181 -0.000008 -0.000586
C 1.073696 1.274577 0.000190
C 1.073968 -1.274423 0.000212
H 1.729623 1.308476 0.880801
H 1.735747 1.306380 -0.875861
H 0.428971 2.152556 -0.002884
H 0.429429 -2.152543 -0.001563
H 1.731014 -1.307607 0.880010
H 1.734920 -1.306656 -0.876659
$end
$scan
stre 1 2 1.800000 1.801000 0.100000
$end
--------------------------------------------------------------

    8    -516.1164856359      8.53e-07  Convergence criterion met
 Total energy in the final basis set =     -516.1164856359
    9    -516.1055939304      2.81e-07  Convergence criterion met
 Total energy in the final basis set =     -516.1055939304
    9    -516.1053721129      2.85e-07  Convergence criterion met
 Total energy in the final basis set =     -516.1053721129

             Standard Nuclear Orientation (Angstroms)
    I     Atom           X                Y                Z
 ----------------------------------------------------------------
    1      S      -1.4867719855    -0.0001912707    -0.0017639671
    2      C       0.3132276133    -0.0000042628    -0.0005947907
    3      C       1.0810465118     1.2802823216     0.0002257384
    4      C       1.0813198230    -1.2801268126     0.0002584705
    5      H       1.7374672698     1.3220720388     0.8808800710
    6      H       1.7433690399     1.3202282669    -0.8760440800
    7      H       0.4241041214     2.1486583706    -0.0026804776
    8      H       0.4245612862    -2.1486460582    -0.0014029551
    9      H       1.7388240171    -1.3212344179     0.8801311115
   10      H       1.7425823030    -1.3204701758    -0.8767991210
 ----------------------------------------------------------------

    9    -516.1053906771      2.85e-07  Convergence criterion met
 Total energy in the final basis set =     -516.1053906771

                    Orbital Energies (a.u.)
 --------------------------------------------------------------

 Alpha MOs
 -- Occupied --
-88.858 -10.282 -10.207 -10.207  -7.916  -5.880  -5.879  -5.871
 -0.825  -0.720  -0.680  -0.538  -0.458  -0.451  -0.445  -0.411
 -0.385  -0.341  -0.262  -0.215

 Beta MOs
 -- Occupied --
-88.858 -10.282 -10.207 -10.207  -7.916  -5.880  -5.879  -5.871
 -0.825  -0.720  -0.680  -0.538  -0.458  -0.451  -0.445  -0.411
 -0.385  -0.341  -0.262  -0.215

          Ground-State Mulliken Net Atomic Charges

     Atom                 Charge (a.u.)    Spin (a.u.)
  --------------------------------------------------------
      1 S                    -0.160822      -0.000000
      2 C                    -0.022770      -0.000000
      3 C                    -0.336678       0.000000
      4 C                    -0.336679       0.000000
      5 H                     0.136243      -0.000000
      6 H                     0.136055      -0.000000
      7 H                     0.156176      -0.000000
      8 H                     0.156176       0.000000
      9 H                     0.136196      -0.000000
     10 H                     0.136102      -0.000000
  --------------------------------------------------------
  Sum of atomic charges =     0.000000

                    Cartesian Multipole Moments
 -----------------------------------------------------------------
    Charge (ESU x 10^10)
                -0.0000
    Dipole Moment (Debye)
         X       3.6599      Y       0.0004      Z       0.0041
       Tot       3.6599
    Quadrupole Moments (Debye-Ang)
        XX     -33.3375     XY      -0.0003     YY     -31.7293
        XZ      -0.0011     YZ       0.0006     ZZ     -32.5330

 Final energy is   -516.105390677145
 **  OPTIMIZATION CONVERGED  **
 Total job time:  10.89s(wall), 121.34s(cpu)
        *  Thank you very much for using Q-Chem.  Have a nice day.  *
