 Q-Chem 5.1, Q-Chem, Inc., Pleasanton, CA (2018)
 Q-Chem 5.1.1 for Intel X86 EM64T Linux

User input:
--------------------------------------------------------------

$comment
potential surface scanner
$end

$rem
JOBTYPE  PES_SCAN
UNRESTRICTED TRUE
SYM_IGNORE  TRUE
GEOM_OPT_MAX_CYCLES 400
SCF_MAX_CYCLES 400
METHOD   B3LYP
BASIS   6-31G**
PDB_PRINT 2
SCF_CONVERGENCE 6
THRESH 14
SCF_PRINT 1
$end
$molecule
0 1
S -3.007078 -0.036245 1.001454
C 0.582232 0.006090 0.104202
C 1.325329 1.256217 0.016332
C 1.252847 -1.246228 -0.221888
H 0.991316 2.013643 0.731334
H 2.424424 1.189355 -0.034856
H 0.968814 1.624249 -0.968291
H 0.585056 -1.990276 -0.666257
H 1.461774 -1.634295 0.796209
H 2.215020 -1.181947 -0.756028
$end
$scan
stre 1 2 3.800000 3.801000 0.100000
$end
--------------------------------------------------------------

   14    -515.8778241438      3.98e-07  Convergence criterion met
 Total energy in the final basis set =     -515.8778241438
   14    -515.8749878132      9.82e-07  Convergence criterion met
 Total energy in the final basis set =     -515.8749878132
   14    -515.8749433356      7.93e-07  Convergence criterion met
 Total energy in the final basis set =     -515.8749433356
   14    -515.8749443580      6.62e-07  Convergence criterion met
 Total energy in the final basis set =     -515.8749443580

             Standard Nuclear Orientation (Angstroms)
    I     Atom           X                Y                Z
 ----------------------------------------------------------------
    1      S      -3.0985581674    -0.0379434848     1.0228861543
    2      C       0.5881142646     0.0063388876     0.1028398875
    3      C       1.3355456059     1.2547216521     0.0138229871
    4      C       1.2622914048    -1.2445899647    -0.2243722893
    5      H       1.0058885881     2.0132953408     0.7298417425
    6      H       2.4346530329     1.1863798054    -0.0400959490
    7      H       0.9775843674     1.6244307571    -0.9695816428
    8      H       0.5970384481    -1.9913248152    -0.6682790212
    9      H       1.4726761177    -1.6312886565     0.7939774380
   10      H       2.2245003379    -1.1794565217    -0.7588283071
 ----------------------------------------------------------------

   14    -515.8749445520      6.38e-07  Convergence criterion met
 Total energy in the final basis set =     -515.8749445520

                    Orbital Energies (a.u.)
 --------------------------------------------------------------

 Alpha MOs
 -- Occupied --
-88.868 -10.277 -10.229 -10.229  -7.923  -5.898  -5.877  -5.877
 -0.838  -0.746  -0.610  -0.571  -0.480  -0.477  -0.457  -0.433
 -0.399  -0.237  -0.208  -0.208

 Beta MOs
 -- Occupied --
-88.868 -10.277 -10.229 -10.229  -7.923  -5.898  -5.877  -5.877
 -0.838  -0.746  -0.610  -0.571  -0.480  -0.477  -0.457  -0.433
 -0.399  -0.237  -0.208  -0.208

          Ground-State Mulliken Net Atomic Charges

     Atom                 Charge (a.u.)    Spin (a.u.)
  --------------------------------------------------------
      1 S                    -0.272586       0.000000
      2 C                     0.092075      -0.000000
      3 C                    -0.392456      -0.000000
      4 C                    -0.393248       0.000000
      5 H                     0.176624      -0.000000
      6 H                     0.122331       0.000000
      7 H                     0.184027      -0.000000
      8 H                     0.178270       0.000000
      9 H                     0.183395       0.000000
     10 H                     0.121568      -0.000000
  --------------------------------------------------------
  Sum of atomic charges =     0.000000

                    Cartesian Multipole Moments
 -----------------------------------------------------------------
    Charge (ESU x 10^10)
                -0.0000
    Dipole Moment (Debye)
         X       6.5166      Y       0.0480      Z      -1.7161
       Tot       6.7390
    Quadrupole Moments (Debye-Ang)
        XX     -39.8593     XY      -0.1501     YY     -30.7147
        XZ       3.2427     YZ      -0.3905     ZZ     -34.9451

 Final energy is   -515.874944552037
 **  OPTIMIZATION CONVERGED  **
 Total job time:  16.57s(wall), 190.53s(cpu)
        *  Thank you very much for using Q-Chem.  Have a nice day.  *
