 Q-Chem 5.1, Q-Chem, Inc., Pleasanton, CA (2018)
 Q-Chem 5.1.1 for Intel X86 EM64T Linux

User input:
--------------------------------------------------------------

$comment
potential surface scanner
$end

$rem
JOBTYPE  PES_SCAN
UNRESTRICTED TRUE
SYM_IGNORE  TRUE
GEOM_OPT_MAX_CYCLES 400
SCF_MAX_CYCLES 400
METHOD   B3LYP
BASIS   6-31G**
PDB_PRINT 2
SCF_CONVERGENCE 6
THRESH 14
SCF_PRINT 1
$end
$molecule
0 1
S -2.911889 -0.000278 -0.000343
C 0.488111 0.000004 0.000903
C 1.226998 1.265484 -0.000916
C 1.227277 -1.265317 -0.000742
H 1.891397 1.301115 0.880221
H 1.906583 1.298015 -0.870377
H 0.586089 2.148247 -0.006566
H 0.586557 -2.148234 -0.001978
H 1.897050 -1.299573 0.876330
H 1.901562 -1.298899 -0.874321
$end
$scan
stre 1 2 3.500000 3.501000 0.100000
$end
--------------------------------------------------------------

   15    -515.8839885355      1.34e-07  Convergence criterion met
 Total energy in the final basis set =     -515.8839885355
   15    -515.8796909625      5.47e-07  Convergence criterion met
 Total energy in the final basis set =     -515.8796909625
   15    -515.8796232616      4.30e-07  Convergence criterion met
 Total energy in the final basis set =     -515.8796232616
   15    -515.8796268192      2.67e-07  Convergence criterion met
 Total energy in the final basis set =     -515.8796268192
   14    -515.8796282532      9.83e-07  Convergence criterion met
 Total energy in the final basis set =     -515.8796282532
   14    -515.8796584208      6.62e-07  Convergence criterion met
 Total energy in the final basis set =     -515.8796584208
   14    -515.8796935164      8.86e-07  Convergence criterion met
 Total energy in the final basis set =     -515.8796935164
   15    -515.8799926088      3.66e-07  Convergence criterion met
   13    -515.8845791298      8.67e-07  Convergence criterion met
 Total energy in the final basis set =     -515.8845791298
   13    -515.8846339580      8.35e-07  Convergence criterion met
 Total energy in the final basis set =     -515.8846339580
   13    -515.8847109456      7.41e-07  Convergence criterion met
 Total energy in the final basis set =     -515.8847109456
   13    -515.8847821686      6.57e-07  Convergence criterion met
 Total energy in the final basis set =     -515.8847821686
   13    -515.8848172292      5.57e-07  Convergence criterion met
 Total energy in the final basis set =     -515.8848172292
   13    -515.8848219457      5.47e-07  Convergence criterion met
 Total energy in the final basis set =     -515.8848219457

             Standard Nuclear Orientation (Angstroms)
    I     Atom           X                Y                Z
 ----------------------------------------------------------------
    1      S      -2.8141728874    -0.0197068734     0.9834792530
    2      C       0.5682486928     0.0023008738     0.0841798981
    3      C       1.2997870428     1.2587809106     0.0135285616
    4      C       1.2395633889    -1.2530015443    -0.2191544102
    5      H       0.9484724498     2.0028193029     0.7344237695
    6      H       2.3994701657     1.1993304612    -0.0227084736
    7      H       0.9515464025     1.6391738333    -0.9688276658
    8      H       0.5787313102    -1.9908842376    -0.6839053301
    9      H       1.4106688275    -1.6447755955     0.8046067411
   10      H       2.2174196071    -1.1934731310    -0.7234113436
 ----------------------------------------------------------------

   13    -515.8848224750      5.52e-07  Convergence criterion met
 Total energy in the final basis set =     -515.8848224750

                    Orbital Energies (a.u.)
 --------------------------------------------------------------

 Alpha MOs
 -- Occupied --
-88.860 -10.287 -10.233 -10.233  -7.915  -5.889  -5.869  -5.868
 -0.843  -0.750  -0.602  -0.575  -0.484  -0.481  -0.462  -0.437
 -0.405  -0.244  -0.201  -0.201

 Beta MOs
 -- Occupied --
-88.860 -10.287 -10.233 -10.233  -7.915  -5.889  -5.869  -5.868
 -0.843  -0.750  -0.602  -0.575  -0.484  -0.481  -0.462  -0.437
 -0.405  -0.244  -0.201  -0.201

          Ground-State Mulliken Net Atomic Charges

     Atom                 Charge (a.u.)    Spin (a.u.)
  --------------------------------------------------------
      1 S                    -0.314343       0.000000
      2 C                     0.110205      -0.000000
      3 C                    -0.395726       0.000000
      4 C                    -0.396160       0.000000
      5 H                     0.184129       0.000000
      6 H                     0.125260      -0.000000
      7 H                     0.188439      -0.000000
      8 H                     0.184712      -0.000000
      9 H                     0.188890      -0.000000
     10 H                     0.124594       0.000000
  --------------------------------------------------------
  Sum of atomic charges =     0.000000

                    Cartesian Multipole Moments
 -----------------------------------------------------------------
    Charge (ESU x 10^10)
                 0.0000
    Dipole Moment (Debye)
         X       6.7235      Y       0.0277      Z      -1.7938
       Tot       6.9588
    Quadrupole Moments (Debye-Ang)
        XX     -39.2437     XY      -0.1311     YY     -30.4007
        XZ       3.0690     YZ      -0.3760     ZZ     -34.8970

 Final energy is   -515.884822475013
 **  OPTIMIZATION CONVERGED  **
 Total job time:  94.65s(wall), 1049.41s(cpu)
        *  Thank you very much for using Q-Chem.  Have a nice day.  *
