 Q-Chem 5.1, Q-Chem, Inc., Pleasanton, CA (2018)
 Q-Chem 5.1.1 for Intel X86 EM64T Linux

User input:
--------------------------------------------------------------

$comment
potential surface scanner
$end

$rem
JOBTYPE  PES_SCAN
UNRESTRICTED TRUE
SYM_IGNORE  TRUE
GEOM_OPT_MAX_CYCLES 400
SCF_MAX_CYCLES 400
METHOD   B3LYP
BASIS   6-31G**
PDB_PRINT 2
SCF_CONVERGENCE 6
THRESH 14
SCF_PRINT 1
$end
$molecule
0 1
S -3.189508 -0.039807 1.044740
C 0.594464 0.006656 0.101659
C 1.345691 1.253550 0.011558
C 1.271608 -1.243107 -0.226960
H 1.019039 2.013589 0.727533
H 2.444851 1.183703 -0.043575
H 0.987772 1.623688 -0.971647
H 0.608189 -1.992008 -0.670121
H 1.484146 -1.628679 0.791364
H 2.233481 -1.177024 -0.762341
$end
$scan
stre 1 2 4.000000 4.001000 0.100000
$end
--------------------------------------------------------------

   14    -515.8723954922      9.24e-07  Convergence criterion met
 Total energy in the final basis set =     -515.8723954922
   15    -515.8701685099      1.87e-07  Convergence criterion met
 Total energy in the final basis set =     -515.8701685099
   15    -515.8701340744      1.54e-07  Convergence criterion met
 Total energy in the final basis set =     -515.8701340744
   15    -515.8701352208      1.48e-07  Convergence criterion met
 Total energy in the final basis set =     -515.8701352208

             Standard Nuclear Orientation (Angstroms)
    I     Atom           X                Y                Z
 ----------------------------------------------------------------
    1      S      -3.2814947413    -0.0427740050     1.0664244473
    2      C       0.5998990023     0.0072649841     0.1008787653
    3      C       1.3560881300     1.2521259272     0.0096322229
    4      C       1.2804006342    -1.2411069575    -0.2297545615
    5      H       1.0327802129     2.0145762708     0.7246214159
    6      H       2.4551326213     1.1789679959    -0.0456828065
    7      H       0.9996549712     1.6220050452    -0.9741782444
    8      H       0.6190786177    -1.9930762353    -0.6708824128
    9      H       1.4971772221    -1.6245707290     0.7885040910
   10      H       2.2410163297    -1.1728512964    -0.7673529174
 ----------------------------------------------------------------

   15    -515.8701355528      1.47e-07  Convergence criterion met
 Total energy in the final basis set =     -515.8701355528

                    Orbital Energies (a.u.)
 --------------------------------------------------------------

 Alpha MOs
 -- Occupied --
-88.873 -10.272 -10.227 -10.227  -7.928  -5.903  -5.882  -5.882
 -0.835  -0.743  -0.615  -0.569  -0.478  -0.475  -0.454  -0.431
 -0.395  -0.234  -0.213  -0.212

 Beta MOs
 -- Occupied --
-88.873 -10.272 -10.227 -10.227  -7.928  -5.903  -5.882  -5.882
 -0.835  -0.743  -0.615  -0.569  -0.478  -0.475  -0.454  -0.431
 -0.395  -0.234  -0.213  -0.212

          Ground-State Mulliken Net Atomic Charges

     Atom                 Charge (a.u.)    Spin (a.u.)
  --------------------------------------------------------
      1 S                    -0.249062       0.000000
      2 C                     0.082080      -0.000000
      3 C                    -0.390823       0.000000
      4 C                    -0.391505      -0.000000
      5 H                     0.172813       0.000000
      6 H                     0.120427      -0.000000
      7 H                     0.181283      -0.000000
      8 H                     0.174271      -0.000000
      9 H                     0.180720       0.000000
     10 H                     0.119795       0.000000
  --------------------------------------------------------
  Sum of atomic charges =    -0.000000

                    Cartesian Multipole Moments
 -----------------------------------------------------------------
    Charge (ESU x 10^10)
                -0.0000
    Dipole Moment (Debye)
         X       6.3823      Y       0.0495      Z      -1.6785
       Tot       6.5996
    Quadrupole Moments (Debye-Ang)
        XX     -40.3138     XY      -0.1627     YY     -30.8853
        XZ       3.3196     YZ      -0.4016     ZZ     -34.9577

 Final energy is   -515.870135552849
 **  OPTIMIZATION CONVERGED  **
 Total job time:  16.80s(wall), 193.73s(cpu)
        *  Thank you very much for using Q-Chem.  Have a nice day.  *
