 Q-Chem 5.1, Q-Chem, Inc., Pleasanton, CA (2018)
 Q-Chem 5.1.1 for Intel X86 EM64T Linux

User input:
--------------------------------------------------------------

$comment
potential surface scanner
$end

$rem
JOBTYPE  PES_SCAN
UNRESTRICTED TRUE
SYM_IGNORE  TRUE
GEOM_OPT_MAX_CYCLES 400
SCF_MAX_CYCLES 400
METHOD   B3LYP
BASIS   6-31G**
PDB_PRINT 2
SCF_CONVERGENCE 6
THRESH 14
SCF_PRINT 1
$end
$molecule
0 1
S -3.098558 -0.037943 1.022886
C 0.588114 0.006339 0.102840
C 1.335546 1.254722 0.013823
C 1.262291 -1.244590 -0.224372
H 1.005889 2.013295 0.729842
H 2.434653 1.186380 -0.040096
H 0.977584 1.624431 -0.969582
H 0.597038 -1.991325 -0.668279
H 1.472676 -1.631289 0.793977
H 2.224500 -1.179457 -0.758828
$end
$scan
stre 1 2 3.900000 3.901000 0.100000
$end
--------------------------------------------------------------

   14    -515.8749445723      6.38e-07  Convergence criterion met
 Total energy in the final basis set =     -515.8749445723
   15    -515.8724338292      1.15e-07  Convergence criterion met
 Total energy in the final basis set =     -515.8724338292
   15    -515.8723945335      1.17e-07  Convergence criterion met
 Total energy in the final basis set =     -515.8723945335

             Standard Nuclear Orientation (Angstroms)
    I     Atom           X                Y                Z
 ----------------------------------------------------------------
    1      S      -3.1895079225    -0.0398068421     1.0447400406
    2      C       0.5944635040     0.0066562570     0.1016593686
    3      C       1.3456908767     1.2535504308     0.0115577520
    4      C       1.2716080920    -1.2431065266    -0.2269602269
    5      H       1.0190390788     2.0135894671     0.7275327974
    6      H       2.4448512214     1.1837029312    -0.0435747906
    7      H       0.9877715819     1.6236877752    -0.9716468339
    8      H       0.6081894498    -1.9920079755    -0.6701206739
    9      H       1.4841462183    -1.6286788322     0.7913642503
   10      H       2.2334808997    -1.1770236847    -0.7623406837
 ----------------------------------------------------------------

   14    -515.8723955075      9.24e-07  Convergence criterion met
 Total energy in the final basis set =     -515.8723955075

                    Orbital Energies (a.u.)
 --------------------------------------------------------------

 Alpha MOs
 -- Occupied --
-88.870 -10.274 -10.228 -10.228  -7.926  -5.901  -5.879  -5.879
 -0.836  -0.744  -0.612  -0.570  -0.479  -0.476  -0.456  -0.432
 -0.397  -0.235  -0.210  -0.210

 Beta MOs
 -- Occupied --
-88.870 -10.274 -10.228 -10.228  -7.926  -5.901  -5.879  -5.879
 -0.836  -0.744  -0.612  -0.570  -0.479  -0.476  -0.456  -0.432
 -0.397  -0.235  -0.210  -0.210

          Ground-State Mulliken Net Atomic Charges

     Atom                 Charge (a.u.)    Spin (a.u.)
  --------------------------------------------------------
      1 S                    -0.260603      -0.000000
      2 C                     0.086930       0.000000
      3 C                    -0.391660       0.000000
      4 C                    -0.392406       0.000000
      5 H                     0.174730       0.000000
      6 H                     0.121342      -0.000000
      7 H                     0.182671       0.000000
      8 H                     0.176276      -0.000000
      9 H                     0.182077      -0.000000
     10 H                     0.120643       0.000000
  --------------------------------------------------------
  Sum of atomic charges =    -0.000000

                    Cartesian Multipole Moments
 -----------------------------------------------------------------
    Charge (ESU x 10^10)
                -0.0000
    Dipole Moment (Debye)
         X       6.4493      Y       0.0482      Z      -1.6974
       Tot       6.6691
    Quadrupole Moments (Debye-Ang)
        XX     -40.0913     XY      -0.1561     YY     -30.7975
        XZ       3.2815     YZ      -0.3964     ZZ     -34.9506

 Final energy is   -515.872395507488
 **  OPTIMIZATION CONVERGED  **
 Total job time:  13.47s(wall), 154.08s(cpu)
        *  Thank you very much for using Q-Chem.  Have a nice day.  *
