 Q-Chem 5.1, Q-Chem, Inc., Pleasanton, CA (2018)
 Q-Chem 5.1.1 for Intel X86 EM64T Linux

User input:
--------------------------------------------------------------

$comment
potential surface scanner
$end

$rem
JOBTYPE  PES_SCAN
UNRESTRICTED TRUE
SYM_IGNORE  TRUE
GEOM_OPT_MAX_CYCLES 400
SCF_MAX_CYCLES 400
METHOD   B3LYP
BASIS   6-31G**
PDB_PRINT 2
SCF_CONVERGENCE 6
THRESH 14
SCF_PRINT 1
$end
$molecule
0 1
S -1.384800 -0.000090 -0.000650
C 0.254740 0.000000 -0.000460
C 1.069650 1.268800 0.000070
C 1.069930 -1.268640 0.000060
H 1.723780 1.290230 0.882300
H 1.730580 1.287500 -0.877070
H 0.440180 2.158930 -0.003450
H 0.440730 -2.158960 -0.002030
H 1.725260 -1.289320 0.881400
H 1.729680 -1.287880 -0.877960
$end
$scan
stre 1 2 1.400000 1.401000 0.100000
$end
--------------------------------------------------------------

    8    -516.1187619766      7.37e-07  Convergence criterion met
 Total energy in the final basis set =     -516.1187619766
    8    -516.1012628011      6.20e-07  Convergence criterion met
 Total energy in the final basis set =     -516.1012628011
    8    -516.0586017150      7.21e-07  Convergence criterion met
 Total energy in the final basis set =     -516.0586017150
    8    -516.0576342524      7.53e-07  Convergence criterion met
 Total energy in the final basis set =     -516.0576342524
    8    -516.0580938001      8.12e-07  Convergence criterion met
 Total energy in the final basis set =     -516.0580938001
    8    -516.0581042532      8.12e-07  Convergence criterion met
 Total energy in the final basis set =     -516.0581042532
    8    -516.0581148283      8.08e-07  Convergence criterion met
 Total energy in the final basis set =     -516.0581148283

             Standard Nuclear Orientation (Angstroms)
    I     Atom           X                Y                Z
 ----------------------------------------------------------------
    1      S      -1.2284874598    -0.0001684846    -0.0011293533
    2      C       0.1715124335    -0.0000191119    -0.0005945732
    3      C       1.0553689112     1.2567093360     0.0001657397
    4      C       1.0556392825    -1.2565579595     0.0001704675
    5      H       1.7072579542     1.2622916313     0.8820381868
    6      H       1.7135194430     1.2597996724    -0.8770121180
    7      H       0.4515663184     2.1659267577    -0.0030757696
    8      H       0.4520289482    -2.1659074489    -0.0017003442
    9      H       1.7086627213    -1.2613566462     0.8812032429
   10      H       1.7126614477    -1.2601477463    -0.8778554787
 ----------------------------------------------------------------

    8    -516.0581151208      8.08e-07  Convergence criterion met
 Total energy in the final basis set =     -516.0581151208

                    Orbital Energies (a.u.)
 --------------------------------------------------------------

 Alpha MOs
 -- Occupied --
-88.841 -10.237 -10.189 -10.189  -7.917  -5.879  -5.879  -5.870
 -0.871  -0.724  -0.700  -0.509  -0.451  -0.445  -0.434  -0.394
 -0.371  -0.365  -0.322  -0.210

 Beta MOs
 -- Occupied --
-88.841 -10.237 -10.189 -10.189  -7.917  -5.879  -5.879  -5.870
 -0.871  -0.724  -0.700  -0.509  -0.451  -0.445  -0.434  -0.394
 -0.371  -0.365  -0.322  -0.210

          Ground-State Mulliken Net Atomic Charges

     Atom                 Charge (a.u.)    Spin (a.u.)
  --------------------------------------------------------
      1 S                    -0.108648       0.000000
      2 C                     0.047930      -0.000000
      3 C                    -0.342364       0.000000
      4 C                    -0.342363      -0.000000
      5 H                     0.122642      -0.000000
      6 H                     0.122480      -0.000000
      7 H                     0.127601      -0.000000
      8 H                     0.127600       0.000000
      9 H                     0.122604       0.000000
     10 H                     0.122518      -0.000000
  --------------------------------------------------------
  Sum of atomic charges =     0.000000

                    Cartesian Multipole Moments
 -----------------------------------------------------------------
    Charge (ESU x 10^10)
                 0.0000
    Dipole Moment (Debye)
         X       2.1562      Y       0.0002      Z       0.0024
       Tot       2.1562
    Quadrupole Moments (Debye-Ang)
        XX     -32.9395     XY      -0.0001     YY     -32.4570
        XZ      -0.0003     YZ       0.0005     ZZ     -31.3987

 Final energy is   -516.058115120826
 **  OPTIMIZATION CONVERGED  **
 Total job time:  20.77s(wall), 231.62s(cpu)
        *  Thank you very much for using Q-Chem.  Have a nice day.  *
