 Q-Chem 5.1, Q-Chem, Inc., Pleasanton, CA (2018)
 Q-Chem 5.1.1 for Intel X86 EM64T Linux

User input:
--------------------------------------------------------------

$comment
potential surface scanner
$end

$rem
JOBTYPE  PES_SCAN
UNRESTRICTED TRUE
SYM_IGNORE  TRUE
GEOM_OPT_MAX_CYCLES 400
SCF_MAX_CYCLES 400
METHOD   B3LYP
BASIS   6-31G**
PDB_PRINT 2
SCF_CONVERGENCE 6
THRESH 14
SCF_PRINT 1
$end
$molecule
0 1
S -2.027680 -0.000240 -0.003512
C 0.472318 0.000011 -0.000462
C 1.139466 1.301538 0.000411
C 1.139746 -1.301372 0.000507
H 1.799337 1.378615 0.881168
H 1.804200 1.377769 -0.876732
H 0.433875 2.131111 -0.001773
H 0.434335 -2.131102 -0.000659
H 1.800582 -1.377913 0.880581
H 1.803553 -1.377850 -0.877322
$end
$scan
stre 1 2 2.600000 2.601000 0.100000
$end
--------------------------------------------------------------

   12    -515.9732701528      4.36e-08  Convergence criterion met
 Total energy in the final basis set =     -515.9732701528
   12    -515.9580539267      3.43e-07  Convergence criterion met
 Total energy in the final basis set =     -515.9580539267
   12    -515.9576248844      3.49e-07  Convergence criterion met
 Total energy in the final basis set =     -515.9576248844

             Standard Nuclear Orientation (Angstroms)
    I     Atom           X                Y                Z
 ----------------------------------------------------------------
    1      S      -2.1173823736    -0.0002431461    -0.0036534383
    2      C       0.4826156491     0.0000109987    -0.0004569148
    3      C       1.1486144149     1.3003748931     0.0004175574
    4      C       1.1488959332    -1.3002087591     0.0005202662
    5      H       1.8093195993     1.3768170637     0.8810377429
    6      H       1.8142020769     1.3760232219    -0.8765644270
    7      H       0.4444395258     2.1314205653    -0.0017423763
    8      H       0.4449034663    -2.1314121129    -0.0006006695
    9      H       1.8106044745    -1.3761136845     0.8804273582
   10      H       1.8135192336    -1.3761020401    -0.8771780988
 ----------------------------------------------------------------

   12    -515.9576250966      3.51e-07  Convergence criterion met
 Total energy in the final basis set =     -515.9576250966

                    Orbital Energies (a.u.)
 --------------------------------------------------------------

 Alpha MOs
 -- Occupied --
-88.854 -10.311 -10.232 -10.232  -7.907  -5.876  -5.866  -5.862
 -0.838  -0.748  -0.605  -0.571  -0.479  -0.475  -0.463  -0.435
 -0.415  -0.270  -0.206  -0.198

 Beta MOs
 -- Occupied --
-88.854 -10.311 -10.232 -10.232  -7.907  -5.876  -5.866  -5.862
 -0.838  -0.748  -0.605  -0.571  -0.479  -0.475  -0.463  -0.435
 -0.415  -0.270  -0.206  -0.198

          Ground-State Mulliken Net Atomic Charges

     Atom                 Charge (a.u.)    Spin (a.u.)
  --------------------------------------------------------
      1 S                    -0.351161       0.000000
      2 C                     0.100443      -0.000000
      3 C                    -0.374247      -0.000000
      4 C                    -0.374249       0.000000
      5 H                     0.154609       0.000000
      6 H                     0.154476       0.000000
      7 H                     0.190522       0.000000
      8 H                     0.190521      -0.000000
      9 H                     0.154559      -0.000000
     10 H                     0.154527       0.000000
  --------------------------------------------------------
  Sum of atomic charges =    -0.000000

                    Cartesian Multipole Moments
 -----------------------------------------------------------------
    Charge (ESU x 10^10)
                 0.0000
    Dipole Moment (Debye)
         X       6.2924      Y       0.0006      Z       0.0088
       Tot       6.2924
    Quadrupole Moments (Debye-Ang)
        XX     -35.4931     XY      -0.0007     YY     -30.7268
        XZ      -0.0071     YZ       0.0007     ZZ     -33.4660

 Final energy is   -515.957625096593
 **  OPTIMIZATION CONVERGED  **
 Total job time:  12.54s(wall), 141.42s(cpu)
        *  Thank you very much for using Q-Chem.  Have a nice day.  *
