 Q-Chem 5.1, Q-Chem, Inc., Pleasanton, CA (2018)
 Q-Chem 5.1.1 for Intel X86 EM64T Linux

User input:
--------------------------------------------------------------

$comment
potential surface scanner
$end

$rem
JOBTYPE  PES_SCAN
UNRESTRICTED TRUE
SYM_IGNORE  TRUE
GEOM_OPT_MAX_CYCLES 400
SCF_MAX_CYCLES 400
METHOD   B3LYP
BASIS   6-31G**
PDB_PRINT 2
SCF_CONVERGENCE 6
THRESH 14
SCF_PRINT 1
$end
$molecule
0 1
S -1.384800 -0.000090 -0.000650
C 0.254740 0.000000 -0.000460
C 1.069650 1.268800 0.000070
C 1.069930 -1.268640 0.000060
H 1.723780 1.290230 0.882300
H 1.730580 1.287500 -0.877070
H 0.440180 2.158930 -0.003450
H 0.440730 -2.158960 -0.002030
H 1.725260 -1.289320 0.881400
H 1.729680 -1.287880 -0.877960
$end
$scan
stre 1 2 1.500000 1.501000 0.100000
$end
--------------------------------------------------------------

    8    -516.1187619766      7.37e-07  Convergence criterion met
 Total energy in the final basis set =     -516.1187619766
    8    -516.1041087314      6.23e-07  Convergence criterion met
 Total energy in the final basis set =     -516.1041087314
    8    -516.1016354828      6.48e-07  Convergence criterion met
 Total energy in the final basis set =     -516.1016354828
    8    -516.1018120569      6.83e-07  Convergence criterion met
 Total energy in the final basis set =     -516.1018120569
    8    -516.1018249356      6.90e-07  Convergence criterion met
 Total energy in the final basis set =     -516.1018249356
    8    -516.1018281711      6.91e-07  Convergence criterion met
 Total energy in the final basis set =     -516.1018281711

             Standard Nuclear Orientation (Angstroms)
    I     Atom           X                Y                Z
 ----------------------------------------------------------------
    1      S      -1.2902430020    -0.0001739669    -0.0010967943
    2      C       0.2097573480    -0.0000146493    -0.0005680524
    3      C       1.0606475827     1.2620146560     0.0001562602
    4      C       1.0609180266    -1.2618621319     0.0001629667
    5      H       1.7143925688     1.2771956729     0.8813519610
    6      H       1.7207240758     1.2747217187    -0.8763015275
    7      H       0.4437019666     2.1612730463    -0.0031181434
    8      H       0.4441625245    -2.1612556169    -0.0017453684
    9      H       1.7158097457    -1.2762753731     0.8805151629
   10      H       1.7198591633    -1.2750533558    -0.8771464647
 ----------------------------------------------------------------

    8    -516.1018291085      6.90e-07  Convergence criterion met
 Total energy in the final basis set =     -516.1018291085

                    Orbital Energies (a.u.)
 --------------------------------------------------------------

 Alpha MOs
 -- Occupied --
-88.848 -10.250 -10.194 -10.194  -7.917  -5.879  -5.879  -5.871
 -0.851  -0.719  -0.705  -0.517  -0.452  -0.442  -0.439  -0.399
 -0.369  -0.365  -0.305  -0.214

 Beta MOs
 -- Occupied --
-88.848 -10.250 -10.194 -10.194  -7.917  -5.879  -5.879  -5.871
 -0.851  -0.719  -0.705  -0.517  -0.452  -0.442  -0.439  -0.399
 -0.369  -0.365  -0.305  -0.214

          Ground-State Mulliken Net Atomic Charges

     Atom                 Charge (a.u.)    Spin (a.u.)
  --------------------------------------------------------
      1 S                    -0.120317       0.000000
      2 C                     0.019956       0.000000
      3 C                    -0.337340      -0.000000
      4 C                    -0.337340      -0.000000
      5 H                     0.126147       0.000000
      6 H                     0.125962       0.000000
      7 H                     0.135412       0.000000
      8 H                     0.135412      -0.000000
      9 H                     0.126105       0.000000
     10 H                     0.126004      -0.000000
  --------------------------------------------------------
  Sum of atomic charges =    -0.000000

                    Cartesian Multipole Moments
 -----------------------------------------------------------------
    Charge (ESU x 10^10)
                -0.0000
    Dipole Moment (Debye)
         X       2.5376      Y       0.0003      Z       0.0027
       Tot       2.5376
    Quadrupole Moments (Debye-Ang)
        XX     -32.9999     XY      -0.0002     YY     -32.2745
        XZ       0.0001     YZ       0.0005     ZZ     -31.7354

 Final energy is   -516.101829108464
 **  OPTIMIZATION CONVERGED  **
 Total job time:  18.23s(wall), 203.61s(cpu)
        *  Thank you very much for using Q-Chem.  Have a nice day.  *
