 Q-Chem 5.1, Q-Chem, Inc., Pleasanton, CA (2018)
 Q-Chem 5.1.1 for Intel X86 EM64T Linux

User input:
--------------------------------------------------------------

$comment
potential surface scanner
$end

$rem
JOBTYPE  PES_SCAN
UNRESTRICTED TRUE
SYM_IGNORE  TRUE
GEOM_OPT_MAX_CYCLES 400
SCF_MAX_CYCLES 400
METHOD   B3LYP
BASIS   6-31G**
PDB_PRINT 2
SCF_CONVERGENCE 6
THRESH 14
SCF_PRINT 1
$end
$molecule
0 1
S -2.513097 -0.000230 -0.003423
C 0.486902 -0.000001 -0.000630
C 1.186247 1.282333 0.000236
C 1.186543 -1.282172 0.000381
H 1.852320 1.336318 0.879293
H 1.858734 1.335536 -0.873932
H 0.514953 2.141261 -0.002283
H 0.515451 -2.141262 -0.000612
H 1.854275 -1.335505 0.878206
H 1.857406 -1.335712 -0.875026
$end
$scan
stre 1 2 3.100000 3.101000 0.100000
$end
--------------------------------------------------------------

   14    -515.9103602549      1.85e-07  Convergence criterion met
 Total energy in the final basis set =     -515.9103602549
   14    -515.9021798209      1.93e-07  Convergence criterion met
 Total energy in the final basis set =     -515.9021798209
   14    -515.9020400207      1.13e-07  Convergence criterion met
 Total energy in the final basis set =     -515.9020400207

             Standard Nuclear Orientation (Angstroms)
    I     Atom           X                Y                Z
 ----------------------------------------------------------------
    1      S      -2.6148424652    -0.0002356378    -0.0031332623
    2      C       0.4851561152    -0.0000020847    -0.0005535908
    3      C       1.1962625088     1.2770743066     0.0001219619
    4      C       1.1965592419    -1.2769128732     0.0002799730
    5      H       1.8630225798     1.3246841432     0.8789928905
    6      H       1.8703808770     1.3236913680    -0.8731221272
    7      H       0.5343327526     2.1435058038    -0.0027214749
    8      H       0.5348313423    -2.1435035006    -0.0007153927
    9      H       1.8653974837    -1.3237932084     0.8775935328
   10      H       1.8686335639    -1.3239423169    -0.8745325103
 ----------------------------------------------------------------

   14    -515.9020477946      2.01e-08  Convergence criterion met
 Total energy in the final basis set =     -515.9020477946

                    Orbital Energies (a.u.)
 --------------------------------------------------------------

 Alpha MOs
 -- Occupied --
-88.851 -10.305 -10.236 -10.236  -7.906  -5.879  -5.861  -5.860
 -0.846  -0.751  -0.595  -0.579  -0.486  -0.481  -0.466  -0.440
 -0.417  -0.251  -0.195  -0.194

 Beta MOs
 -- Occupied --
-88.851 -10.305 -10.236 -10.236  -7.906  -5.879  -5.861  -5.860
 -0.846  -0.751  -0.595  -0.579  -0.486  -0.481  -0.466  -0.440
 -0.417  -0.251  -0.195  -0.194

          Ground-State Mulliken Net Atomic Charges

     Atom                 Charge (a.u.)    Spin (a.u.)
  --------------------------------------------------------
      1 S                    -0.359080       0.000000
      2 C                     0.132773      -0.000000
      3 C                    -0.391162       0.000000
      4 C                    -0.391163       0.000000
      5 H                     0.158481      -0.000000
      6 H                     0.158130       0.000000
      7 H                     0.187706      -0.000000
      8 H                     0.187703       0.000000
      9 H                     0.158364      -0.000000
     10 H                     0.158249       0.000000
  --------------------------------------------------------
  Sum of atomic charges =    -0.000000

                    Cartesian Multipole Moments
 -----------------------------------------------------------------
    Charge (ESU x 10^10)
                -0.0000
    Dipole Moment (Debye)
         X       7.4382      Y       0.0007      Z       0.0090
       Tot       7.4382
    Quadrupole Moments (Debye-Ang)
        XX     -37.6991     XY      -0.0010     YY     -31.0066
        XZ      -0.0027     YZ       0.0018     ZZ     -33.7588

 Final energy is   -515.902047794620
 **  OPTIMIZATION CONVERGED  **
 Total job time:  13.36s(wall), 153.26s(cpu)
        *  Thank you very much for using Q-Chem.  Have a nice day.  *
