 Q-Chem 5.1, Q-Chem, Inc., Pleasanton, CA (2018)
 Q-Chem 5.1.1 for Intel X86 EM64T Linux

User input:
--------------------------------------------------------------

$comment
potential surface scanner
$end

$rem
JOBTYPE  PES_SCAN
UNRESTRICTED TRUE
SYM_IGNORE  TRUE
GEOM_OPT_MAX_CYCLES 400
SCF_MAX_CYCLES 400
METHOD   B3LYP
BASIS   6-31G**
PDB_PRINT 2
SCF_CONVERGENCE 6
THRESH 14
SCF_PRINT 1
$end
$molecule
0 1
S -3.281495 -0.042774 1.066424
C 0.599899 0.007265 0.100879
C 1.356088 1.252126 0.009632
C 1.280401 -1.241107 -0.229755
H 1.032780 2.014576 0.724621
H 2.455133 1.178968 -0.045683
H 0.999655 1.622005 -0.974178
H 0.619079 -1.993076 -0.670882
H 1.497177 -1.624571 0.788504
H 2.241016 -1.172851 -0.767353
$end
$scan
stre 1 2 4.100000 4.101000 0.100000
$end
--------------------------------------------------------------

   15    -515.8701355511      1.47e-07  Convergence criterion met
 Total energy in the final basis set =     -515.8701355511
   16    -515.8681657169      3.58e-07  Convergence criterion met
 Total energy in the final basis set =     -515.8681657169
   15    -515.8681351902      4.80e-07  Convergence criterion met
 Total energy in the final basis set =     -515.8681351902
   16    -515.8681363769      1.79e-07  Convergence criterion met
 Total energy in the final basis set =     -515.8681363769

             Standard Nuclear Orientation (Angstroms)
    I     Atom           X                Y                Z
 ----------------------------------------------------------------
    1      S      -3.3731372396    -0.0465287785     1.0872454154
    2      C       0.6060931809     0.0080768134     0.1009679329
    3      C       1.3667346900     1.2510029541     0.0080777362
    4      C       1.2888828748    -1.2391542534    -0.2324751351
    5      H       1.0462254318     2.0162297797     0.7214147924
    6      H       2.4657510286     1.1751939828    -0.0472600915
    7      H       1.0119271046     1.6196386987    -0.9767757414
    8      H       0.6285724533    -1.9937257488    -0.6707181575
    9      H       1.5110956045    -1.6206843159     0.7853490538
   10      H       2.2475878711    -1.1694881321    -0.7736168052
 ----------------------------------------------------------------

   15    -515.8681368612      9.88e-07  Convergence criterion met
 Total energy in the final basis set =     -515.8681368612

                    Orbital Energies (a.u.)
 --------------------------------------------------------------

 Alpha MOs
 -- Occupied --
-88.875 -10.269 -10.226 -10.225  -7.930  -5.906  -5.884  -5.884
 -0.834  -0.741  -0.617  -0.567  -0.477  -0.474  -0.453  -0.430
 -0.393  -0.232  -0.214  -0.214

 Beta MOs
 -- Occupied --
-88.875 -10.269 -10.226 -10.225  -7.930  -5.906  -5.884  -5.884
 -0.834  -0.741  -0.617  -0.567  -0.477  -0.474  -0.453  -0.430
 -0.393  -0.232  -0.214  -0.214

          Ground-State Mulliken Net Atomic Charges

     Atom                 Charge (a.u.)    Spin (a.u.)
  --------------------------------------------------------
      1 S                    -0.238446      -0.000000
      2 C                     0.077747       0.000000
      3 C                    -0.390018      -0.000000
      4 C                    -0.390654       0.000000
      5 H                     0.170978      -0.000000
      6 H                     0.119602       0.000000
      7 H                     0.179974       0.000000
      8 H                     0.172412       0.000000
      9 H                     0.179416      -0.000000
     10 H                     0.118987      -0.000000
  --------------------------------------------------------
  Sum of atomic charges =    -0.000000

                    Cartesian Multipole Moments
 -----------------------------------------------------------------
    Charge (ESU x 10^10)
                -0.0000
    Dipole Moment (Debye)
         X       6.3202      Y       0.0515      Z      -1.6623
       Tot       6.5353
    Quadrupole Moments (Debye-Ang)
        XX     -40.5311     XY      -0.1709     YY     -30.9689
        XZ       3.3708     YZ      -0.4060     ZZ     -34.9731

 Final energy is   -515.868136861211
 **  OPTIMIZATION CONVERGED  **
 Total job time:  17.40s(wall), 200.29s(cpu)
        *  Thank you very much for using Q-Chem.  Have a nice day.  *
