 Q-Chem 5.1, Q-Chem, Inc., Pleasanton, CA (2018)
 Q-Chem 5.1.1 for Intel X86 EM64T Linux

User input:
--------------------------------------------------------------

$comment
potential surface scanner
$end

$rem
JOBTYPE  PES_SCAN
UNRESTRICTED TRUE
SYM_IGNORE  TRUE
GEOM_OPT_MAX_CYCLES 400
SCF_MAX_CYCLES 400
METHOD   B3LYP
BASIS   6-31G**
PDB_PRINT 2
SCF_CONVERGENCE 6
THRESH 14
SCF_PRINT 1
$end
$molecule
0 1
S -1.384800 -0.000090 -0.000650
C 0.254740 0.000000 -0.000460
C 1.069650 1.268800 0.000070
C 1.069930 -1.268640 0.000060
H 1.723780 1.290230 0.882300
H 1.730580 1.287500 -0.877070
H 0.440180 2.158930 -0.003450
H 0.440730 -2.158960 -0.002030
H 1.725260 -1.289320 0.881400
H 1.729680 -1.287880 -0.877960
$end
$scan
stre 1 2 0.900000 0.901000 0.100000
$end
--------------------------------------------------------------

    8    -516.1187619766      7.37e-07  Convergence criterion met
 Total energy in the final basis set =     -516.1187619766
    8    -516.1012628011      6.20e-07  Convergence criterion met
 Total energy in the final basis set =     -516.1012628011
    8    -516.0171684350      8.30e-07  Convergence criterion met
 Total energy in the final basis set =     -516.0171684350
    9    -515.9069807260      2.83e-07  Convergence criterion met
 Total energy in the final basis set =     -515.9069807260
    9    -515.6010714429      3.47e-07  Convergence criterion met
 Total energy in the final basis set =     -515.6010714429
    9    -515.3784208363      3.84e-07  Convergence criterion met
 Total energy in the final basis set =     -515.3784208363
    8    -515.1073800452      8.85e-07  Convergence criterion met
 Total energy in the final basis set =     -515.1073800452
    9    -514.8410953850      5.55e-07  Convergence criterion met
    9    -514.3411919753      7.21e-07  Convergence criterion met
 Total energy in the final basis set =     -514.3411919753
    9    -514.3412470456      7.28e-07  Convergence criterion met
 Total energy in the final basis set =     -514.3412470456
    9    -514.3412887590      7.32e-07  Convergence criterion met
 Total energy in the final basis set =     -514.3412887590
    9    -514.3413010370      7.32e-07  Convergence criterion met
 Total energy in the final basis set =     -514.3413010370
    9    -514.3413025759      7.31e-07  Convergence criterion met
 Total energy in the final basis set =     -514.3413025759
    9    -514.3413028722      7.30e-07  Convergence criterion met
 Total energy in the final basis set =     -514.3413028722

             Standard Nuclear Orientation (Angstroms)
    I     Atom           X                Y                Z
 ----------------------------------------------------------------
    1      S      -0.9784532073    -0.0001413053    -0.0020260257
    2      C      -0.0784535917    -0.0000397686    -0.0010731665
    3      C       1.0580107397     1.2595926832     0.0003385317
    4      C       1.0582875644    -1.2594411302     0.0003557426
    5      H       1.6894098105     1.2145448019     0.8916502303
    6      H       1.6948667756     1.2126804223    -0.8869519651
    7      H       0.4853891934     2.1972475197    -0.0022875940
    8      H       0.4858581367    -2.1972160866    -0.0009477769
    9      H       1.6907312151    -1.2135935534     0.8908806585
   10      H       1.6940833636    -1.2130635830    -0.8877286349
 ----------------------------------------------------------------

    9    -514.3413032118      7.30e-07  Convergence criterion met
 Total energy in the final basis set =     -514.3413032118

                    Orbital Energies (a.u.)
 --------------------------------------------------------------

 Alpha MOs
 -- Occupied --
-88.830 -10.330 -10.161 -10.161  -8.018  -6.000  -5.950  -5.943
 -0.921  -0.691  -0.676  -0.537  -0.525  -0.458  -0.404  -0.389
 -0.372  -0.356  -0.344  -0.158

 Beta MOs
 -- Occupied --
-88.830 -10.330 -10.161 -10.161  -8.018  -6.000  -5.950  -5.943
 -0.921  -0.691  -0.676  -0.537  -0.525  -0.458  -0.404  -0.389
 -0.372  -0.356  -0.344  -0.158

          Ground-State Mulliken Net Atomic Charges

     Atom                 Charge (a.u.)    Spin (a.u.)
  --------------------------------------------------------
      1 S                     0.602376       0.000000
      2 C                    -0.339988      -0.000000
      3 C                    -0.419219      -0.000000
      4 C                    -0.419224       0.000000
      5 H                     0.105418       0.000000
      6 H                     0.105407       0.000000
      7 H                     0.077204       0.000000
      8 H                     0.077204       0.000000
      9 H                     0.105412      -0.000000
     10 H                     0.105411      -0.000000
  --------------------------------------------------------
  Sum of atomic charges =     0.000000

                    Cartesian Multipole Moments
 -----------------------------------------------------------------
    Charge (ESU x 10^10)
                -0.0000
    Dipole Moment (Debye)
         X       0.0317      Y       0.0000      Z       0.0005
       Tot       0.0317
    Quadrupole Moments (Debye-Ang)
        XX     -33.3561     XY       0.0001     YY     -33.5725
        XZ      -0.0044     YZ       0.0005     ZZ     -29.3956

 Final energy is   -514.341303211789
 **  OPTIMIZATION CONVERGED  **
 Total job time:  54.29s(wall), 605.66s(cpu)
        *  Thank you very much for using Q-Chem.  Have a nice day.  *
