 Q-Chem 5.1, Q-Chem, Inc., Pleasanton, CA (2018)
 Q-Chem 5.1.1 for Intel X86 EM64T Linux

User input:
--------------------------------------------------------------

$comment
potential surface scanner
$end

$rem
JOBTYPE  PES_SCAN
UNRESTRICTED TRUE
SYM_IGNORE  TRUE
GEOM_OPT_MAX_CYCLES 400
SCF_MAX_CYCLES 400
METHOD   B3LYP
BASIS   6-31G**
PDB_PRINT 2
SCF_CONVERGENCE 6
THRESH 14
SCF_PRINT 1
$end
$molecule
0 1
S -1.384800 -0.000090 -0.000650
C 0.254740 0.000000 -0.000460
C 1.069650 1.268800 0.000070
C 1.069930 -1.268640 0.000060
H 1.723780 1.290230 0.882300
H 1.730580 1.287500 -0.877070
H 0.440180 2.158930 -0.003450
H 0.440730 -2.158960 -0.002030
H 1.725260 -1.289320 0.881400
H 1.729680 -1.287880 -0.877960
$end
$scan
stre 1 2 4.200000 4.201000 0.100000
$end
--------------------------------------------------------------

    8    -516.1187619766      7.37e-07  Convergence criterion met
 Total energy in the final basis set =     -516.1187619766
    9    -516.1077990090      2.67e-07  Convergence criterion met
 Total energy in the final basis set =     -516.1077990090
    9    -516.0830354981      6.11e-07  Convergence criterion met
 Total energy in the final basis set =     -516.0830354981
   10    -516.0528102114      4.88e-07  Convergence criterion met
 Total energy in the final basis set =     -516.0528102114
   10    -516.0223986705      9.39e-07  Convergence criterion met
 Total energy in the final basis set =     -516.0223986705
   10    -515.9937478264      9.19e-07  Convergence criterion met
 Total energy in the final basis set =     -515.9937478264
   12    -515.9678960908      1.46e-07  Convergence criterion met
 Total energy in the final basis set =     -515.9678960908
   12    -515.9452008384      1.26e-07  Convergence criterion met
   29    -515.8655596783      7.80e-07  Convergence criterion met
 Total energy in the final basis set =     -515.8655596783
   23    -515.8655886524      1.52e-07  Convergence criterion met
 Total energy in the final basis set =     -515.8655886524
   27    -515.8656047873      3.19e-07  Convergence criterion met
 Total energy in the final basis set =     -515.8656047873
   27    -515.8656132884      4.62e-07  Convergence criterion met
 Total energy in the final basis set =     -515.8656132884
   31    -515.8656192178      8.47e-07  Convergence criterion met
 Total energy in the final basis set =     -515.8656192178
   31    -515.8656209759      5.13e-07  Convergence criterion met
 Total energy in the final basis set =     -515.8656209759

             Standard Nuclear Orientation (Angstroms)
    I     Atom           X                Y                Z
 ----------------------------------------------------------------
    1      S      -3.5081873680     0.0193155203     0.7664710873
    2      C       0.6020481602    -0.0060781849    -0.0968473201
    3      C       1.3469441419     1.2533366746    -0.1190539357
    4      C       1.3459382732    -1.2632910282    -0.1460717300
    5      H       1.2717568361     1.6176206093     0.9225414866
    6      H       2.4102132057     1.2186461193    -0.4091572725
    7      H       0.8070476735     2.0176424584    -0.6916813444
    8      H       0.7823284326    -2.0605207622    -0.6434121882
    9      H       1.3519324458    -1.5689854011     0.9190492715
   10      H       2.3897081990    -1.2271160055    -0.4996280545
 ----------------------------------------------------------------

   31    -515.8656217350      7.07e-07  Convergence criterion met
 Total energy in the final basis set =     -515.8656217350

                    Orbital Energies (a.u.)
 --------------------------------------------------------------

 Alpha MOs
 -- Occupied --
-88.876 -10.268 -10.224 -10.224  -7.932  -5.907  -5.885  -5.885
 -0.830  -0.740  -0.618  -0.567  -0.477  -0.467  -0.455  -0.429
 -0.391  -0.230  -0.216  -0.216

 Beta MOs
 -- Occupied --
-88.876 -10.268 -10.224 -10.224  -7.932  -5.907  -5.885  -5.885
 -0.830  -0.740  -0.618  -0.567  -0.477  -0.467  -0.455  -0.429
 -0.391  -0.230  -0.216  -0.216

          Ground-State Mulliken Net Atomic Charges

     Atom                 Charge (a.u.)    Spin (a.u.)
  --------------------------------------------------------
      1 S                    -0.233947      -0.000759
      2 C                     0.077975       0.000655
      3 C                    -0.395985       0.000003
      4 C                    -0.393533       0.000004
      5 H                     0.181319      -0.000001
      6 H                     0.115349       0.000044
      7 H                     0.176527       0.000005
      8 H                     0.173612       0.000007
      9 H                     0.180318      -0.000002
     10 H                     0.118365       0.000043
  --------------------------------------------------------
  Sum of atomic charges =     0.000000

                    Cartesian Multipole Moments
 -----------------------------------------------------------------
    Charge (ESU x 10^10)
                -0.0000
    Dipole Moment (Debye)
         X       6.3816      Y      -0.0084      Z      -0.6607
       Tot       6.4157
    Quadrupole Moments (Debye-Ang)
        XX     -41.7054     XY      -0.0430     YY     -30.8607
        XZ       2.3594     YZ      -0.0443     ZZ     -34.0222

 Final energy is   -515.865621734972
 **  OPTIMIZATION CONVERGED  **
 Total job time:  433.76s(wall), 5095.67s(cpu)
        *  Thank you very much for using Q-Chem.  Have a nice day.  *
