 Q-Chem 5.1, Q-Chem, Inc., Pleasanton, CA (2018)
 Q-Chem 5.1.1 for Intel X86 EM64T Linux

User input:
--------------------------------------------------------------

$comment
potential surface scanner
$end

$rem
JOBTYPE  PES_SCAN
UNRESTRICTED TRUE
SYM_IGNORE  TRUE
GEOM_OPT_MAX_CYCLES 400
SCF_MAX_CYCLES 400
METHOD   B3LYP
BASIS   6-31G**
PDB_PRINT 2
SCF_CONVERGENCE 6
THRESH 14
SCF_PRINT 1
$end
$molecule
0 1
S -1.486772 -0.000191 -0.001764
C 0.313228 -0.000004 -0.000595
C 1.081047 1.280282 0.000226
C 1.081320 -1.280127 0.000258
H 1.737467 1.322072 0.880880
H 1.743369 1.320228 -0.876044
H 0.424104 2.148658 -0.002680
H 0.424561 -2.148646 -0.001403
H 1.738824 -1.321234 0.880131
H 1.742582 -1.320470 -0.876799
$end
$scan
stre 1 2 1.900000 1.901000 0.100000
$end
--------------------------------------------------------------

    9    -516.1053906190      2.85e-07  Convergence criterion met
 Total energy in the final basis set =     -516.1053906190
    9    -516.0892049856      4.93e-07  Convergence criterion met
 Total energy in the final basis set =     -516.0892049856
    9    -516.0887029655      5.07e-07  Convergence criterion met
 Total energy in the final basis set =     -516.0887029655

             Standard Nuclear Orientation (Angstroms)
    I     Atom           X                Y                Z
 ----------------------------------------------------------------
    1      S      -1.5568102179    -0.0001959750    -0.0020505452
    2      C       0.3431892096    -0.0000015188    -0.0006018648
    3      C       1.0885251231     1.2857206749     0.0002554394
    4      C       1.0887997798    -1.2855642258     0.0002995377
    5      H       1.7457344891     1.3351995992     0.8807612258
    6      H       1.7514335092     1.3335922446    -0.8760187034
    7      H       0.4203279590     2.1451612040    -0.0024959782
    8      H       0.4207860363    -2.1451511887    -0.0012628751
    9      H       1.7470551872    -1.3343929457     0.8800544677
   10      H       1.7506889246    -1.3337998687    -0.8767307041
 ----------------------------------------------------------------

    9    -516.0887207271      5.08e-07  Convergence criterion met
 Total energy in the final basis set =     -516.0887207271

                    Orbital Energies (a.u.)
 --------------------------------------------------------------

 Alpha MOs
 -- Occupied --
-88.858 -10.289 -10.211 -10.211  -7.915  -5.880  -5.877  -5.870
 -0.824  -0.725  -0.666  -0.544  -0.461  -0.455  -0.447  -0.415
 -0.390  -0.331  -0.251  -0.213

 Beta MOs
 -- Occupied --
-88.858 -10.289 -10.211 -10.211  -7.915  -5.880  -5.877  -5.870
 -0.824  -0.725  -0.666  -0.544  -0.461  -0.455  -0.447  -0.415
 -0.390  -0.331  -0.251  -0.213

          Ground-State Mulliken Net Atomic Charges

     Atom                 Charge (a.u.)    Spin (a.u.)
  --------------------------------------------------------
      1 S                    -0.184685      -0.000000
      2 C                    -0.017417       0.000000
      3 C                    -0.339642       0.000000
      4 C                    -0.339643       0.000000
      5 H                     0.139307       0.000000
      6 H                     0.139130      -0.000000
      7 H                     0.162256      -0.000000
      8 H                     0.162256      -0.000000
      9 H                     0.139261      -0.000000
     10 H                     0.139177      -0.000000
  --------------------------------------------------------
  Sum of atomic charges =    -0.000000

                    Cartesian Multipole Moments
 -----------------------------------------------------------------
    Charge (ESU x 10^10)
                -0.0000
    Dipole Moment (Debye)
         X       4.0227      Y       0.0004      Z       0.0048
       Tot       4.0227
    Quadrupole Moments (Debye-Ang)
        XX     -33.4982     XY      -0.0004     YY     -31.5529
        XZ      -0.0018     YZ       0.0006     ZZ     -32.7334

 Final energy is   -516.088720727070
 **  OPTIMIZATION CONVERGED  **
 Total job time:  11.98s(wall), 124.45s(cpu)
        *  Thank you very much for using Q-Chem.  Have a nice day.  *
