 Q-Chem 5.1, Q-Chem, Inc., Pleasanton, CA (2018)
 Q-Chem 5.1.1 for Intel X86 EM64T Linux

User input:
--------------------------------------------------------------

$comment
potential surface scanner
$end

$rem
JOBTYPE  PES_SCAN
UNRESTRICTED TRUE
SYM_IGNORE  TRUE
GEOM_OPT_MAX_CYCLES 400
SCF_MAX_CYCLES 400
METHOD   B3LYP
BASIS   6-31G**
PDB_PRINT 2
SCF_CONVERGENCE 6
THRESH 14
SCF_PRINT 1
$end
$molecule
0 1
S -1.629014 -0.000205 -0.002326
C 0.370985 0.000002 -0.000591
C 1.096345 1.290505 0.000285
C 1.096620 -1.290346 0.000340
H 1.754158 1.347000 0.880747
H 1.759663 1.345585 -0.876091
H 0.418058 2.141847 -0.002333
H 0.418515 -2.141837 -0.001142
H 1.755442 -1.346222 0.880081
H 1.758959 -1.345761 -0.876762
$end
$scan
stre 1 2 2.100000 2.101000 0.100000
$end
--------------------------------------------------------------

   10    -516.0692199495      1.91e-07  Convergence criterion met
 Total energy in the final basis set =     -516.0692199495
   10    -516.0496831262      6.30e-07  Convergence criterion met
 Total energy in the final basis set =     -516.0496831262
   10    -516.0487529024      6.62e-07  Convergence criterion met
 Total energy in the final basis set =     -516.0487529024
   10    -516.0487925650      6.78e-07  Convergence criterion met
 Total energy in the final basis set =     -516.0487925650
   10    -516.0487939310      6.81e-07  Convergence criterion met
 Total energy in the final basis set =     -516.0487939310

             Standard Nuclear Orientation (Angstroms)
    I     Atom           X                Y                Z
 ----------------------------------------------------------------
    1      S      -1.7028524541    -0.0002133884    -0.0026129085
    2      C       0.3971465083     0.0000052526    -0.0005713331
    3      C       1.1043982015     1.2948344196     0.0003171200
    4      C       1.1046738704    -1.2946736575     0.0003827771
    5      H       1.7628386594     1.3580992683     0.8806766182
    6      H       1.7681407363     1.3568617504    -0.8761077827
    7      H       0.4166831909     2.1385492986    -0.0021685304
    8      H       0.4171399123    -2.1385397106    -0.0010187870
    9      H       1.7640879600    -1.3573480448     0.8800497822
   10      H       1.7674744149    -1.3570071880    -0.8767389558
 ----------------------------------------------------------------

   10    -516.0487944120      6.82e-07  Convergence criterion met
 Total energy in the final basis set =     -516.0487944120

                    Orbital Energies (a.u.)
 --------------------------------------------------------------

 Alpha MOs
 -- Occupied --
-88.858 -10.301 -10.218 -10.218  -7.913  -5.879  -5.874  -5.867
 -0.827  -0.733  -0.640  -0.554  -0.467  -0.462  -0.452  -0.422
 -0.400  -0.311  -0.233  -0.208

 Beta MOs
 -- Occupied --
-88.858 -10.301 -10.218 -10.218  -7.913  -5.879  -5.874  -5.867
 -0.827  -0.733  -0.640  -0.554  -0.467  -0.462  -0.452  -0.422
 -0.400  -0.311  -0.233  -0.208

          Ground-State Mulliken Net Atomic Charges

     Atom                 Charge (a.u.)    Spin (a.u.)
  --------------------------------------------------------
      1 S                    -0.240658      -0.000000
      2 C                     0.011524       0.000000
      3 C                    -0.348071      -0.000000
      4 C                    -0.348072      -0.000000
      5 H                     0.144806       0.000000
      6 H                     0.144652       0.000000
      7 H                     0.173181       0.000000
      8 H                     0.173181       0.000000
      9 H                     0.144761       0.000000
     10 H                     0.144697       0.000000
  --------------------------------------------------------
  Sum of atomic charges =    -0.000000

                    Cartesian Multipole Moments
 -----------------------------------------------------------------
    Charge (ESU x 10^10)
                -0.0000
    Dipole Moment (Debye)
         X       4.7225      Y       0.0005      Z       0.0060
       Tot       4.7225
    Quadrupole Moments (Debye-Ang)
        XX     -33.9039     XY      -0.0005     YY     -31.2246
        XZ      -0.0033     YZ       0.0005     ZZ     -33.0447

 Final energy is   -516.048794412009
 **  OPTIMIZATION CONVERGED  **
 Total job time:  17.96s(wall), 195.66s(cpu)
        *  Thank you very much for using Q-Chem.  Have a nice day.  *
