 Q-Chem 5.1, Q-Chem, Inc., Pleasanton, CA (2018)
 Q-Chem 5.1.1 for Intel X86 EM64T Linux

User input:
--------------------------------------------------------------

$comment
potential surface scanner
$end

$rem
JOBTYPE  PES_SCAN
UNRESTRICTED TRUE
SYM_IGNORE  TRUE
GEOM_OPT_MAX_CYCLES 400
SCF_MAX_CYCLES 400
METHOD   B3LYP
BASIS   6-31G**
PDB_PRINT 2
SCF_CONVERGENCE 6
THRESH 14
SCF_PRINT 1
$end
$molecule
0 1
S -1.384800 -0.000090 -0.000650
C 0.254740 0.000000 -0.000460
C 1.069650 1.268800 0.000070
C 1.069930 -1.268640 0.000060
H 1.723780 1.290230 0.882300
H 1.730580 1.287500 -0.877070
H 0.440180 2.158930 -0.003450
H 0.440730 -2.158960 -0.002030
H 1.725260 -1.289320 0.881400
H 1.729680 -1.287880 -0.877960
$end
$scan
stre 1 2 1.300000 1.301000 0.100000
$end
--------------------------------------------------------------

    8    -516.1187619766      7.37e-07  Convergence criterion met
 Total energy in the final basis set =     -516.1187619766
    8    -516.1012628011      6.20e-07  Convergence criterion met
 Total energy in the final basis set =     -516.1012628011
    8    -516.0171684350      8.30e-07  Convergence criterion met
 Total energy in the final basis set =     -516.0171684350
    8    -515.9732624446      9.93e-07  Convergence criterion met
 Total energy in the final basis set =     -515.9732624446
    9    -515.9686445746      2.82e-07  Convergence criterion met
 Total energy in the final basis set =     -515.9686445746
    9    -515.9690515051      2.93e-07  Convergence criterion met
 Total energy in the final basis set =     -515.9690515051
    9    -515.9690757391      2.94e-07  Convergence criterion met
 Total energy in the final basis set =     -515.9690757391
    9    -515.9690913770      2.94e-07  Convergence criterion met
 Total energy in the final basis set =     -515.9690913770
    9    -515.9690943258      2.93e-07  Convergence criterion met
 Total energy in the final basis set =     -515.9690943258

             Standard Nuclear Orientation (Angstroms)
    I     Atom           X                Y                Z
 ----------------------------------------------------------------
    1      S      -1.1690223108    -0.0001623467    -0.0012322044
    2      C       0.1309775625    -0.0000239193    -0.0006433252
    3      C       1.0515913611     1.2526739614     0.0001850177
    4      C       1.0518615743    -1.2525238700     0.0001893393
    5      H       1.7007839477     1.2487056082     0.8831965744
    6      H       1.7069275645     1.2462668640    -0.8782202940
    7      H       0.4589468006     2.1703900020    -0.0029760996
    8      H       0.4594108819    -2.1703691752    -0.0016046672
    9      H       1.7021704310    -1.2477601282     0.8823705180
   10      H       1.7060821872    -1.2466269963    -0.8790548589
 ----------------------------------------------------------------

    9    -515.9690948918      2.93e-07  Convergence criterion met
 Total energy in the final basis set =     -515.9690948918

                    Orbital Energies (a.u.)
 --------------------------------------------------------------

 Alpha MOs
 -- Occupied --
-88.832 -10.225 -10.184 -10.184  -7.918  -5.881  -5.879  -5.870
 -0.894  -0.724  -0.694  -0.501  -0.452  -0.450  -0.429  -0.390
 -0.375  -0.362  -0.340  -0.203

 Beta MOs
 -- Occupied --
-88.832 -10.225 -10.184 -10.184  -7.918  -5.881  -5.879  -5.870
 -0.894  -0.724  -0.694  -0.501  -0.452  -0.450  -0.429  -0.390
 -0.375  -0.362  -0.340  -0.203

          Ground-State Mulliken Net Atomic Charges

     Atom                 Charge (a.u.)    Spin (a.u.)
  --------------------------------------------------------
      1 S                    -0.077788      -0.000000
      2 C                     0.064398       0.000000
      3 C                    -0.350735      -0.000000
      4 C                    -0.350734       0.000000
      5 H                     0.119170       0.000000
      6 H                     0.119037      -0.000000
      7 H                     0.119223       0.000000
      8 H                     0.119222      -0.000000
      9 H                     0.119137      -0.000000
     10 H                     0.119070      -0.000000
  --------------------------------------------------------
  Sum of atomic charges =    -0.000000

                    Cartesian Multipole Moments
 -----------------------------------------------------------------
    Charge (ESU x 10^10)
                -0.0000
    Dipole Moment (Debye)
         X       1.7697      Y       0.0002      Z       0.0022
       Tot       1.7697
    Quadrupole Moments (Debye-Ang)
        XX     -32.9061     XY      -0.0001     YY     -32.6452
        XZ      -0.0008     YZ       0.0005     ZZ     -31.0293

 Final energy is   -515.969094891837
 **  OPTIMIZATION CONVERGED  **
 Total job time:  28.00s(wall), 306.59s(cpu)
        *  Thank you very much for using Q-Chem.  Have a nice day.  *
