 Q-Chem 5.1, Q-Chem, Inc., Pleasanton, CA (2018)
 Q-Chem 5.1.1 for Intel X86 EM64T Linux

User input:
--------------------------------------------------------------

$comment
potential surface scanner
$end

$rem
JOBTYPE  PES_SCAN
UNRESTRICTED TRUE
SYM_IGNORE  TRUE
GEOM_OPT_MAX_CYCLES 400
SCF_MAX_CYCLES 400
METHOD   B3LYP
BASIS   6-31G**
PDB_PRINT 2
SCF_CONVERGENCE 6
THRESH 14
SCF_PRINT 1
$end
$molecule
0 1
S -1.858675 -0.000227 -0.003112
C 0.441324 0.000010 -0.000521
C 1.121567 1.300530 0.000373
C 1.121844 -1.300366 0.000455
H 1.780588 1.373975 0.880925
H 1.785589 1.372993 -0.876470
H 0.420135 2.133096 -0.001917
H 0.420593 -2.133088 -0.000814
H 1.781805 -1.373259 0.880344
H 1.784963 -1.373095 -0.877055
$end
$scan
stre 1 2 2.400000 2.401000 0.100000
$end
--------------------------------------------------------------

   10    -516.0088038459      6.11e-07  Convergence criterion met
 Total energy in the final basis set =     -516.0088038459
   12    -515.9909325532      1.94e-07  Convergence criterion met
 Total energy in the final basis set =     -515.9909325532
   12    -515.9903463023      1.92e-07  Convergence criterion met
 Total energy in the final basis set =     -515.9903463023

             Standard Nuclear Orientation (Angstroms)
    I     Atom           X                Y                Z
 ----------------------------------------------------------------
    1      S      -1.9415969051    -0.0002345489    -0.0033245168
    2      C       0.4584014042     0.0000111414    -0.0004864750
    3      C       1.1304589153     1.3015017837     0.0003951364
    4      C       1.1307370745    -1.3013362924     0.0004843225
    5      H       1.7897261028     1.3773702951     0.8811762640
    6      H       1.7946363996     1.3764619426    -0.8767431036
    7      H       0.4259779523     2.1317482788    -0.0018345165
    8      H       0.4264358899    -2.1317386612    -0.0007335602
    9      H       1.7909486896    -1.3766641023     0.8805986450
   10      H       1.7940074769    -1.3765508368    -0.8773241960
 ----------------------------------------------------------------

   12    -515.9903496057      1.91e-07  Convergence criterion met
 Total energy in the final basis set =     -515.9903496057

                    Orbital Energies (a.u.)
 --------------------------------------------------------------

 Alpha MOs
 -- Occupied --
-88.855 -10.309 -10.227 -10.227  -7.909  -5.877  -5.870  -5.864
 -0.834  -0.744  -0.615  -0.565  -0.475  -0.471  -0.459  -0.430
 -0.411  -0.284  -0.214  -0.201

 Beta MOs
 -- Occupied --
-88.855 -10.309 -10.227 -10.227  -7.909  -5.877  -5.870  -5.864
 -0.834  -0.744  -0.615  -0.565  -0.475  -0.471  -0.459  -0.430
 -0.411  -0.284  -0.214  -0.201

          Ground-State Mulliken Net Atomic Charges

     Atom                 Charge (a.u.)    Spin (a.u.)
  --------------------------------------------------------
      1 S                    -0.318117       0.000000
      2 C                     0.069401      -0.000000
      3 C                    -0.363858      -0.000000
      4 C                    -0.363859       0.000000
      5 H                     0.151341       0.000000
      6 H                     0.151211      -0.000000
      7 H                     0.185665      -0.000000
      8 H                     0.185664       0.000000
      9 H                     0.151296      -0.000000
     10 H                     0.151256      -0.000000
  --------------------------------------------------------
  Sum of atomic charges =    -0.000000

                    Cartesian Multipole Moments
 -----------------------------------------------------------------
    Charge (ESU x 10^10)
                -0.0000
    Dipole Moment (Debye)
         X       5.6978      Y       0.0006      Z       0.0078
       Tot       5.6978
    Quadrupole Moments (Debye-Ang)
        XX     -34.7634     XY      -0.0006     YY     -30.8534
        XZ      -0.0057     YZ       0.0006     ZZ     -33.3337

 Final energy is   -515.990349605691
 **  OPTIMIZATION CONVERGED  **
 Total job time:  12.34s(wall), 140.67s(cpu)
        *  Thank you very much for using Q-Chem.  Have a nice day.  *
