 Q-Chem 5.1, Q-Chem, Inc., Pleasanton, CA (2018)
 Q-Chem 5.1.1 for Intel X86 EM64T Linux

User input:
--------------------------------------------------------------

$comment
potential surface scanner
$end

$rem
JOBTYPE  PES_SCAN
UNRESTRICTED TRUE
SYM_IGNORE  TRUE
GEOM_OPT_MAX_CYCLES 400
SCF_MAX_CYCLES 400
METHOD   B3LYP
BASIS   6-31G**
PDB_PRINT 2
SCF_CONVERGENCE 6
THRESH 14
SCF_PRINT 1
$end
$molecule
0 1
S -2.117382 -0.000243 -0.003653
C 0.482616 0.000011 -0.000457
C 1.148614 1.300375 0.000418
C 1.148896 -1.300209 0.000520
H 1.809320 1.376817 0.881038
H 1.814202 1.376023 -0.876564
H 0.444440 2.131421 -0.001742
H 0.444903 -2.131412 -0.000601
H 1.810604 -1.376114 0.880427
H 1.813519 -1.376102 -0.877178
$end
$scan
stre 1 2 2.700000 2.701000 0.100000
$end
--------------------------------------------------------------

   12    -515.9576251001      3.51e-07  Convergence criterion met
 Total energy in the final basis set =     -515.9576251001
   12    -515.9438482376      7.74e-08  Convergence criterion met
 Total energy in the final basis set =     -515.9438482376
   12    -515.9434935233      7.53e-08  Convergence criterion met
 Total energy in the final basis set =     -515.9434935233

             Standard Nuclear Orientation (Angstroms)
    I     Atom           X                Y                Z
 ----------------------------------------------------------------
    1      S      -2.2112350507    -0.0002449067    -0.0037444116
    2      C       0.4887629525     0.0000099389    -0.0004706068
    3      C       1.1577045250     1.2975974024     0.0004094762
    4      C       1.1579877425    -1.2974313562     0.0005207572
    5      H       1.8197139401     1.3710717857     0.8807069327
    6      H       1.8247064972     1.3703252279    -0.8761493645
    7      H       0.4582989631     2.1329509212    -0.0017492672
    8      H       0.4587671157    -2.1329428355    -0.0005530389
    9      H       1.8210703959    -1.3703616232     0.8800486704
   10      H       1.8239549188    -1.3704075545    -0.8768111476
 ----------------------------------------------------------------

   12    -515.9434945296      7.57e-08  Convergence criterion met
 Total energy in the final basis set =     -515.9434945296

                    Orbital Energies (a.u.)
 --------------------------------------------------------------

 Alpha MOs
 -- Occupied --
-88.853 -10.311 -10.233 -10.233  -7.906  -5.876  -5.865  -5.861
 -0.840  -0.750  -0.602  -0.573  -0.481  -0.477  -0.465  -0.437
 -0.417  -0.264  -0.202  -0.196

 Beta MOs
 -- Occupied --
-88.853 -10.311 -10.233 -10.233  -7.906  -5.876  -5.865  -5.861
 -0.840  -0.750  -0.602  -0.573  -0.481  -0.477  -0.465  -0.437
 -0.417  -0.264  -0.202  -0.196

          Ground-State Mulliken Net Atomic Charges

     Atom                 Charge (a.u.)    Spin (a.u.)
  --------------------------------------------------------
      1 S                    -0.360934      -0.000000
      2 C                     0.111946       0.000000
      3 C                    -0.378855      -0.000000
      4 C                    -0.378857      -0.000000
      5 H                     0.155922       0.000000
      6 H                     0.155780       0.000000
      7 H                     0.191648       0.000000
      8 H                     0.191647      -0.000000
      9 H                     0.155868       0.000000
     10 H                     0.155836       0.000000
  --------------------------------------------------------
  Sum of atomic charges =     0.000000

                    Cartesian Multipole Moments
 -----------------------------------------------------------------
    Charge (ESU x 10^10)
                 0.0000
    Dipole Moment (Debye)
         X       6.5719      Y       0.0006      Z       0.0092
       Tot       6.5719
    Quadrupole Moments (Debye-Ang)
        XX     -35.9002     XY      -0.0008     YY     -30.7122
        XZ      -0.0076     YZ       0.0007     ZZ     -33.5281

 Final energy is   -515.943494529613
 **  OPTIMIZATION CONVERGED  **
 Total job time:  12.86s(wall), 142.16s(cpu)
        *  Thank you very much for using Q-Chem.  Have a nice day.  *
