 Q-Chem 5.1, Q-Chem, Inc., Pleasanton, CA (2018)
 Q-Chem 5.1.1 for Intel X86 EM64T Linux

User input:
--------------------------------------------------------------

$comment
potential surface scanner
$end

$rem
JOBTYPE  PES_SCAN
UNRESTRICTED TRUE
SYM_IGNORE  TRUE
GEOM_OPT_MAX_CYCLES 400
SCF_MAX_CYCLES 400
METHOD   B3LYP
BASIS   6-31G**
PDB_PRINT 2
SCF_CONVERGENCE 6
THRESH 14
SCF_PRINT 1
$end
$molecule
0 1
S -2.814267 -0.000270 -0.002026
C 0.485733 0.000003 0.000051
C 1.216648 1.268675 -0.000311
C 1.216934 -1.268506 -0.000134
H 1.883084 1.307103 0.879193
H 1.893837 1.305208 -0.871559
H 0.569875 2.146959 -0.004363
H 0.570353 -2.146943 -0.001158
H 1.886970 -1.305918 0.876648
H 1.890568 -1.305746 -0.874131
$end
$scan
stre 1 2 3.400000 3.401000 0.100000
$end
--------------------------------------------------------------

   13    -515.8890240418      8.51e-07  Convergence criterion met
 Total energy in the final basis set =     -515.8890240418
   15    -515.8840622179      6.30e-08  Convergence criterion met
 Total energy in the final basis set =     -515.8840622179
   15    -515.8839845905      8.30e-08  Convergence criterion met
 Total energy in the final basis set =     -515.8839845905
   15    -515.8839881785      1.33e-07  Convergence criterion met
 Total energy in the final basis set =     -515.8839881785

             Standard Nuclear Orientation (Angstroms)
    I     Atom           X                Y                Z
 ----------------------------------------------------------------
    1      S      -2.9118886086    -0.0002780682    -0.0003430446
    2      C       0.4881110201     0.0000040220     0.0009028154
    3      C       1.2269975325     1.2654843857    -0.0009156612
    4      C       1.2272768164    -1.2653168728    -0.0007420159
    5      H       1.8913971813     1.3011153142     0.8802205005
    6      H       1.9065829446     1.2980148500    -0.8703773372
    7      H       0.5860885051     2.1482474916    -0.0065663150
    8      H       0.5865573314    -2.1482343481    -0.0019777699
    9      H       1.8970502300    -1.2995731226     0.8763295314
   10      H       1.9015620471    -1.2988986518    -0.8743207035
 ----------------------------------------------------------------

   15    -515.8839885526      1.34e-07  Convergence criterion met
 Total energy in the final basis set =     -515.8839885526

                    Orbital Energies (a.u.)
 --------------------------------------------------------------

 Alpha MOs
 -- Occupied --
-88.856 -10.296 -10.234 -10.234  -7.911  -5.885  -5.865  -5.865
 -0.844  -0.748  -0.599  -0.579  -0.486  -0.480  -0.463  -0.438
 -0.413  -0.244  -0.198  -0.198

 Beta MOs
 -- Occupied --
-88.856 -10.296 -10.234 -10.234  -7.911  -5.885  -5.865  -5.865
 -0.844  -0.748  -0.599  -0.579  -0.486  -0.480  -0.463  -0.438
 -0.413  -0.244  -0.198  -0.198

          Ground-State Mulliken Net Atomic Charges

     Atom                 Charge (a.u.)    Spin (a.u.)
  --------------------------------------------------------
      1 S                    -0.326057       0.000000
      2 C                     0.125729      -0.000000
      3 C                    -0.393189       0.000000
      4 C                    -0.393191      -0.000000
      5 H                     0.157143       0.000000
      6 H                     0.155916      -0.000000
      7 H                     0.180294      -0.000000
      8 H                     0.180290       0.000000
      9 H                     0.156834       0.000000
     10 H                     0.156230      -0.000000
  --------------------------------------------------------
  Sum of atomic charges =    -0.000000

                    Cartesian Multipole Moments
 -----------------------------------------------------------------
    Charge (ESU x 10^10)
                -0.0000
    Dipole Moment (Debye)
         X       7.5717      Y       0.0007      Z       0.0053
       Tot       7.5717
    Quadrupole Moments (Debye-Ang)
        XX     -38.8267     XY      -0.0010     YY     -31.3630
        XZ       0.0376     YZ       0.0050     ZZ     -33.8237

 Final energy is   -515.883988552583
 **  OPTIMIZATION CONVERGED  **
 Total job time:  17.19s(wall), 197.61s(cpu)
        *  Thank you very much for using Q-Chem.  Have a nice day.  *
