 Q-Chem 5.1, Q-Chem, Inc., Pleasanton, CA (2018)
 Q-Chem 5.1.1 for Intel X86 EM64T Linux

User input:
--------------------------------------------------------------

$comment
potential surface scanner
$end

$rem
JOBTYPE  PES_SCAN
UNRESTRICTED TRUE
SYM_IGNORE  TRUE
GEOM_OPT_MAX_CYCLES 400
SCF_MAX_CYCLES 400
METHOD   B3LYP
BASIS   6-31G**
PDB_PRINT 2
SCF_CONVERGENCE 6
THRESH 14
SCF_PRINT 1
$end
$molecule
0 1
S -1.702852 -0.000213 -0.002613
C 0.397147 0.000005 -0.000571
C 1.104398 1.294834 0.000317
C 1.104674 -1.294674 0.000383
H 1.762839 1.358099 0.880677
H 1.768141 1.356862 -0.876108
H 0.416683 2.138549 -0.002169
H 0.417140 -2.138540 -0.001019
H 1.764088 -1.357348 0.880050
H 1.767474 -1.357007 -0.876739
$end
$scan
stre 1 2 2.200000 2.201000 0.100000
$end
--------------------------------------------------------------

   10    -516.0487944041      6.82e-07  Convergence criterion met
 Total energy in the final basis set =     -516.0487944041
   10    -516.0292726420      9.96e-07  Convergence criterion met
 Total energy in the final basis set =     -516.0292726420
   11    -516.0284172655      1.85e-07  Convergence criterion met
 Total energy in the final basis set =     -516.0284172655
   11    -516.0284381091      1.88e-07  Convergence criterion met
 Total energy in the final basis set =     -516.0284381091
   11    -516.0284391579      1.88e-07  Convergence criterion met
 Total energy in the final basis set =     -516.0284391579

             Standard Nuclear Orientation (Angstroms)
    I     Atom           X                Y                Z
 ----------------------------------------------------------------
    1      S      -1.7794061388    -0.0002205972    -0.0028604077
    2      C       0.4205926232     0.0000076867    -0.0005484206
    3      C       1.1128591252     1.2981445874     0.0003443884
    4      C       1.1131354349    -1.2979823491     0.0004185899
    5      H       1.7715860761     1.3670424698     0.8808121728
    6      H       1.7767352868     1.3659415629    -0.8763036523
    7      H       0.4174323999     2.1355781366    -0.0020402336
    8      H       0.4178892291    -2.1355693555    -0.0009178262
    9      H       1.7728149012    -1.3663114862     0.8802116220
   10      H       1.7760930624    -1.3660636554    -0.8769082327
 ----------------------------------------------------------------

   11    -516.0284395868      1.88e-07  Convergence criterion met
 Total energy in the final basis set =     -516.0284395868

                    Orbital Energies (a.u.)
 --------------------------------------------------------------

 Alpha MOs
 -- Occupied --
-88.857 -10.304 -10.221 -10.221  -7.912  -5.878  -5.873  -5.866
 -0.829  -0.737  -0.630  -0.558  -0.469  -0.465  -0.455  -0.425
 -0.404  -0.302  -0.226  -0.206

 Beta MOs
 -- Occupied --
-88.857 -10.304 -10.221 -10.221  -7.912  -5.878  -5.873  -5.866
 -0.829  -0.737  -0.630  -0.558  -0.469  -0.465  -0.455  -0.425
 -0.404  -0.302  -0.226  -0.206

          Ground-State Mulliken Net Atomic Charges

     Atom                 Charge (a.u.)    Spin (a.u.)
  --------------------------------------------------------
      1 S                    -0.268992      -0.000000
      2 C                     0.030749       0.000000
      3 C                    -0.353099       0.000000
      4 C                    -0.353100      -0.000000
      5 H                     0.147217       0.000000
      6 H                     0.147072      -0.000000
      7 H                     0.177932       0.000000
      8 H                     0.177932       0.000000
      9 H                     0.147172       0.000000
     10 H                     0.147117       0.000000
  --------------------------------------------------------
  Sum of atomic charges =    -0.000000

                    Cartesian Multipole Moments
 -----------------------------------------------------------------
    Charge (ESU x 10^10)
                 0.0000
    Dipole Moment (Debye)
         X       5.0581      Y       0.0005      Z       0.0067
       Tot       5.0581
    Quadrupole Moments (Debye-Ang)
        XX     -34.1557     XY      -0.0005     YY     -31.0812
        XZ      -0.0041     YZ       0.0006     ZZ     -33.1603

 Final energy is   -516.028439586765
 **  OPTIMIZATION CONVERGED  **
 Total job time:  17.57s(wall), 198.74s(cpu)
        *  Thank you very much for using Q-Chem.  Have a nice day.  *
