 Q-Chem 5.1, Q-Chem, Inc., Pleasanton, CA (2018)
 Q-Chem 5.1.1 for Intel X86 EM64T Linux

User input:
--------------------------------------------------------------

$comment
potential surface scanner
$end

$rem
JOBTYPE  PES_SCAN
UNRESTRICTED TRUE
SYM_IGNORE  TRUE
GEOM_OPT_MAX_CYCLES 400
SCF_MAX_CYCLES 400
METHOD   B3LYP
BASIS   6-31G**
PDB_PRINT 2
SCF_CONVERGENCE 6
THRESH 14
SCF_PRINT 1
$end
$molecule
0 1
S -1.384800 -0.000090 -0.000650
C 0.254740 0.000000 -0.000460
C 1.069650 1.268800 0.000070
C 1.069930 -1.268640 0.000060
H 1.723780 1.290230 0.882300
H 1.730580 1.287500 -0.877070
H 0.440180 2.158930 -0.003450
H 0.440730 -2.158960 -0.002030
H 1.725260 -1.289320 0.881400
H 1.729680 -1.287880 -0.877960
$end
$scan
stre 1 2 1.200000 1.201000 0.100000
$end
--------------------------------------------------------------

    8    -516.1187619766      7.37e-07  Convergence criterion met
 Total energy in the final basis set =     -516.1187619766
    8    -516.1012628011      6.20e-07  Convergence criterion met
 Total energy in the final basis set =     -516.1012628011
    8    -516.0171684350      8.30e-07  Convergence criterion met
 Total energy in the final basis set =     -516.0171684350
    9    -515.9068205224      2.84e-07  Convergence criterion met
 Total energy in the final basis set =     -515.9068205224
    9    -515.8080999355      3.09e-07  Convergence criterion met
 Total energy in the final basis set =     -515.8080999355
    9    -515.8066155392      3.12e-07  Convergence criterion met
 Total energy in the final basis set =     -515.8066155392
    9    -515.8079128674      3.26e-07  Convergence criterion met
 Total energy in the final basis set =     -515.8079128674
    9    -515.8079299664      3.27e-07  Convergence criterion met
 Total energy in the final basis set =     -515.8079299664
    9    -515.8079898459      3.27e-07  Convergence criterion met
 Total energy in the final basis set =     -515.8079898459
    9    -515.8080075381      3.27e-07  Convergence criterion met
 Total energy in the final basis set =     -515.8080075381
    9    -515.8080117747      3.26e-07  Convergence criterion met
 Total energy in the final basis set =     -515.8080117747
    9    -515.8080128394      3.26e-07  Convergence criterion met
 Total energy in the final basis set =     -515.8080128394
    9    -515.8080138531      3.26e-07  Convergence criterion met
 Total energy in the final basis set =     -515.8080138531

             Standard Nuclear Orientation (Angstroms)
    I     Atom           X                Y                Z
 ----------------------------------------------------------------
    1      S      -1.1123593532    -0.0001566877    -0.0013203402
    2      C       0.0876404862    -0.0000286551    -0.0006950886
    3      C       1.0494360733     1.2504064034     0.0002036189
    4      C       1.0497061661    -1.2502569368     0.0002071700
    5      H       1.6952636396     1.2367479367     0.8847420727
    6      H       1.7013115898     1.2343550031    -0.8798066464
    7      H       0.4655777563     2.1750248761    -0.0028886808
    8      H       0.4660425562    -2.1750022515    -0.0015187154
    9      H       1.6966364813    -1.2357921632     0.8839219939
   10      H       1.7004746044    -1.2347275249    -0.8806353840
 ----------------------------------------------------------------

    9    -515.8080143505      3.26e-07  Convergence criterion met
 Total energy in the final basis set =     -515.8080143505

                    Orbital Energies (a.u.)
 --------------------------------------------------------------

 Alpha MOs
 -- Occupied --
-88.821 -10.216 -10.179 -10.179  -7.922  -5.886  -5.880  -5.872
 -0.917  -0.720  -0.689  -0.491  -0.459  -0.458  -0.424  -0.386
 -0.377  -0.360  -0.359  -0.194

 Beta MOs
 -- Occupied --
-88.821 -10.216 -10.179 -10.179  -7.922  -5.886  -5.880  -5.872
 -0.917  -0.720  -0.689  -0.491  -0.459  -0.458  -0.424  -0.386
 -0.377  -0.360  -0.359  -0.194

          Ground-State Mulliken Net Atomic Charges

     Atom                 Charge (a.u.)    Spin (a.u.)
  --------------------------------------------------------
      1 S                    -0.002650       0.000000
      2 C                     0.045190      -0.000000
      3 C                    -0.362844       0.000000
      4 C                    -0.362843       0.000000
      5 H                     0.115743       0.000000
      6 H                     0.115640      -0.000000
      7 H                     0.110190       0.000000
      8 H                     0.110190       0.000000
      9 H                     0.115716       0.000000
     10 H                     0.115667      -0.000000
  --------------------------------------------------------
  Sum of atomic charges =    -0.000000

                    Cartesian Multipole Moments
 -----------------------------------------------------------------
    Charge (ESU x 10^10)
                -0.0000
    Dipole Moment (Debye)
         X       1.3736      Y       0.0001      Z       0.0019
       Tot       1.3736
    Quadrupole Moments (Debye-Ang)
        XX     -32.9041     XY      -0.0001     YY     -32.8416
        XZ      -0.0013     YZ       0.0004     ZZ     -30.6355

 Final energy is   -515.808014350457
 **  OPTIMIZATION CONVERGED  **
 Total job time:  38.71s(wall), 430.29s(cpu)
        *  Thank you very much for using Q-Chem.  Have a nice day.  *
