 Q-Chem 5.1, Q-Chem, Inc., Pleasanton, CA (2018)
 Q-Chem 5.1.1 for Intel X86 EM64T Linux

User input:
--------------------------------------------------------------

$comment
potential surface scanner
$end

$rem
JOBTYPE  PES_SCAN
UNRESTRICTED TRUE
SYM_IGNORE  TRUE
GEOM_OPT_MAX_CYCLES 400
SCF_MAX_CYCLES 400
METHOD   B3LYP
BASIS   6-31G**
PDB_PRINT 2
SCF_CONVERGENCE 6
THRESH 14
SCF_PRINT 1
$end
$molecule
0 1
S -1.779406 -0.000221 -0.002860
C 0.420593 0.000008 -0.000548
C 1.112859 1.298145 0.000344
C 1.113135 -1.297982 0.000419
H 1.771586 1.367042 0.880812
H 1.776735 1.365942 -0.876304
H 0.417432 2.135578 -0.002040
H 0.417889 -2.135569 -0.000918
H 1.772815 -1.366311 0.880212
H 1.776093 -1.366064 -0.876908
$end
$scan
stre 1 2 2.300000 2.301000 0.100000
$end
--------------------------------------------------------------

   11    -516.0284395388      1.88e-07  Convergence criterion met
 Total energy in the final basis set =     -516.0284395388
   10    -516.0094604723      6.30e-07  Convergence criterion met
 Total energy in the final basis set =     -516.0094604723
   10    -516.0087982455      6.14e-07  Convergence criterion met
 Total energy in the final basis set =     -516.0087982455
   10    -516.0088037396      6.12e-07  Convergence criterion met
 Total energy in the final basis set =     -516.0088037396

             Standard Nuclear Orientation (Angstroms)
    I     Atom           X                Y                Z
 ----------------------------------------------------------------
    1      S      -1.8586749749    -0.0002267775    -0.0031122865
    2      C       0.4413235527     0.0000095299    -0.0005209555
    3      C       1.1215666402     1.3005295530     0.0003729826
    4      C       1.1218441081    -1.3003658574     0.0004552240
    5      H       1.7805877803     1.3739747533     0.8809253914
    6      H       1.7855886069     1.3729926122    -0.8764695486
    7      H       0.4201349512     2.1330958367    -0.0019170823
    8      H       0.4205927948    -2.1330875339    -0.0008137612
    9      H       1.7818049531    -1.3732593350     0.8803437931
   10      H       1.7849625877    -1.3730947813    -0.8770547571
 ----------------------------------------------------------------

   10    -516.0088039361      6.11e-07  Convergence criterion met
 Total energy in the final basis set =     -516.0088039361

                    Orbital Energies (a.u.)
 --------------------------------------------------------------

 Alpha MOs
 -- Occupied --
-88.856 -10.307 -10.224 -10.224  -7.910  -5.878  -5.871  -5.865
 -0.831  -0.741  -0.622  -0.562  -0.472  -0.468  -0.457  -0.428
 -0.408  -0.293  -0.220  -0.203

 Beta MOs
 -- Occupied --
-88.856 -10.307 -10.224 -10.224  -7.910  -5.878  -5.871  -5.865
 -0.831  -0.741  -0.622  -0.562  -0.472  -0.468  -0.457  -0.428
 -0.408  -0.293  -0.220  -0.203

          Ground-State Mulliken Net Atomic Charges

     Atom                 Charge (a.u.)    Spin (a.u.)
  --------------------------------------------------------
      1 S                    -0.295319      -0.000000
      2 C                     0.050622       0.000000
      3 C                    -0.358444       0.000000
      4 C                    -0.358445      -0.000000
      5 H                     0.149397       0.000000
      6 H                     0.149263       0.000000
      7 H                     0.182132      -0.000000
      8 H                     0.182132       0.000000
      9 H                     0.149353       0.000000
     10 H                     0.149307      -0.000000
  --------------------------------------------------------
  Sum of atomic charges =     0.000000

                    Cartesian Multipole Moments
 -----------------------------------------------------------------
    Charge (ESU x 10^10)
                -0.0000
    Dipole Moment (Debye)
         X       5.3839      Y       0.0006      Z       0.0073
       Tot       5.3839
    Quadrupole Moments (Debye-Ang)
        XX     -34.4413     XY      -0.0006     YY     -30.9554
        XZ      -0.0049     YZ       0.0006     ZZ     -33.2556

 Final energy is   -516.008803936066
 **  OPTIMIZATION CONVERGED  **
 Total job time:  14.14s(wall), 161.14s(cpu)
        *  Thank you very much for using Q-Chem.  Have a nice day.  *
