 Q-Chem 5.1, Q-Chem, Inc., Pleasanton, CA (2018)
 Q-Chem 5.1.1 for Intel X86 EM64T Linux

User input:
--------------------------------------------------------------

$comment
potential surface scanner
$end

$rem
JOBTYPE  PES_SCAN
UNRESTRICTED TRUE
SYM_IGNORE  TRUE
GEOM_OPT_MAX_CYCLES 400
SCF_MAX_CYCLES 400
METHOD   B3LYP
BASIS   6-31G**
PDB_PRINT 2
SCF_CONVERGENCE 6
THRESH 14
SCF_PRINT 1
$end
$molecule
0 1
S -1.353406 -0.000179 -0.001017
C 0.246594 -0.000011 -0.000539
C 1.066751 1.268254 0.000138
C 1.067022 -1.268100 0.000147
H 1.721889 1.293264 0.880904
H 1.728340 1.290791 -0.875812
H 0.435648 2.156725 -0.003191
H 0.436106 -2.156709 -0.001815
H 1.723326 -1.292358 0.880060
H 1.727460 -1.291108 -0.876665
$end
$scan
stre 1 2 1.700000 1.701000 0.100000
$end
--------------------------------------------------------------

    8    -516.1176831758      7.11e-07  Convergence criterion met
 Total energy in the final basis set =     -516.1176831758
    8    -516.1163696477      8.61e-07  Convergence criterion met
 Total energy in the final basis set =     -516.1163696477
    8    -516.1164660244      8.59e-07  Convergence criterion met
 Total energy in the final basis set =     -516.1164660244
    8    -516.1164852511      8.54e-07  Convergence criterion met
 Total energy in the final basis set =     -516.1164852511

             Standard Nuclear Orientation (Angstroms)
    I     Atom           X                Y                Z
 ----------------------------------------------------------------
    1      S      -1.4188191807    -0.0001836842    -0.0014504716
    2      C       0.2811805776    -0.0000075915    -0.0005859038
    3      C       1.0736960510     1.2745770330     0.0001902240
    4      C       1.0739680780    -1.2744230278     0.0002118737
    5      H       1.7296229551     1.3084758620     0.8808009201
    6      H       1.7357472927     1.3063802663    -0.8758609877
    7      H       0.4289706415     2.1525560119    -0.0028838904
    8      H       0.4294289802    -2.1525432389    -0.0015630514
    9      H       1.7310142712    -1.3076068852     0.8800099871
   10      H       1.7349203334    -1.3066557456    -0.8766587001
 ----------------------------------------------------------------

    8    -516.1164856531      8.53e-07  Convergence criterion met
 Total energy in the final basis set =     -516.1164856531

                    Orbital Energies (a.u.)
 --------------------------------------------------------------

 Alpha MOs
 -- Occupied --
-88.856 -10.273 -10.203 -10.203  -7.916  -5.880  -5.879  -5.871
 -0.829  -0.715  -0.696  -0.532  -0.456  -0.447  -0.443  -0.407
 -0.379  -0.350  -0.275  -0.216

 Beta MOs
 -- Occupied --
-88.856 -10.273 -10.203 -10.203  -7.916  -5.880  -5.879  -5.871
 -0.829  -0.715  -0.696  -0.532  -0.456  -0.447  -0.443  -0.407
 -0.379  -0.350  -0.275  -0.216

          Ground-State Mulliken Net Atomic Charges

     Atom                 Charge (a.u.)    Spin (a.u.)
  --------------------------------------------------------
      1 S                    -0.141979      -0.000000
      2 C                    -0.018955       0.000000
      3 C                    -0.335037       0.000000
      4 C                    -0.335037      -0.000000
      5 H                     0.132999      -0.000000
      6 H                     0.132802      -0.000000
      7 H                     0.149703       0.000000
      8 H                     0.149703       0.000000
      9 H                     0.132952       0.000000
     10 H                     0.132849       0.000000
  --------------------------------------------------------
  Sum of atomic charges =     0.000000

                    Cartesian Multipole Moments
 -----------------------------------------------------------------
    Charge (ESU x 10^10)
                -0.0000
    Dipole Moment (Debye)
         X       3.2907      Y       0.0003      Z       0.0035
       Tot       3.2907
    Quadrupole Moments (Debye-Ang)
        XX     -33.1985     XY      -0.0003     YY     -31.9071
        XZ      -0.0004     YZ       0.0006     ZZ     -32.3034

 Final energy is   -516.116485653057
 **  OPTIMIZATION CONVERGED  **
 Total job time:  13.69s(wall), 145.40s(cpu)
        *  Thank you very much for using Q-Chem.  Have a nice day.  *
