 Q-Chem 5.1, Q-Chem, Inc., Pleasanton, CA (2018)
 Q-Chem 5.1.1 for Intel X86 EM64T Linux

User input:
--------------------------------------------------------------

$comment
potential surface scanner
$end

$rem
JOBTYPE  PES_SCAN
UNRESTRICTED TRUE
SYM_IGNORE  TRUE
GEOM_OPT_MAX_CYCLES 400
SCF_MAX_CYCLES 400
METHOD   B3LYP
BASIS   6-31G**
PDB_PRINT 2
SCF_CONVERGENCE 6
THRESH 14
SCF_PRINT 1
$end
$molecule
0 1
S -2.309693 -0.000251 -0.003794
C 0.490305 0.000009 -0.000482
C 1.166958 1.293226 0.000389
C 1.167241 -1.293059 0.000511
H 1.830524 1.361204 0.880220
H 1.835728 1.360469 -0.875522
H 0.475672 2.135589 -0.001806
H 0.476142 -2.135578 -0.000513
H 1.831999 -1.360475 0.879477
H 1.834857 -1.360567 -0.876270
$end
$scan
stre 1 2 2.900000 2.901000 0.100000
$end
--------------------------------------------------------------

   12    -515.9309478643      1.46e-07  Convergence criterion met
 Total energy in the final basis set =     -515.9309478643
   12    -515.9201857284      8.87e-07  Convergence criterion met
 Total energy in the final basis set =     -515.9201857284
   12    -515.9199636757      8.37e-07  Convergence criterion met
 Total energy in the final basis set =     -515.9199636757

             Standard Nuclear Orientation (Angstroms)
    I     Atom           X                Y                Z
 ----------------------------------------------------------------
    1      S      -2.4110292358    -0.0002385007    -0.0036615379
    2      C       0.4889686386     0.0000045473    -0.0005778009
    3      C       1.1764715430     1.2878814888     0.0003247209
    4      C       1.1767619816    -1.2877182194     0.0004575079
    5      H       1.8414595152     1.3488935105     0.8797342356
    6      H       1.8471558769     1.3481887078    -0.8747632505
    7      H       0.4951130132     2.1385790604    -0.0019778534
    8      H       0.4955983128    -2.1385760128    -0.0005333688
    9      H       1.8431282523    -1.3481315566     0.8788550130
   10      H       1.8461051023    -1.3483160253    -0.8756476659
 ----------------------------------------------------------------

   13    -515.9199706641      2.17e-07  Convergence criterion met
 Total energy in the final basis set =     -515.9199706641

                    Orbital Energies (a.u.)
 --------------------------------------------------------------

 Alpha MOs
 -- Occupied --
-88.851 -10.309 -10.235 -10.235  -7.905  -5.877  -5.862  -5.860
 -0.844  -0.752  -0.597  -0.577  -0.484  -0.480  -0.466  -0.439
 -0.418  -0.256  -0.197  -0.194

 Beta MOs
 -- Occupied --
-88.851 -10.309 -10.235 -10.235  -7.905  -5.877  -5.862  -5.860
 -0.844  -0.752  -0.597  -0.577  -0.484  -0.480  -0.466  -0.439
 -0.418  -0.256  -0.197  -0.194

          Ground-State Mulliken Net Atomic Charges

     Atom                 Charge (a.u.)    Spin (a.u.)
  --------------------------------------------------------
      1 S                    -0.367290       0.000000
      2 C                     0.127008      -0.000000
      3 C                    -0.386316      -0.000000
      4 C                    -0.386316      -0.000000
      5 H                     0.157815      -0.000000
      6 H                     0.157617      -0.000000
      7 H                     0.191026       0.000000
      8 H                     0.191024      -0.000000
      9 H                     0.157741      -0.000000
     10 H                     0.157693      -0.000000
  --------------------------------------------------------
  Sum of atomic charges =     0.000000

                    Cartesian Multipole Moments
 -----------------------------------------------------------------
    Charge (ESU x 10^10)
                 0.0000
    Dipole Moment (Debye)
         X       7.0739      Y       0.0007      Z       0.0095
       Tot       7.0739
    Quadrupole Moments (Debye-Ang)
        XX     -36.7854     XY      -0.0009     YY     -30.8039
        XZ      -0.0075     YZ       0.0011     ZZ     -33.6532

 Final energy is   -515.919970664059
 **  OPTIMIZATION CONVERGED  **
 Total job time:  12.65s(wall), 144.03s(cpu)
        *  Thank you very much for using Q-Chem.  Have a nice day.  *
