 Q-Chem 5.1, Q-Chem, Inc., Pleasanton, CA (2018)
 Q-Chem 5.1.1 for Intel X86 EM64T Linux

User input:
--------------------------------------------------------------

$comment
potential surface scanner
$end

$rem
JOBTYPE  PES_SCAN
UNRESTRICTED TRUE
SYM_IGNORE  TRUE
GEOM_OPT_MAX_CYCLES 400
SCF_MAX_CYCLES 400
METHOD   B3LYP
BASIS   6-31G**
PDB_PRINT 2
SCF_CONVERGENCE 6
THRESH 14
SCF_PRINT 1
$end
$molecule
0 1
S -2.814173 -0.019707 0.983479
C 0.568249 0.002301 0.084180
C 1.299787 1.258781 0.013529
C 1.239563 -1.253002 -0.219154
H 0.948472 2.002819 0.734424
H 2.399470 1.199330 -0.022708
H 0.951546 1.639174 -0.968828
H 0.578731 -1.990884 -0.683905
H 1.410669 -1.644776 0.804607
H 2.217420 -1.193473 -0.723411
$end
$scan
stre 1 2 3.600000 3.601000 0.100000
$end
--------------------------------------------------------------

   13    -515.8848224626      5.52e-07  Convergence criterion met
 Total energy in the final basis set =     -515.8848224626
   13    -515.8811473657      9.74e-07  Convergence criterion met
 Total energy in the final basis set =     -515.8811473657
   13    -515.8810893445      8.84e-07  Convergence criterion met
 Total energy in the final basis set =     -515.8810893445
   13    -515.8810909355      8.38e-07  Convergence criterion met
 Total energy in the final basis set =     -515.8810909355

             Standard Nuclear Orientation (Angstroms)
    I     Atom           X                Y                Z
 ----------------------------------------------------------------
    1      S      -2.9066054817    -0.0217394840     1.0050865396
    2      C       0.5736931520     0.0029047117     0.0848074395
    3      C       1.3103223471     1.2569877008     0.0119344784
    4      C       1.2486740700    -1.2507832682    -0.2215202543
    5      H       0.9638838224     2.0043375786     0.7318829836
    6      H       2.4101023960     1.1962789910    -0.0274805480
    7      H       0.9604650782     1.6357582069    -0.9706787717
    8      H       0.5901871002    -1.9907128008    -0.6865319023
    9      H       1.4227969242    -1.6426227765     0.8016360559
   10      H       2.2262145915    -1.1898458594    -0.7269230207
 ----------------------------------------------------------------

   13    -515.8810913272      8.30e-07  Convergence criterion met
 Total energy in the final basis set =     -515.8810913272

                    Orbital Energies (a.u.)
 --------------------------------------------------------------

 Alpha MOs
 -- Occupied --
-88.863 -10.283 -10.232 -10.231  -7.918  -5.893  -5.871  -5.871
 -0.841  -0.749  -0.605  -0.573  -0.483  -0.480  -0.461  -0.435
 -0.402  -0.242  -0.204  -0.204

 Beta MOs
 -- Occupied --
-88.863 -10.283 -10.232 -10.231  -7.918  -5.893  -5.871  -5.871
 -0.841  -0.749  -0.605  -0.573  -0.483  -0.480  -0.461  -0.435
 -0.402  -0.242  -0.204  -0.204

          Ground-State Mulliken Net Atomic Charges

     Atom                 Charge (a.u.)    Spin (a.u.)
  --------------------------------------------------------
      1 S                    -0.299656       0.000000
      2 C                     0.103893       0.000000
      3 C                    -0.394750      -0.000000
      4 C                    -0.395313      -0.000000
      5 H                     0.181756       0.000000
      6 H                     0.124112      -0.000000
      7 H                     0.186922       0.000000
      8 H                     0.182402      -0.000000
      9 H                     0.187225       0.000000
     10 H                     0.123408       0.000000
  --------------------------------------------------------
  Sum of atomic charges =    -0.000000

                    Cartesian Multipole Moments
 -----------------------------------------------------------------
    Charge (ESU x 10^10)
                -0.0000
    Dipole Moment (Debye)
         X       6.6486      Y       0.0303      Z      -1.7715
       Tot       6.8806
    Quadrupole Moments (Debye-Ang)
        XX     -39.4659     XY      -0.1323     YY     -30.5009
        XZ       3.1171     YZ      -0.3821     ZZ     -34.9063

 Final energy is   -515.881091327163
 **  OPTIMIZATION CONVERGED  **
 Total job time:  16.43s(wall), 185.20s(cpu)
        *  Thank you very much for using Q-Chem.  Have a nice day.  *
