 Q-Chem 5.1, Q-Chem, Inc., Pleasanton, CA (2018)
 Q-Chem 5.1.1 for Intel X86 EM64T Linux

User input:
--------------------------------------------------------------

$comment
potential surface scanner
$end

$rem
JOBTYPE  PES_SCAN
UNRESTRICTED TRUE
SYM_IGNORE  TRUE
GEOM_OPT_MAX_CYCLES 400
SCF_MAX_CYCLES 400
METHOD   B3LYP
BASIS   6-31G**
PDB_PRINT 2
SCF_CONVERGENCE 6
THRESH 14
SCF_PRINT 1
$end
$molecule
0 1
S -2.614842 -0.000236 -0.003133
C 0.485156 -0.000002 -0.000554
C 1.196263 1.277074 0.000122
C 1.196559 -1.276913 0.000280
H 1.863023 1.324684 0.878993
H 1.870381 1.323691 -0.873122
H 0.534333 2.143506 -0.002721
H 0.534831 -2.143504 -0.000715
H 1.865397 -1.323793 0.877594
H 1.868634 -1.323942 -0.874533
$end
$scan
stre 1 2 3.200000 3.201000 0.100000
$end
--------------------------------------------------------------

   14    -515.9020478392      2.01e-08  Convergence criterion met
 Total energy in the final basis set =     -515.9020478392
   14    -515.8950887952      2.58e-07  Convergence criterion met
 Total energy in the final basis set =     -515.8950887952
   14    -515.8949763414      3.09e-07  Convergence criterion met
 Total energy in the final basis set =     -515.8949763414

             Standard Nuclear Orientation (Angstroms)
    I     Atom           X                Y                Z
 ----------------------------------------------------------------
    1      S      -2.7152949873    -0.0002506193    -0.0027129828
    2      C       0.4847038511    -0.0000006622    -0.0003399441
    3      C       1.2064251764     1.2724947168    -0.0000459124
    4      C       1.2067176590    -1.2723302114     0.0001236607
    5      H       1.8733329597     1.3149007922     0.8789357439
    6      H       1.8820413794     1.3135597068    -0.8723525609
    7      H       0.5526610353     2.1453543095    -0.0033658984
    8      H       0.5531523949    -2.1453452246    -0.0008706934
    9      H       1.8763216165    -1.3138922481     0.8770723666
   10      H       1.8796739153    -1.3139255595    -0.8742327793
 ----------------------------------------------------------------

   14    -515.8949825649      2.92e-07  Convergence criterion met
 Total energy in the final basis set =     -515.8949825649

                    Orbital Energies (a.u.)
 --------------------------------------------------------------

 Alpha MOs
 -- Occupied --
-88.852 -10.302 -10.236 -10.236  -7.907  -5.880  -5.862  -5.861
 -0.846  -0.751  -0.596  -0.580  -0.487  -0.481  -0.466  -0.440
 -0.416  -0.248  -0.195  -0.195

 Beta MOs
 -- Occupied --
-88.852 -10.302 -10.236 -10.236  -7.907  -5.880  -5.862  -5.861
 -0.846  -0.751  -0.596  -0.580  -0.487  -0.481  -0.466  -0.440
 -0.416  -0.248  -0.195  -0.195

          Ground-State Mulliken Net Atomic Charges

     Atom                 Charge (a.u.)    Spin (a.u.)
  --------------------------------------------------------
      1 S                    -0.350314      -0.000000
      2 C                     0.132335       0.000000
      3 C                    -0.392501      -0.000000
      4 C                    -0.392502       0.000000
      5 H                     0.158279      -0.000000
      6 H                     0.157783       0.000000
      7 H                     0.185430      -0.000000
      8 H                     0.185427       0.000000
      9 H                     0.158125      -0.000000
     10 H                     0.157939      -0.000000
  --------------------------------------------------------
  Sum of atomic charges =    -0.000000

                    Cartesian Multipole Moments
 -----------------------------------------------------------------
    Charge (ESU x 10^10)
                 0.0000
    Dipole Moment (Debye)
         X       7.5389      Y       0.0007      Z       0.0085
       Tot       7.5389
    Quadrupole Moments (Debye-Ang)
        XX     -38.1232     XY      -0.0010     YY     -31.1252
        XZ       0.0034     YZ       0.0024     ZZ     -33.7934

 Final energy is   -515.894982564914
 **  OPTIMIZATION CONVERGED  **
 Total job time:  13.28s(wall), 152.00s(cpu)
        *  Thank you very much for using Q-Chem.  Have a nice day.  *
