 Q-Chem 5.1, Q-Chem, Inc., Pleasanton, CA (2018)
 Q-Chem 5.1.1 for Intel X86 EM64T Linux

User input:
--------------------------------------------------------------

$comment
potential surface scanner
$end

$rem
JOBTYPE  PES_SCAN
UNRESTRICTED TRUE
SYM_IGNORE  TRUE
GEOM_OPT_MAX_CYCLES 400
SCF_MAX_CYCLES 400
METHOD   B3LYP
BASIS   6-31G**
PDB_PRINT 2
SCF_CONVERGENCE 6
THRESH 14
SCF_PRINT 1
$end
$molecule
0 1
S -1.556810 -0.000196 -0.002051
C 0.343189 -0.000002 -0.000602
C 1.088525 1.285721 0.000255
C 1.088800 -1.285564 0.000300
H 1.745734 1.335200 0.880761
H 1.751434 1.333592 -0.876019
H 0.420328 2.145161 -0.002496
H 0.420786 -2.145151 -0.001263
H 1.747055 -1.334393 0.880054
H 1.750689 -1.333800 -0.876731
$end
$scan
stre 1 2 2.000000 2.001000 0.100000
$end
--------------------------------------------------------------

    9    -516.0887208060      5.08e-07  Convergence criterion met
 Total energy in the final basis set =     -516.0887208060
   10    -516.0698785385      1.73e-07  Convergence criterion met
 Total energy in the final basis set =     -516.0698785385
   10    -516.0692029153      1.88e-07  Convergence criterion met
 Total energy in the final basis set =     -516.0692029153

             Standard Nuclear Orientation (Angstroms)
    I     Atom           X                Y                Z
 ----------------------------------------------------------------
    1      S      -1.6290144441    -0.0002049146    -0.0023260275
    2      C       0.3709847840     0.0000019551    -0.0005909434
    3      C       1.0963448702     1.2905051589     0.0002848617
    4      C       1.0966201318    -1.2903464961     0.0003400349
    5      H       1.7541577588     1.3469999966     0.8807465495
    6      H       1.7596634441     1.3455851056    -0.8760908356
    7      H       0.4180576440     2.1418466073    -0.0023329069
    8      H       0.4185149232    -2.1418366651    -0.0011418488
    9      H       1.7554423647    -1.3462217505     0.8800806632
   10      H       1.7589585233    -1.3457609972    -0.8767615471
 ----------------------------------------------------------------

   10    -516.0692199036      1.91e-07  Convergence criterion met
 Total energy in the final basis set =     -516.0692199036

                    Orbital Energies (a.u.)
 --------------------------------------------------------------

 Alpha MOs
 -- Occupied --
-88.858 -10.296 -10.215 -10.215  -7.914  -5.880  -5.876  -5.869
 -0.825  -0.729  -0.652  -0.549  -0.464  -0.459  -0.449  -0.419
 -0.395  -0.321  -0.242  -0.211

 Beta MOs
 -- Occupied --
-88.858 -10.296 -10.215 -10.215  -7.914  -5.880  -5.876  -5.869
 -0.825  -0.729  -0.652  -0.549  -0.464  -0.459  -0.449  -0.419
 -0.395  -0.321  -0.242  -0.211

          Ground-State Mulliken Net Atomic Charges

     Atom                 Charge (a.u.)    Spin (a.u.)
  --------------------------------------------------------
      1 S                    -0.211878       0.000000
      2 C                    -0.005262       0.000000
      3 C                    -0.343516      -0.000000
      4 C                    -0.343517       0.000000
      5 H                     0.142168      -0.000000
      6 H                     0.142002      -0.000000
      7 H                     0.167916      -0.000000
      8 H                     0.167916       0.000000
      9 H                     0.142123      -0.000000
     10 H                     0.142048      -0.000000
  --------------------------------------------------------
  Sum of atomic charges =     0.000000

                    Cartesian Multipole Moments
 -----------------------------------------------------------------
    Charge (ESU x 10^10)
                 0.0000
    Dipole Moment (Debye)
         X       4.3770      Y       0.0005      Z       0.0054
       Tot       4.3770
    Quadrupole Moments (Debye-Ang)
        XX     -33.6872     XY      -0.0004     YY     -31.3847
        XZ      -0.0025     YZ       0.0006     ZZ     -32.9025

 Final energy is   -516.069219903560
 **  OPTIMIZATION CONVERGED  **
 Total job time:  11.62s(wall), 128.24s(cpu)
        *  Thank you very much for using Q-Chem.  Have a nice day.  *
