 Q-Chem 5.1, Q-Chem, Inc., Pleasanton, CA (2018)
 Q-Chem 5.1.1 for Intel X86 EM64T Linux

User input:
--------------------------------------------------------------

$comment
potential surface scanner
$end

$rem
JOBTYPE  PES_SCAN
UNRESTRICTED TRUE
SYM_IGNORE  TRUE
GEOM_OPT_MAX_CYCLES 400
SCF_MAX_CYCLES 400
METHOD   B3LYP
BASIS   6-31G**
PDB_PRINT 2
SCF_CONVERGENCE 6
THRESH 14
SCF_PRINT 1
$end
$molecule
0 1
S -2.411029 -0.000239 -0.003662
C 0.488969 0.000005 -0.000578
C 1.176472 1.287881 0.000325
C 1.176762 -1.287718 0.000458
H 1.841460 1.348894 0.879734
H 1.847156 1.348189 -0.874763
H 0.495113 2.138579 -0.001978
H 0.495598 -2.138576 -0.000533
H 1.843128 -1.348132 0.878855
H 1.846105 -1.348316 -0.875648
$end
$scan
stre 1 2 3.000000 3.001000 0.100000
$end
--------------------------------------------------------------

   13    -515.9199706510      2.17e-07  Convergence criterion met
 Total energy in the final basis set =     -515.9199706510
   14    -515.9105280892      1.09e-07  Convergence criterion met
 Total energy in the final basis set =     -515.9105280892
   14    -515.9103520784      1.66e-07  Convergence criterion met
 Total energy in the final basis set =     -515.9103520784

             Standard Nuclear Orientation (Angstroms)
    I     Atom           X                Y                Z
 ----------------------------------------------------------------
    1      S      -2.5130967428    -0.0002300988    -0.0034231312
    2      C       0.4869015701    -0.0000007490    -0.0006296829
    3      C       1.1862466300     1.2823329888     0.0002358022
    4      C       1.1865428177    -1.2821723723     0.0003810130
    5      H       1.8523200194     1.3363179741     0.8792927083
    6      H       1.8587336356     1.3355363398    -0.8739319401
    7      H       0.5149534183     2.1412607743    -0.0022830769
    8      H       0.5154511677    -2.1412616446    -0.0006120742
    9      H       1.8542749932    -1.3355045860     0.8782060336
   10      H       1.8574064908    -1.3357116262    -0.8750256516
 ----------------------------------------------------------------

   14    -515.9103603164      1.85e-07  Convergence criterion met
 Total energy in the final basis set =     -515.9103603164

                    Orbital Energies (a.u.)
 --------------------------------------------------------------

 Alpha MOs
 -- Occupied --
-88.851 -10.307 -10.236 -10.236  -7.905  -5.877  -5.862  -5.859
 -0.845  -0.752  -0.596  -0.579  -0.486  -0.481  -0.467  -0.440
 -0.418  -0.253  -0.196  -0.194

 Beta MOs
 -- Occupied --
-88.851 -10.307 -10.236 -10.236  -7.905  -5.877  -5.862  -5.859
 -0.845  -0.752  -0.596  -0.579  -0.486  -0.481  -0.467  -0.440
 -0.418  -0.253  -0.196  -0.194

          Ground-State Mulliken Net Atomic Charges

     Atom                 Charge (a.u.)    Spin (a.u.)
  --------------------------------------------------------
      1 S                    -0.364857       0.000000
      2 C                     0.131004      -0.000000
      3 C                    -0.389088      -0.000000
      4 C                    -0.389090      -0.000000
      5 H                     0.158324       0.000000
      6 H                     0.158066      -0.000000
      7 H                     0.189625      -0.000000
      8 H                     0.189622      -0.000000
      9 H                     0.158233       0.000000
     10 H                     0.158160      -0.000000
  --------------------------------------------------------
  Sum of atomic charges =     0.000000

                    Cartesian Multipole Moments
 -----------------------------------------------------------------
    Charge (ESU x 10^10)
                -0.0000
    Dipole Moment (Debye)
         X       7.2797      Y       0.0006      Z       0.0093
       Tot       7.2797
    Quadrupole Moments (Debye-Ang)
        XX     -37.2460     XY      -0.0009     YY     -30.8958
        XZ      -0.0061     YZ       0.0013     ZZ     -33.7106

 Final energy is   -515.910360316436
 **  OPTIMIZATION CONVERGED  **
 Total job time:  13.75s(wall), 155.79s(cpu)
        *  Thank you very much for using Q-Chem.  Have a nice day.  *
