 Q-Chem 5.1, Q-Chem, Inc., Pleasanton, CA (2018)
 Q-Chem 5.1.1 for Intel X86 EM64T Linux

User input:
--------------------------------------------------------------

$comment
potential surface scanner
$end

$rem
JOBTYPE  PES_SCAN
UNRESTRICTED TRUE
SYM_IGNORE  TRUE
GEOM_OPT_MAX_CYCLES 400
SCF_MAX_CYCLES 400
METHOD   B3LYP
BASIS   6-31G**
PDB_PRINT 2
SCF_CONVERGENCE 6
THRESH 14
SCF_PRINT 1
$end
$molecule
0 1
S -1.384800 -0.000090 -0.000650
C 0.254740 0.000000 -0.000460
C 1.069650 1.268800 0.000070
C 1.069930 -1.268640 0.000060
H 1.723780 1.290230 0.882300
H 1.730580 1.287500 -0.877070
H 0.440180 2.158930 -0.003450
H 0.440730 -2.158960 -0.002030
H 1.725260 -1.289320 0.881400
H 1.729680 -1.287880 -0.877960
$end
$scan
stre 1 2 1.000000 1.001000 0.100000
$end
--------------------------------------------------------------

    8    -516.1187619766      7.37e-07  Convergence criterion met
 Total energy in the final basis set =     -516.1187619766
    8    -516.1012628011      6.20e-07  Convergence criterion met
 Total energy in the final basis set =     -516.1012628011
    8    -516.0171684350      8.30e-07  Convergence criterion met
 Total energy in the final basis set =     -516.0171684350
    9    -515.9069807260      2.83e-07  Convergence criterion met
 Total energy in the final basis set =     -515.9069807260
    9    -515.6010714429      3.47e-07  Convergence criterion met
 Total energy in the final basis set =     -515.6010714429
    9    -515.4174681333      3.78e-07  Convergence criterion met
 Total energy in the final basis set =     -515.4174681333
    9    -515.2333662941      4.15e-07  Convergence criterion met
 Total energy in the final basis set =     -515.2333662941
    8    -515.1058037550      9.95e-07  Convergence criterion met
    9    -515.0761381228      4.66e-07  Convergence criterion met
 Total energy in the final basis set =     -515.0761381228
    9    -515.0761195039      4.54e-07  Convergence criterion met
 Total energy in the final basis set =     -515.0761195039
    9    -515.0761273152      4.49e-07  Convergence criterion met
 Total energy in the final basis set =     -515.0761273152
    9    -515.0761364893      4.45e-07  Convergence criterion met
 Total energy in the final basis set =     -515.0761364893
    9    -515.0761397919      4.44e-07  Convergence criterion met
 Total energy in the final basis set =     -515.0761397919
    9    -515.0761405828      4.44e-07  Convergence criterion met
 Total energy in the final basis set =     -515.0761405828

             Standard Nuclear Orientation (Angstroms)
    I     Atom           X                Y                Z
 ----------------------------------------------------------------
    1      S      -1.0151239394    -0.0001451238    -0.0015141958
    2      C      -0.0151241666    -0.0000382708    -0.0008401895
    3      C       1.0518217360     1.2543264619     0.0002455839
    4      C       1.0520924023    -1.2541773046     0.0002501963
    5      H       1.6885488955     1.2197631401     0.8890211323
    6      H       1.6944228093     1.2175079998    -0.8841619028
    7      H       0.4795614028     2.1898403586    -0.0026951086
    8      H       0.4800302113    -2.1898159746    -0.0013259709
    9      H       1.6899038921    -1.2187906532     0.8882108297
   10      H       1.6935967567    -1.2179006334    -0.8849803747
 ----------------------------------------------------------------

    9    -515.0761408366      4.44e-07  Convergence criterion met
 Total energy in the final basis set =     -515.0761408366

                    Orbital Energies (a.u.)
 --------------------------------------------------------------

 Alpha MOs
 -- Occupied --
-88.807 -10.246 -10.167 -10.167  -7.959  -5.931  -5.904  -5.896
 -0.935  -0.703  -0.679  -0.495  -0.494  -0.469  -0.412  -0.385
 -0.377  -0.367  -0.357  -0.171

 Beta MOs
 -- Occupied --
-88.807 -10.246 -10.167 -10.167  -7.959  -5.931  -5.904  -5.896
 -0.935  -0.703  -0.679  -0.495  -0.494  -0.469  -0.412  -0.385
 -0.377  -0.367  -0.357  -0.171

          Ground-State Mulliken Net Atomic Charges

     Atom                 Charge (a.u.)    Spin (a.u.)
  --------------------------------------------------------
      1 S                     0.345818      -0.000000
      2 C                    -0.164692       0.000000
      3 C                    -0.397714      -0.000000
      4 C                    -0.397714       0.000000
      5 H                     0.108921       0.000000
      6 H                     0.108879      -0.000000
      7 H                     0.089352      -0.000000
      8 H                     0.089352       0.000000
      9 H                     0.108907      -0.000000
     10 H                     0.108892       0.000000
  --------------------------------------------------------
  Sum of atomic charges =    -0.000000

                    Cartesian Multipole Moments
 -----------------------------------------------------------------
    Charge (ESU x 10^10)
                 0.0000
    Dipole Moment (Debye)
         X       0.5065      Y       0.0001      Z       0.0011
       Tot       0.5065
    Quadrupole Moments (Debye-Ang)
        XX     -33.0639     XY       0.0000     YY     -33.2836
        XZ      -0.0026     YZ       0.0005     ZZ     -29.8117

 Final energy is   -515.076140836590
 **  OPTIMIZATION CONVERGED  **
 Total job time:  51.59s(wall), 516.97s(cpu)
        *  Thank you very much for using Q-Chem.  Have a nice day.  *
