 Q-Chem 5.1, Q-Chem, Inc., Pleasanton, CA (2018)
 Q-Chem 5.1.1 for Intel X86 EM64T Linux

User input:
--------------------------------------------------------------

$comment
potential surface scanner
$end

$rem
JOBTYPE  PES_SCAN
UNRESTRICTED TRUE
SYM_IGNORE  TRUE
GEOM_OPT_MAX_CYCLES 400
SCF_MAX_CYCLES 400
METHOD   B3LYP
BASIS   6-31G**
PDB_PRINT 2
SCF_CONVERGENCE 6
THRESH 14
SCF_PRINT 1
$end
$molecule
0 1
S -2.906605 -0.021739 1.005087
C 0.573693 0.002905 0.084807
C 1.310322 1.256988 0.011934
C 1.248674 -1.250783 -0.221520
H 0.963884 2.004338 0.731883
H 2.410102 1.196279 -0.027481
H 0.960465 1.635758 -0.970679
H 0.590187 -1.990713 -0.686532
H 1.422797 -1.642623 0.801636
H 2.226215 -1.189846 -0.726923
$end
$scan
stre 1 2 3.700000 3.701000 0.100000
$end
--------------------------------------------------------------

   13    -515.8810913474      8.30e-07  Convergence criterion met
 Total energy in the final basis set =     -515.8810913474
   14    -515.8778643116      5.84e-07  Convergence criterion met
 Total energy in the final basis set =     -515.8778643116
   14    -515.8778140130      4.88e-07  Convergence criterion met
 Total energy in the final basis set =     -515.8778140130
   14    -515.8778162406      4.15e-07  Convergence criterion met
 Total energy in the final basis set =     -515.8778162406
   14    -515.8778172697      3.94e-07  Convergence criterion met
 Total energy in the final basis set =     -515.8778172697
   14    -515.8778193465      3.72e-07  Convergence criterion met
 Total energy in the final basis set =     -515.8778193465
   14    -515.8778215212      3.67e-07  Convergence criterion met
 Total energy in the final basis set =     -515.8778215212
   14    -515.8778234055      3.80e-07  Convergence criterion met
 Total energy in the final basis set =     -515.8778234055

             Standard Nuclear Orientation (Angstroms)
    I     Atom           X                Y                Z
 ----------------------------------------------------------------
    1      S      -3.0070777834    -0.0362445196     1.0014539990
    2      C       0.5822323058     0.0060901761     0.1042023789
    3      C       1.3253288573     1.2562171032     0.0163316395
    4      C       1.2528466102    -1.2462280324    -0.2218878563
    5      H       0.9913160991     2.0136431894     0.7313344807
    6      H       2.4244238195     1.1893553781    -0.0348563463
    7      H       0.9688141670     1.6242486846    -0.9682905792
    8      H       0.5850564424    -1.9902755408    -0.6662567984
    9      H       1.4617737884    -1.6342950106     0.7962094068
   10      H       2.2150196938    -1.1819474280    -0.7560283247
 ----------------------------------------------------------------

   14    -515.8778241512      3.98e-07  Convergence criterion met
 Total energy in the final basis set =     -515.8778241512

                    Orbital Energies (a.u.)
 --------------------------------------------------------------

 Alpha MOs
 -- Occupied --
-88.865 -10.280 -10.230 -10.230  -7.921  -5.896  -5.874  -5.874
 -0.840  -0.747  -0.608  -0.572  -0.481  -0.479  -0.459  -0.434
 -0.401  -0.239  -0.206  -0.206

 Beta MOs
 -- Occupied --
-88.865 -10.280 -10.230 -10.230  -7.921  -5.896  -5.874  -5.874
 -0.840  -0.747  -0.608  -0.572  -0.481  -0.479  -0.459  -0.434
 -0.401  -0.239  -0.206  -0.206

          Ground-State Mulliken Net Atomic Charges

     Atom                 Charge (a.u.)    Spin (a.u.)
  --------------------------------------------------------
      1 S                    -0.285518       0.000000
      2 C                     0.097644      -0.000000
      3 C                    -0.393241       0.000000
      4 C                    -0.394115      -0.000000
      5 H                     0.178635       0.000000
      6 H                     0.123439      -0.000000
      7 H                     0.185416      -0.000000
      8 H                     0.180412      -0.000000
      9 H                     0.184778       0.000000
     10 H                     0.122549       0.000000
  --------------------------------------------------------
  Sum of atomic charges =    -0.000000

                    Cartesian Multipole Moments
 -----------------------------------------------------------------
    Charge (ESU x 10^10)
                 0.0000
    Dipole Moment (Debye)
         X       6.5891      Y       0.0478      Z      -1.7379
       Tot       6.8147
    Quadrupole Moments (Debye-Ang)
        XX     -39.6297     XY      -0.1440     YY     -30.6290
        XZ       3.2063     YZ      -0.3845     ZZ     -34.9416

 Final energy is   -515.877824151198
 **  OPTIMIZATION CONVERGED  **
 Total job time:  30.28s(wall), 340.56s(cpu)
        *  Thank you very much for using Q-Chem.  Have a nice day.  *
