 Q-Chem 5.1, Q-Chem, Inc., Pleasanton, CA (2018)
 Q-Chem 5.1.1 for Intel X86 EM64T Linux

User input:
--------------------------------------------------------------

$comment
potential surface scanner
$end

$rem
JOBTYPE  PES_SCAN
UNRESTRICTED TRUE
SYM_IGNORE  TRUE
GEOM_OPT_MAX_CYCLES 400
SCF_MAX_CYCLES 400
METHOD   B3LYP
BASIS   6-31G**
PDB_PRINT 2
SCF_CONVERGENCE 6
THRESH 14
SCF_PRINT 1
$end
$molecule
0 1
S -1.384800 -0.000090 -0.000650
C 0.254740 0.000000 -0.000460
C 1.069650 1.268800 0.000070
C 1.069930 -1.268640 0.000060
H 1.723780 1.290230 0.882300
H 1.730580 1.287500 -0.877070
H 0.440180 2.158930 -0.003450
H 0.440730 -2.158960 -0.002030
H 1.725260 -1.289320 0.881400
H 1.729680 -1.287880 -0.877960
$end
$scan
stre 1 2 0.800000 0.801000 0.100000
$end
--------------------------------------------------------------

    8    -516.1187619766      7.37e-07  Convergence criterion met
 Total energy in the final basis set =     -516.1187619766
    8    -516.1012628011      6.20e-07  Convergence criterion met
 Total energy in the final basis set =     -516.1012628011
    8    -516.0171684350      8.30e-07  Convergence criterion met
 Total energy in the final basis set =     -516.0171684350
    9    -515.9069807260      2.83e-07  Convergence criterion met
 Total energy in the final basis set =     -515.9069807260
    9    -515.6010714429      3.47e-07  Convergence criterion met
 Total energy in the final basis set =     -515.6010714429
    9    -515.3784208363      3.84e-07  Convergence criterion met
 Total energy in the final basis set =     -515.3784208363
    8    -515.1073800452      8.85e-07  Convergence criterion met
 Total energy in the final basis set =     -515.1073800452
    9    -514.7922701405      5.60e-07  Convergence criterion met
   10    -513.2007044421      2.53e-07  Convergence criterion met
 Total energy in the final basis set =     -513.2007044421
   10    -513.2007197220      2.55e-07  Convergence criterion met
 Total energy in the final basis set =     -513.2007197220
   10    -513.2007231032      2.55e-07  Convergence criterion met
 Total energy in the final basis set =     -513.2007231032
   10    -513.2007241097      2.56e-07  Convergence criterion met
 Total energy in the final basis set =     -513.2007241097
   10    -513.2007248478      2.56e-07  Convergence criterion met
 Total energy in the final basis set =     -513.2007248478
   10    -513.2007259665      2.56e-07  Convergence criterion met
 Total energy in the final basis set =     -513.2007259665

             Standard Nuclear Orientation (Angstroms)
    I     Atom           X                Y                Z
 ----------------------------------------------------------------
    1      S      -0.9593601509    -0.0001356519    -0.0038064237
    2      C      -0.1593623472    -0.0000266304    -0.0019128595
    3      C       1.0705366543     1.2686162120     0.0006669642
    4      C       1.0708385368    -1.2684641672     0.0007370476
    5      H       1.6968690175     1.2162155273     0.8943082092
    6      H       1.7007431500     1.2157694701    -0.8902147957
    7      H       0.4904009920     2.2049054656    -0.0008398159
    8      H       0.4908646740    -2.2048539849     0.0003552456
    9      H       1.6980419203    -1.2153788013     0.8937220899
   10      H       1.7001575532    -1.2160774392    -0.8908056616
 ----------------------------------------------------------------

   10    -513.2007266303      2.56e-07  Convergence criterion met
 Total energy in the final basis set =     -513.2007266303

                    Orbital Energies (a.u.)
 --------------------------------------------------------------

 Alpha MOs
 -- Occupied --
-88.931 -10.533 -10.153 -10.153  -8.153  -6.145  -6.063  -6.056
 -0.903  -0.682  -0.676  -0.607  -0.572  -0.453  -0.397  -0.388
 -0.366  -0.355  -0.296  -0.148

 Beta MOs
 -- Occupied --
-88.931 -10.533 -10.153 -10.153  -8.153  -6.145  -6.063  -6.056
 -0.903  -0.682  -0.676  -0.607  -0.572  -0.453  -0.397  -0.388
 -0.366  -0.355  -0.296  -0.148

          Ground-State Mulliken Net Atomic Charges

     Atom                 Charge (a.u.)    Spin (a.u.)
  --------------------------------------------------------
      1 S                     0.883238      -0.000000
      2 C                    -0.528871       0.000000
      3 C                    -0.444618       0.000000
      4 C                    -0.444646      -0.000000
      5 H                     0.101904      -0.000000
      6 H                     0.101900      -0.000000
      7 H                     0.063651      -0.000000
      8 H                     0.063649       0.000000
      9 H                     0.101901      -0.000000
     10 H                     0.101892       0.000000
  --------------------------------------------------------
  Sum of atomic charges =    -0.000000

                    Cartesian Multipole Moments
 -----------------------------------------------------------------
    Charge (ESU x 10^10)
                -0.0000
    Dipole Moment (Debye)
         X      -0.4896      Y       0.0001      Z      -0.0013
       Tot       0.4896
    Quadrupole Moments (Debye-Ang)
        XX     -34.0294     XY       0.0003     YY     -33.9950
        XZ      -0.0106     YZ       0.0006     ZZ     -29.0022

 Final energy is   -513.200726630339
 **  OPTIMIZATION CONVERGED  **
 Total job time:  64.68s(wall), 750.56s(cpu)
        *  Thank you very much for using Q-Chem.  Have a nice day.  *
