 Q-Chem 5.1, Q-Chem, Inc., Pleasanton, CA (2018)
 Q-Chem 5.1.1 for Intel X86 EM64T Linux

User input:
--------------------------------------------------------------

$comment
potential surface scanner
$end

$rem
JOBTYPE  PES_SCAN
UNRESTRICTED TRUE
SYM_IGNORE  TRUE
GEOM_OPT_MAX_CYCLES 400
SCF_MAX_CYCLES 400
METHOD   B3LYP
BASIS   6-31G**
PDB_PRINT 2
SCF_CONVERGENCE 6
THRESH 14
SCF_PRINT 1
$end
$molecule
0 1
S -2.715295 -0.000251 -0.002713
C 0.484704 -0.000001 -0.000340
C 1.206425 1.272495 -0.000046
C 1.206718 -1.272330 0.000124
H 1.873333 1.314901 0.878936
H 1.882041 1.313560 -0.872353
H 0.552661 2.145354 -0.003366
H 0.553152 -2.145345 -0.000871
H 1.876322 -1.313892 0.877072
H 1.879674 -1.313926 -0.874233
$end
$scan
stre 1 2 3.300000 3.301000 0.100000
$end
--------------------------------------------------------------

   14    -515.8949825545      2.92e-07  Convergence criterion met
 Total energy in the final basis set =     -515.8949825545
   14    -515.8891115410      4.73e-07  Convergence criterion met
 Total energy in the final basis set =     -515.8891115410
   13    -515.8890194243      7.82e-07  Convergence criterion met
 Total energy in the final basis set =     -515.8890194243

             Standard Nuclear Orientation (Angstroms)
    I     Atom           X                Y                Z
 ----------------------------------------------------------------
    1      S      -2.8142665930    -0.0002704382    -0.0020255659
    2      C       0.4857325418     0.0000032163     0.0000511585
    3      C       1.2166482706     1.2686749906    -0.0003114109
    4      C       1.2169342493    -1.2685062734    -0.0001335297
    5      H       1.8830842322     1.3071025312     0.8791925093
    6      H       1.8938369339     1.3052081834    -0.8715588840
    7      H       0.5698746394     2.1469593313    -0.0043629188
    8      H       0.5703534942    -2.1469426159    -0.0011578283
    9      H       1.8869695698    -1.3059176670     0.8766475633
   10      H       1.8905676619    -1.3057462584    -0.8741310934
 ----------------------------------------------------------------

   13    -515.8890240892      8.51e-07  Convergence criterion met
 Total energy in the final basis set =     -515.8890240892

                    Orbital Energies (a.u.)
 --------------------------------------------------------------

 Alpha MOs
 -- Occupied --
-88.854 -10.299 -10.235 -10.235  -7.908  -5.882  -5.863  -5.862
 -0.845  -0.750  -0.597  -0.580  -0.486  -0.481  -0.465  -0.439
 -0.415  -0.246  -0.196  -0.196

 Beta MOs
 -- Occupied --
-88.854 -10.299 -10.235 -10.235  -7.908  -5.882  -5.863  -5.862
 -0.845  -0.750  -0.597  -0.580  -0.486  -0.481  -0.465  -0.439
 -0.415  -0.246  -0.196  -0.196

          Ground-State Mulliken Net Atomic Charges

     Atom                 Charge (a.u.)    Spin (a.u.)
  --------------------------------------------------------
      1 S                    -0.338982      -0.000000
      2 C                     0.129792       0.000000
      3 C                    -0.393148      -0.000000
      4 C                    -0.393151       0.000000
      5 H                     0.157774      -0.000000
      6 H                     0.157048       0.000000
      7 H                     0.182923       0.000000
      8 H                     0.182921      -0.000000
      9 H                     0.157566      -0.000000
     10 H                     0.157257       0.000000
  --------------------------------------------------------
  Sum of atomic charges =     0.000000

                    Cartesian Multipole Moments
 -----------------------------------------------------------------
    Charge (ESU x 10^10)
                -0.0000
    Dipole Moment (Debye)
         X       7.5794      Y       0.0007      Z       0.0075
       Tot       7.5794
    Quadrupole Moments (Debye-Ang)
        XX     -38.4976     XY      -0.0010     YY     -31.2448
        XZ       0.0139     YZ       0.0033     ZZ     -33.8146

 Final energy is   -515.889024089206
 **  OPTIMIZATION CONVERGED  **
 Total job time:  13.54s(wall), 152.57s(cpu)
        *  Thank you very much for using Q-Chem.  Have a nice day.  *
