 Q-Chem 5.1, Q-Chem, Inc., Pleasanton, CA (2018)
 Q-Chem 5.1.1 for Intel X86 EM64T Linux

User input:
--------------------------------------------------------------

$comment
potential surface scanner
$end

$rem
JOBTYPE  PES_SCAN
UNRESTRICTED TRUE
SYM_IGNORE  TRUE
GEOM_OPT_MAX_CYCLES 400
SCF_MAX_CYCLES 400
METHOD   B3LYP
BASIS   6-31G**
PDB_PRINT 2
SCF_CONVERGENCE 6
THRESH 14
SCF_PRINT 1
$end
$molecule
0 1
S -2.211235 -0.000245 -0.003744
C 0.488763 0.000010 -0.000471
C 1.157705 1.297597 0.000409
C 1.157988 -1.297431 0.000521
H 1.819714 1.371072 0.880707
H 1.824706 1.370325 -0.876149
H 0.458299 2.132951 -0.001749
H 0.458767 -2.132943 -0.000553
H 1.821070 -1.370362 0.880049
H 1.823955 -1.370408 -0.876811
$end
$scan
stre 1 2 2.800000 2.801000 0.100000
$end
--------------------------------------------------------------

   12    -515.9434945302      7.57e-08  Convergence criterion met
 Total energy in the final basis set =     -515.9434945302
   11    -515.9312269976      8.93e-07  Convergence criterion met
 Total energy in the final basis set =     -515.9312269976
   11    -515.9309439189      9.08e-07  Convergence criterion met
 Total energy in the final basis set =     -515.9309439189

             Standard Nuclear Orientation (Angstroms)
    I     Atom           X                Y                Z
 ----------------------------------------------------------------
    1      S      -2.3096933505    -0.0002507239    -0.0037942465
    2      C       0.4903046786     0.0000089818    -0.0004823848
    3      C       1.1669576024     1.2932256095     0.0003890317
    4      C       1.1672414642    -1.2930588658     0.0005106344
    5      H       1.8305237386     1.3612037474     0.8802202100
    6      H       1.8357281014     1.3604693308    -0.8755222666
    7      H       0.4756715331     2.1355885332    -0.0018061681
    8      H       0.4761423116    -2.1355784601    -0.0005129571
    9      H       1.8319992762    -1.3604749836     0.8794769243
   10      H       1.8348566442    -1.3605671693    -0.8762697774
 ----------------------------------------------------------------

   12    -515.9309478610      1.46e-07  Convergence criterion met
 Total energy in the final basis set =     -515.9309478610

                    Orbital Energies (a.u.)
 --------------------------------------------------------------

 Alpha MOs
 -- Occupied --
-88.852 -10.310 -10.235 -10.235  -7.906  -5.876  -5.864  -5.860
 -0.842  -0.751  -0.599  -0.575  -0.483  -0.479  -0.466  -0.438
 -0.418  -0.260  -0.200  -0.195

 Beta MOs
 -- Occupied --
-88.852 -10.310 -10.235 -10.235  -7.906  -5.876  -5.864  -5.860
 -0.842  -0.751  -0.599  -0.575  -0.483  -0.479  -0.466  -0.438
 -0.418  -0.260  -0.200  -0.195

          Ground-State Mulliken Net Atomic Charges

     Atom                 Charge (a.u.)    Spin (a.u.)
  --------------------------------------------------------
      1 S                    -0.366144       0.000000
      2 C                     0.120716      -0.000000
      3 C                    -0.382898       0.000000
      4 C                    -0.382900      -0.000000
      5 H                     0.157001      -0.000000
      6 H                     0.156840      -0.000000
      7 H                     0.191771       0.000000
      8 H                     0.191770      -0.000000
      9 H                     0.156939      -0.000000
     10 H                     0.156904       0.000000
  --------------------------------------------------------
  Sum of atomic charges =     0.000000

                    Cartesian Multipole Moments
 -----------------------------------------------------------------
    Charge (ESU x 10^10)
                 0.0000
    Dipole Moment (Debye)
         X       6.8346      Y       0.0007      Z       0.0094
       Tot       6.8346
    Quadrupole Moments (Debye-Ang)
        XX     -36.3329     XY      -0.0008     YY     -30.7392
        XZ      -0.0077     YZ       0.0009     ZZ     -33.5910

 Final energy is   -515.930947860980
 **  OPTIMIZATION CONVERGED  **
 Total job time:  12.27s(wall), 138.32s(cpu)
        *  Thank you very much for using Q-Chem.  Have a nice day.  *
