 Q-Chem 5.1, Q-Chem, Inc., Pleasanton, CA (2018)
 Q-Chem 5.1.1 for Intel X86 EM64T Linux

User input:
--------------------------------------------------------------

$comment
potential surface scanner
$end

$rem
JOBTYPE  PES_SCAN
UNRESTRICTED TRUE
SYM_IGNORE  TRUE
GEOM_OPT_MAX_CYCLES 400
SCF_MAX_CYCLES 400
METHOD   B3LYP
BASIS   6-31G**
PDB_PRINT 2
SCF_CONVERGENCE 6
THRESH 14
SCF_PRINT 1
$end
$molecule
0 1
S -1.384800 -0.000090 -0.000650
C 0.254740 0.000000 -0.000460
C 1.069650 1.268800 0.000070
C 1.069930 -1.268640 0.000060
H 1.723780 1.290230 0.882300
H 1.730580 1.287500 -0.877070
H 0.440180 2.158930 -0.003450
H 0.440730 -2.158960 -0.002030
H 1.725260 -1.289320 0.881400
H 1.729680 -1.287880 -0.877960
$end
$scan
stre 1 2 1.600000 1.601000 0.100000
$end
--------------------------------------------------------------

    8    -516.1187619766      7.37e-07  Convergence criterion met
 Total energy in the final basis set =     -516.1187619766
    8    -516.1176580336      6.98e-07  Convergence criterion met
 Total energy in the final basis set =     -516.1176580336
    8    -516.1176813042      7.09e-07  Convergence criterion met
 Total energy in the final basis set =     -516.1176813042

             Standard Nuclear Orientation (Angstroms)
    I     Atom           X                Y                Z
 ----------------------------------------------------------------
    1      S      -1.3534060060    -0.0001792970    -0.0010174507
    2      C       0.2465939315    -0.0000105117    -0.0005392812
    3      C       1.0667514356     1.2682540539     0.0001384957
    4      C       1.0670217777    -1.2681001204     0.0001465111
    5      H       1.7218891963     1.2932642879     0.8809041667
    6      H       1.7283395920     1.2907911251    -0.8758117782
    7      H       0.4356484429     2.1567251313    -0.0031909201
    8      H       0.4361062581    -2.1567093900    -0.0018149241
    9      H       1.7233258666    -1.2923575697     0.8800597118
   10      H       1.7274595052    -1.2911077095    -0.8766645310
 ----------------------------------------------------------------

    8    -516.1176831722      7.11e-07  Convergence criterion met
 Total energy in the final basis set =     -516.1176831722

                    Orbital Energies (a.u.)
 --------------------------------------------------------------

 Alpha MOs
 -- Occupied --
-88.853 -10.262 -10.198 -10.198  -7.917  -5.880  -5.880  -5.871
 -0.837  -0.710  -0.709  -0.525  -0.453  -0.443  -0.442  -0.403
 -0.374  -0.358  -0.289  -0.216

 Beta MOs
 -- Occupied --
-88.853 -10.262 -10.198 -10.198  -7.917  -5.880  -5.880  -5.871
 -0.837  -0.710  -0.709  -0.525  -0.453  -0.443  -0.442  -0.403
 -0.374  -0.358  -0.289  -0.216

          Ground-State Mulliken Net Atomic Charges

     Atom                 Charge (a.u.)    Spin (a.u.)
  --------------------------------------------------------
      1 S                    -0.129005       0.000000
      2 C                    -0.004440      -0.000000
      3 C                    -0.335095      -0.000000
      4 C                    -0.335096      -0.000000
      5 H                     0.129617       0.000000
      6 H                     0.129408       0.000000
      7 H                     0.142793       0.000000
      8 H                     0.142792       0.000000
      9 H                     0.129571       0.000000
     10 H                     0.129454      -0.000000
  --------------------------------------------------------
  Sum of atomic charges =    -0.000000

                    Cartesian Multipole Moments
 -----------------------------------------------------------------
    Charge (ESU x 10^10)
                -0.0000
    Dipole Moment (Debye)
         X       2.9164      Y       0.0003      Z       0.0029
       Tot       2.9164
    Quadrupole Moments (Debye-Ang)
        XX     -33.0854     XY      -0.0002     YY     -32.0897
        XZ       0.0005     YZ       0.0005     ZZ     -32.0386

 Final energy is   -516.117683172206
 **  OPTIMIZATION CONVERGED  **
 Total job time:  10.21s(wall), 114.98s(cpu)
        *  Thank you very much for using Q-Chem.  Have a nice day.  *
