 Q-Chem 5.1, Q-Chem, Inc., Pleasanton, CA (2018)
 Q-Chem 5.1.1 for Intel X86 EM64T Linux

User input:
--------------------------------------------------------------

$comment
potential surface scanner
$end

$rem
JOBTYPE  PES_SCAN
UNRESTRICTED TRUE
SYM_IGNORE  TRUE
GEOM_OPT_MAX_CYCLES 400
SCF_MAX_CYCLES 400
METHOD   B3LYP
BASIS   6-31G**
PDB_PRINT 2
SCF_CONVERGENCE 6
THRESH 14
SCF_PRINT 1
$end
$molecule
0 1
S -1.941597 -0.000235 -0.003325
C 0.458401 0.000011 -0.000486
C 1.130459 1.301502 0.000395
C 1.130737 -1.301336 0.000484
H 1.789726 1.377370 0.881176
H 1.794636 1.376462 -0.876743
H 0.425978 2.131748 -0.001835
H 0.426436 -2.131739 -0.000734
H 1.790949 -1.376664 0.880599
H 1.794007 -1.376551 -0.877324
$end
$scan
stre 1 2 2.500000 2.501000 0.100000
$end
--------------------------------------------------------------

   12    -515.9903496605      1.91e-07  Convergence criterion met
 Total energy in the final basis set =     -515.9903496605
   12    -515.9737746205      4.45e-08  Convergence criterion met
 Total energy in the final basis set =     -515.9737746205
   12    -515.9732688417      4.38e-08  Convergence criterion met
 Total energy in the final basis set =     -515.9732688417

             Standard Nuclear Orientation (Angstroms)
    I     Atom           X                Y                Z
 ----------------------------------------------------------------
    1      S      -2.0276799661    -0.0002398106    -0.0035118679
    2      C       0.4723181615     0.0000114941    -0.0004624317
    3      C       1.1394659491     1.3015376383     0.0004113605
    4      C       1.1397455586    -1.3013715956     0.0005071828
    5      H       1.7993368829     1.3786148021     0.8811678874
    6      H       1.8042000888     1.3777687497    -0.8767316507
    7      H       0.4338752451     2.1311108354    -0.0017727331
    8      H       0.4343353837    -2.1311015288    -0.0006594557
    9      H       1.8005818264    -1.3779126907     0.8805807753
   10      H       1.8035528702    -1.3778498938    -0.8773220670
 ----------------------------------------------------------------

   12    -515.9732701320      4.36e-08  Convergence criterion met
 Total energy in the final basis set =     -515.9732701320

                    Orbital Energies (a.u.)
 --------------------------------------------------------------

 Alpha MOs
 -- Occupied --
-88.854 -10.310 -10.230 -10.229  -7.908  -5.877  -5.868  -5.863
 -0.836  -0.746  -0.610  -0.568  -0.477  -0.473  -0.461  -0.433
 -0.413  -0.277  -0.210  -0.199

 Beta MOs
 -- Occupied --
-88.854 -10.310 -10.230 -10.229  -7.908  -5.877  -5.868  -5.863
 -0.836  -0.746  -0.610  -0.568  -0.477  -0.473  -0.461  -0.433
 -0.413  -0.277  -0.210  -0.199

          Ground-State Mulliken Net Atomic Charges

     Atom                 Charge (a.u.)    Spin (a.u.)
  --------------------------------------------------------
      1 S                    -0.336873       0.000000
      2 C                     0.086235      -0.000000
      3 C                    -0.369202       0.000000
      4 C                    -0.369203       0.000000
      5 H                     0.153078      -0.000000
      6 H                     0.152949      -0.000000
      7 H                     0.188494      -0.000000
      8 H                     0.188493      -0.000000
      9 H                     0.153031      -0.000000
     10 H                     0.152997      -0.000000
  --------------------------------------------------------
  Sum of atomic charges =    -0.000000

                    Cartesian Multipole Moments
 -----------------------------------------------------------------
    Charge (ESU x 10^10)
                -0.0000
    Dipole Moment (Debye)
         X       6.0010      Y       0.0006      Z       0.0084
       Tot       6.0010
    Quadrupole Moments (Debye-Ang)
        XX     -35.1139     XY      -0.0007     YY     -30.7753
        XZ      -0.0064     YZ       0.0006     ZZ     -33.4028

 Final energy is   -515.973270131996
 **  OPTIMIZATION CONVERGED  **
 Total job time:  12.97s(wall), 145.03s(cpu)
        *  Thank you very much for using Q-Chem.  Have a nice day.  *
