 Q-Chem 5.1, Q-Chem, Inc., Pleasanton, CA (2018)
 Q-Chem 5.1.1 for Intel X86 EM64T Linux

User input:
--------------------------------------------------------------

$comment
potential surface scanner
$end

$rem
JOBTYPE  PES_SCAN
UNRESTRICTED TRUE
SYM_IGNORE  TRUE
GEOM_OPT_MAX_CYCLES 400
SCF_MAX_CYCLES 400
METHOD   B3LYP
BASIS   6-31G**
PDB_PRINT 2
SCF_CONVERGENCE 6
THRESH 14
SCF_PRINT 1
$end
$molecule
0 1
S 2.126400 0.172600 -0.001000
C -0.602600 0.507000 0.001200
C 0.472000 -0.574500 0.001000
C -1.995800 -0.105100 -0.001200
H -0.500600 1.146800 0.886100
H -0.499900 1.148900 -0.882200
H 0.380400 -1.208800 0.888400
H 0.378500 -1.212800 -0.883500
H -2.152000 -0.728200 0.885200
H -2.755700 0.682700 -0.000800
H -2.150200 -0.725500 -0.889800
H 2.012100 0.800700 -1.180400
$end
$scan
stre 1 3 1.400000 1.401000 0.100000
$end
--------------------------------------------------------------

    9    -517.3385956811      3.60e-07  Convergence criterion met
 Total energy in the final basis set =     -517.3385956811
    9    -517.3254999689      3.81e-07  Convergence criterion met
 Total energy in the final basis set =     -517.3254999689
    9    -517.2819204334      3.99e-07  Convergence criterion met
 Total energy in the final basis set =     -517.2819204334
    8    -517.2111113571      8.57e-07  Convergence criterion met
 Total energy in the final basis set =     -517.2111113571
    8    -517.2059873015      8.82e-07  Convergence criterion met
 Total energy in the final basis set =     -517.2059873015
    8    -517.2066213956      9.54e-07  Convergence criterion met
 Total energy in the final basis set =     -517.2066213956
    8    -517.2066819249      9.63e-07  Convergence criterion met
 Total energy in the final basis set =     -517.2066819249
    8    -517.2067182115      9.70e-07  Convergence criterion met
 Total energy in the final basis set =     -517.2067182115
    8    -517.2067214018      9.71e-07  Convergence criterion met
 Total energy in the final basis set =     -517.2067214018
    8    -517.2067244544      9.73e-07  Convergence criterion met
 Total energy in the final basis set =     -517.2067244544
    8    -517.2067255335      9.73e-07  Convergence criterion met
 Total energy in the final basis set =     -517.2067255335
    8    -517.2067267829      9.72e-07  Convergence criterion met
 Total energy in the final basis set =     -517.2067267829

             Standard Nuclear Orientation (Angstroms)
    I     Atom           X                Y                Z
 ----------------------------------------------------------------
    1      S       1.9158114600    -0.0135487299     0.0203324544
    2      C      -0.6068736154     0.5515348093    -0.0084676347
    3      C       0.5927782005    -0.4660839316    -0.0489130635
    4      C      -1.9775301996    -0.1227436577     0.0035481503
    5      H      -0.4757612296     1.1954747757     0.8699248284
    6      H      -0.5110717551     1.2030246989    -0.8883133505
    7      H       0.4107902092    -1.1133358338     0.8274813324
    8      H       0.3120592566    -1.1684504931    -0.8696843744
    9      H      -2.0998515732    -0.7597142900     0.8873711661
   10      H      -2.7862932208     0.6144610837     0.0144598750
   11      H      -2.1182883735    -0.7548642766    -0.8805764769
   12      H       2.0568308410     0.7380458451    -1.1041629068
 ----------------------------------------------------------------

    8    -517.2067275614      9.71e-07  Convergence criterion met
 Total energy in the final basis set =     -517.2067275614

                    Orbital Energies (a.u.)
 --------------------------------------------------------------

 Alpha MOs
 -- Occupied --
-88.852 -10.196 -10.187 -10.180  -7.929  -5.894  -5.889  -5.883
 -0.891  -0.758  -0.634  -0.594  -0.502  -0.455  -0.431  -0.416
 -0.382  -0.355  -0.343  -0.298  -0.213

 Beta MOs
 -- Occupied --
-88.852 -10.196 -10.187 -10.180  -7.929  -5.894  -5.889  -5.883
 -0.891  -0.758  -0.634  -0.594  -0.502  -0.455  -0.431  -0.416
 -0.382  -0.355  -0.343  -0.298  -0.213

          Ground-State Mulliken Net Atomic Charges

     Atom                 Charge (a.u.)    Spin (a.u.)
  --------------------------------------------------------
      1 S                    -0.013828       0.000000
      2 C                    -0.186315       0.000000
      3 C                    -0.280884       0.000000
      4 C                    -0.324358      -0.000000
      5 H                     0.107918       0.000000
      6 H                     0.094381      -0.000000
      7 H                     0.146880      -0.000000
      8 H                     0.105890      -0.000000
      9 H                     0.104258       0.000000
     10 H                     0.108940      -0.000000
     11 H                     0.105987       0.000000
     12 H                     0.031132       0.000000
  --------------------------------------------------------
  Sum of atomic charges =    -0.000000

                    Cartesian Multipole Moments
 -----------------------------------------------------------------
    Charge (ESU x 10^10)
                -0.0000
    Dipole Moment (Debye)
         X      -1.4614      Y      -0.1057      Z      -0.5793
       Tot       1.5756
    Quadrupole Moments (Debye-Ang)
        XX     -38.0471     XY       0.7292     YY     -33.8707
        XZ      -1.7588     YZ      -1.5050     ZZ     -32.8378

 Final energy is   -517.206727561427
 **  OPTIMIZATION CONVERGED  **
 Total job time:  36.47s(wall), 425.97s(cpu)
        *  Thank you very much for using Q-Chem.  Have a nice day.  *
