 Q-Chem 5.1, Q-Chem, Inc., Pleasanton, CA (2018)
 Q-Chem 5.1.1 for Intel X86 EM64T Linux

User input:
--------------------------------------------------------------

$comment
potential surface scanner
$end

$rem
JOBTYPE  PES_SCAN
UNRESTRICTED TRUE
SYM_IGNORE  TRUE
GEOM_OPT_MAX_CYCLES 400
SCF_MAX_CYCLES 400
METHOD   B3LYP
BASIS   6-31G**
PDB_PRINT 2
SCF_CONVERGENCE 6
THRESH 14
SCF_PRINT 1
$end
$molecule
0 1
S 2.126400 0.172600 -0.001000
C -0.602600 0.507000 0.001200
C 0.472000 -0.574500 0.001000
C -1.995800 -0.105100 -0.001200
H -0.500600 1.146800 0.886100
H -0.499900 1.148900 -0.882200
H 0.380400 -1.208800 0.888400
H 0.378500 -1.212800 -0.883500
H -2.152000 -0.728200 0.885200
H -2.755700 0.682700 -0.000800
H -2.150200 -0.725500 -0.889800
H 2.012100 0.800700 -1.180400
$end
$scan
stre 1 3 1.600000 1.601000 0.100000
$end
--------------------------------------------------------------

    9    -517.3385956811      3.60e-07  Convergence criterion met
 Total energy in the final basis set =     -517.3385956811
    9    -517.3254999689      3.81e-07  Convergence criterion met
 Total energy in the final basis set =     -517.3254999689
    9    -517.3118776809      4.07e-07  Convergence criterion met
 Total energy in the final basis set =     -517.3118776809
    9    -517.3127315211      4.27e-07  Convergence criterion met
 Total energy in the final basis set =     -517.3127315211
    9    -517.3133453760      4.55e-07  Convergence criterion met
 Total energy in the final basis set =     -517.3133453760
    9    -517.3133987388      4.59e-07  Convergence criterion met
 Total energy in the final basis set =     -517.3133987388
    9    -517.3134328460      4.61e-07  Convergence criterion met
 Total energy in the final basis set =     -517.3134328460
    9    -517.3134357207      4.61e-07  Convergence criterion met
 Total energy in the final basis set =     -517.3134357207
    9    -517.3134388739      4.60e-07  Convergence criterion met
 Total energy in the final basis set =     -517.3134388739
    9    -517.3134406065      4.60e-07  Convergence criterion met
 Total energy in the final basis set =     -517.3134406065
    9    -517.3134423870      4.60e-07  Convergence criterion met
 Total energy in the final basis set =     -517.3134423870
    9    -517.3134436721      4.60e-07  Convergence criterion met
 Total energy in the final basis set =     -517.3134436721

             Standard Nuclear Orientation (Angstroms)
    I     Atom           X                Y                Z
 ----------------------------------------------------------------
    1      S       2.0380662405     0.0451382623     0.0181352266
    2      C      -0.6134781083     0.5325290443    -0.0114892243
    3      C       0.5363474119    -0.5040015701    -0.0391887163
    4      C      -1.9992185009    -0.1164048677     0.0056819417
    5      H      -0.4799877371     1.1802477490     0.8630749606
    6      H      -0.5156619993     1.1814054065    -0.8924942207
    7      H       0.4111357043    -1.1453553669     0.8457987042
    8      H       0.3408817984    -1.1882451272    -0.8809737381
    9      H      -2.1308703464    -0.7471822986     0.8923193638
   10      H      -2.7920971218     0.6378553245     0.0152536416
   11      H      -2.1538597919    -0.7493736058    -0.8755437230
   12      H       2.0713424507     0.7771870496    -1.1175742161
 ----------------------------------------------------------------

    9    -517.3134445312      4.61e-07  Convergence criterion met
 Total energy in the final basis set =     -517.3134445312

                    Orbital Energies (a.u.)
 --------------------------------------------------------------

 Alpha MOs
 -- Occupied --
-88.865 -10.205 -10.189 -10.180  -7.932  -5.897  -5.893  -5.886
 -0.842  -0.753  -0.641  -0.592  -0.486  -0.447  -0.418  -0.409
 -0.376  -0.351  -0.341  -0.314  -0.227

 Beta MOs
 -- Occupied --
-88.865 -10.205 -10.189 -10.180  -7.932  -5.897  -5.893  -5.886
 -0.842  -0.753  -0.641  -0.592  -0.486  -0.447  -0.418  -0.409
 -0.376  -0.351  -0.341  -0.314  -0.227

          Ground-State Mulliken Net Atomic Charges

     Atom                 Charge (a.u.)    Spin (a.u.)
  --------------------------------------------------------
      1 S                    -0.015956       0.000000
      2 C                    -0.173953       0.000000
      3 C                    -0.323669       0.000000
      4 C                    -0.322823      -0.000000
      5 H                     0.111617       0.000000
      6 H                     0.095132      -0.000000
      7 H                     0.138811      -0.000000
      8 H                     0.123868      -0.000000
      9 H                     0.105676       0.000000
     10 H                     0.108508      -0.000000
     11 H                     0.105124       0.000000
     12 H                     0.047666      -0.000000
  --------------------------------------------------------
  Sum of atomic charges =    -0.000000

                    Cartesian Multipole Moments
 -----------------------------------------------------------------
    Charge (ESU x 10^10)
                -0.0000
    Dipole Moment (Debye)
         X      -1.5023      Y      -0.0261      Z      -0.6974
       Tot       1.6565
    Quadrupole Moments (Debye-Ang)
        XX     -38.2046     XY       0.8668     YY     -33.9950
        XZ      -1.8075     YZ      -1.5560     ZZ     -32.8650

 Final energy is   -517.313444531218
 **  OPTIMIZATION CONVERGED  **
 Total job time:  37.57s(wall), 440.31s(cpu)
        *  Thank you very much for using Q-Chem.  Have a nice day.  *
