 Q-Chem 5.1, Q-Chem, Inc., Pleasanton, CA (2018)
 Q-Chem 5.1.1 for Intel X86 EM64T Linux

User input:
--------------------------------------------------------------

$comment
potential surface scanner
$end

$rem
JOBTYPE  PES_SCAN
UNRESTRICTED TRUE
SYM_IGNORE  TRUE
GEOM_OPT_MAX_CYCLES 400
SCF_MAX_CYCLES 400
METHOD   B3LYP
BASIS   6-31G**
PDB_PRINT 2
SCF_CONVERGENCE 6
THRESH 14
SCF_PRINT 1
$end
$molecule
0 3
S 3.297947 1.007538 -0.365700
C -0.748710 0.412287 -0.040124
C 0.238805 -0.688870 -0.248025
C -2.201123 -0.106488 0.089570
H -0.497064 0.975984 0.866995
H -0.702041 1.121731 -0.875409
H 0.549047 -1.304354 0.592944
H 0.371658 -1.122169 -1.236260
H -2.298983 -0.794515 0.935164
H -2.893835 0.726845 0.247777
H -2.511226 -0.639507 -0.814611
H 2.108133 0.315319 -0.329315
$end
$scan
stre 1 3 3.400000 3.401000 0.100000
$end
--------------------------------------------------------------

   10    -517.2285359889      5.31e-07  Convergence criterion met
 Total energy in the final basis set =     -517.2285359889
   10    -517.2273273380      5.89e-07  Convergence criterion met
 Total energy in the final basis set =     -517.2273273380
   10    -517.2281525834      5.46e-07  Convergence criterion met
 Total energy in the final basis set =     -517.2281525834
   10    -517.2284740692      4.60e-07  Convergence criterion met
 Total energy in the final basis set =     -517.2284740692
   10    -517.2284906808      4.35e-07  Convergence criterion met
 Total energy in the final basis set =     -517.2284906808
   10    -517.2284932623      4.30e-07  Convergence criterion met
 Total energy in the final basis set =     -517.2284932623
   10    -517.2284955391      4.32e-07  Convergence criterion met
 Total energy in the final basis set =     -517.2284955391

             Standard Nuclear Orientation (Angstroms)
    I     Atom           X                Y                Z
 ----------------------------------------------------------------
    1      S       3.2251808938     0.9847893902    -0.3641498266
    2      C      -0.7343680959     0.4222071990    -0.0386565369
    3      C       0.2595564152    -0.6739179088    -0.2468399030
    4      C      -2.1832396771    -0.1066565465     0.0864071136
    5      H      -0.4873706528     0.9853183062     0.8699274346
    6      H      -0.6895761234     1.1334376936    -0.8724515917
    7      H       0.5608179289    -1.2946028892     0.5940007806
    8      H       0.3786818354    -1.1163458661    -1.2331587948
    9      H      -2.2789387650    -0.7966691107     0.9306363279
   10      H      -2.8815556473     0.7219902083     0.2443250037
   11      H      -2.4878901927    -0.6399219094    -0.8194975365
   12      H       2.0313100811     0.2841724335    -0.3275364710
 ----------------------------------------------------------------

   10    -517.2284964766      4.37e-07  Convergence criterion met
 Total energy in the final basis set =     -517.2284964766

                    Orbital Energies (a.u.)
 --------------------------------------------------------------

 Alpha MOs
 -- Occupied --
-88.891 -10.210 -10.199 -10.188  -7.953  -5.924  -5.914  -5.905
 -0.795  -0.720  -0.687  -0.595  -0.477  -0.442  -0.408  -0.406
 -0.383  -0.361  -0.345  -0.305  -0.257  -0.221

 Beta MOs
 -- Occupied --
-88.885 -10.199 -10.197 -10.187  -7.946  -5.909  -5.906  -5.901
 -0.784  -0.680  -0.665  -0.583  -0.472  -0.434  -0.401  -0.389
 -0.370  -0.356  -0.343  -0.242

          Ground-State Mulliken Net Atomic Charges

     Atom                 Charge (a.u.)    Spin (a.u.)
  --------------------------------------------------------
      1 S                    -0.096065       1.122496
      2 C                    -0.184503      -0.063144
      3 C                    -0.249299       0.970252
      4 C                    -0.312541       0.048796
      5 H                     0.114385       0.011827
      6 H                     0.113503       0.010096
      7 H                     0.123518      -0.038153
      8 H                     0.123918      -0.038163
      9 H                     0.109812      -0.000999
     10 H                     0.110262       0.013771
     11 H                     0.109954      -0.000876
     12 H                     0.037056      -0.035903
  --------------------------------------------------------
  Sum of atomic charges =     0.000000

                    Cartesian Multipole Moments
 -----------------------------------------------------------------
    Charge (ESU x 10^10)
                 0.0000
    Dipole Moment (Debye)
         X      -2.2345      Y      -0.8781      Z       0.1263
       Tot       2.4041
    Quadrupole Moments (Debye-Ang)
        XX     -42.3206     XY      -2.3655     YY     -36.2712
        XZ       1.0581     YZ      -0.0534     ZZ     -32.8044

 Final energy is   -517.228496476558
 **  OPTIMIZATION CONVERGED  **
 Total job time:  25.63s(wall), 293.57s(cpu)
        *  Thank you very much for using Q-Chem.  Have a nice day.  *
