 Q-Chem 5.1, Q-Chem, Inc., Pleasanton, CA (2018)
 Q-Chem 5.1.1 for Intel X86 EM64T Linux

User input:
--------------------------------------------------------------

$comment
potential surface scanner
$end

$rem
JOBTYPE  PES_SCAN
UNRESTRICTED TRUE
SYM_IGNORE  TRUE
GEOM_OPT_MAX_CYCLES 400
SCF_MAX_CYCLES 400
METHOD   B3LYP
BASIS   6-31G**
PDB_PRINT 2
SCF_CONVERGENCE 6
THRESH 14
SCF_PRINT 1
$end
$molecule
0 1
S 2.663778 0.359764 -0.013124
C -0.701738 0.453376 -0.002612
C 0.277252 -0.671973 -0.010001
C -2.146218 -0.103730 0.022711
H -0.535817 1.087430 0.872580
H -0.569987 1.077665 -0.891347
H 0.422431 -1.235209 0.906733
H 0.402782 -1.251298 -0.919642
H -2.322833 -0.715707 0.912677
H -2.862454 0.723609 0.034222
H -2.354219 -0.718336 -0.858752
H 2.439624 0.898208 -1.230443
$end
$scan
stre 1 3 2.700000 2.701000 0.100000
$end
--------------------------------------------------------------

    9    -517.2814798940      6.96e-07  Convergence criterion met
 Total energy in the final basis set =     -517.2814798940
    9    -517.2730110632      7.88e-07  Convergence criterion met
 Total energy in the final basis set =     -517.2730110632
    9    -517.2729067269      8.19e-07  Convergence criterion met
 Total energy in the final basis set =     -517.2729067269
    9    -517.2729266292      8.35e-07  Convergence criterion met
 Total energy in the final basis set =     -517.2729266292

             Standard Nuclear Orientation (Angstroms)
    I     Atom           X                Y                Z
 ----------------------------------------------------------------
    1      S       2.7311298824     0.3862842037    -0.0177560872
    2      C      -0.7128554806     0.4450627458    -0.0028299254
    3      C       0.2533244698    -0.6862928183    -0.0100854231
    4      C      -2.1627463731    -0.1040330830     0.0259046851
    5      H      -0.5434830220     1.0783540623     0.8721148046
    6      H      -0.5801324899     1.0663203596    -0.8932878278
    7      H       0.4213275598    -1.2395362932     0.9083542855
    8      H       0.3996048597    -1.2563314368    -0.9221184288
    9      H      -2.3418297331    -0.7124008825     0.9176112147
   10      H      -2.8714702113     0.7297339464     0.0369291784
   11      H      -2.3760923395    -0.7182335801    -0.8543162506
   12      H       2.4958238778     0.9148717761    -1.2375182254
 ----------------------------------------------------------------

    9    -517.2729275261      8.34e-07  Convergence criterion met
 Total energy in the final basis set =     -517.2729275261

                    Orbital Energies (a.u.)
 --------------------------------------------------------------

 Alpha MOs
 -- Occupied --
-88.854 -10.262 -10.214 -10.204  -7.913  -5.877  -5.875  -5.867
 -0.813  -0.702  -0.664  -0.609  -0.495  -0.455  -0.423  -0.404
 -0.379  -0.361  -0.358  -0.252  -0.217

 Beta MOs
 -- Occupied --
-88.854 -10.262 -10.214 -10.204  -7.913  -5.877  -5.875  -5.867
 -0.813  -0.702  -0.664  -0.609  -0.495  -0.455  -0.423  -0.404
 -0.379  -0.361  -0.358  -0.252  -0.217

          Ground-State Mulliken Net Atomic Charges

     Atom                 Charge (a.u.)    Spin (a.u.)
  --------------------------------------------------------
      1 S                    -0.314148       0.000000
      2 C                    -0.191557       0.000000
      3 C                    -0.158016      -0.000000
      4 C                    -0.331947       0.000000
      5 H                     0.142195      -0.000000
      6 H                     0.128011      -0.000000
      7 H                     0.159127       0.000000
      8 H                     0.157495       0.000000
      9 H                     0.118344      -0.000000
     10 H                     0.125760       0.000000
     11 H                     0.116580       0.000000
     12 H                     0.048157      -0.000000
  --------------------------------------------------------
  Sum of atomic charges =     0.000000

                    Cartesian Multipole Moments
 -----------------------------------------------------------------
    Charge (ESU x 10^10)
                 0.0000
    Dipole Moment (Debye)
         X      -4.1183      Y      -0.7293      Z      -0.7246
       Tot       4.2447
    Quadrupole Moments (Debye-Ang)
        XX     -44.0923     XY      -0.5219     YY     -33.9998
        XZ      -1.7447     YZ      -1.6479     ZZ     -32.3390

 Final energy is   -517.272927526057
 **  OPTIMIZATION CONVERGED  **
 Total job time:  15.01s(wall), 170.77s(cpu)
        *  Thank you very much for using Q-Chem.  Have a nice day.  *
