 Q-Chem 5.1, Q-Chem, Inc., Pleasanton, CA (2018)
 Q-Chem 5.1.1 for Intel X86 EM64T Linux

User input:
--------------------------------------------------------------

$comment
potential surface scanner
$end

$rem
JOBTYPE  PES_SCAN
UNRESTRICTED TRUE
SYM_IGNORE  TRUE
GEOM_OPT_MAX_CYCLES 400
SCF_MAX_CYCLES 400
METHOD   B3LYP
BASIS   6-31G**
PDB_PRINT 2
SCF_CONVERGENCE 6
THRESH 14
SCF_PRINT 1
$end
$molecule
0 1
S 2.126400 0.172600 -0.001000
C -0.602600 0.507000 0.001200
C 0.472000 -0.574500 0.001000
C -1.995800 -0.105100 -0.001200
H -0.500600 1.146800 0.886100
H -0.499900 1.148900 -0.882200
H 0.380400 -1.208800 0.888400
H 0.378500 -1.212800 -0.883500
H -2.152000 -0.728200 0.885200
H -2.755700 0.682700 -0.000800
H -2.150200 -0.725500 -0.889800
H 2.012100 0.800700 -1.180400
$end
$scan
stre 1 3 1.300000 1.301000 0.100000
$end
--------------------------------------------------------------

    9    -517.3385956811      3.60e-07  Convergence criterion met
 Total energy in the final basis set =     -517.3385956811
    9    -517.3254999689      3.81e-07  Convergence criterion met
 Total energy in the final basis set =     -517.3254999689
    9    -517.2819204334      3.99e-07  Convergence criterion met
 Total energy in the final basis set =     -517.2819204334
    8    -517.1998531820      8.37e-07  Convergence criterion met
 Total energy in the final basis set =     -517.1998531820
    8    -517.1041158508      8.56e-07  Convergence criterion met
 Total energy in the final basis set =     -517.1041158508
    8    -517.0916399337      8.83e-07  Convergence criterion met
 Total energy in the final basis set =     -517.0916399337
    8    -517.0913405139      9.06e-07  Convergence criterion met
 Total energy in the final basis set =     -517.0913405139
    8    -517.0914378340      9.26e-07  Convergence criterion met
    8    -517.0914605709      9.33e-07  Convergence criterion met
 Total energy in the final basis set =     -517.0914605709
    8    -517.0914624100      9.32e-07  Convergence criterion met
 Total energy in the final basis set =     -517.0914624100
    8    -517.0914634194      9.32e-07  Convergence criterion met
 Total energy in the final basis set =     -517.0914634194
    8    -517.0914644961      9.31e-07  Convergence criterion met
 Total energy in the final basis set =     -517.0914644961
    8    -517.0914655988      9.30e-07  Convergence criterion met
 Total energy in the final basis set =     -517.0914655988
    8    -517.0914667997      9.29e-07  Convergence criterion met
 Total energy in the final basis set =     -517.0914667997

             Standard Nuclear Orientation (Angstroms)
    I     Atom           X                Y                Z
 ----------------------------------------------------------------
    1      S       1.8583722642    -0.0445409176     0.0160656722
    2      C      -0.6057192122     0.5626025424    -0.0042468113
    3      C       0.6253661590    -0.4501975766    -0.0556239501
    4      C      -1.9675112030    -0.1259150789     0.0034545828
    5      H      -0.4754707865     1.2010726285     0.8788721723
    6      H      -0.5084794981     1.2160007071    -0.8825590822
    7      H       0.4085605743    -1.0979744758     0.8148254730
    8      H       0.2931639648    -1.1601020229    -0.8678748990
    9      H      -2.0897701171    -0.7570828010     0.8916285686
   10      H      -2.7845933618     0.6020037888     0.0022395615
   11      H      -2.0946035431    -0.7667916275    -0.8764674626
   12      H       2.0532847595     0.7247248334    -1.0973138252
 ----------------------------------------------------------------

    8    -517.0914677544      9.28e-07  Convergence criterion met
 Total energy in the final basis set =     -517.0914677544

                    Orbital Energies (a.u.)
 --------------------------------------------------------------

 Alpha MOs
 -- Occupied --
-88.844 -10.195 -10.186 -10.180  -7.930  -5.895  -5.888  -5.882
 -0.920  -0.759  -0.631  -0.596  -0.511  -0.458  -0.441  -0.420
 -0.385  -0.358  -0.344  -0.288  -0.203

 Beta MOs
 -- Occupied --
-88.844 -10.195 -10.186 -10.180  -7.930  -5.895  -5.888  -5.882
 -0.920  -0.759  -0.631  -0.596  -0.511  -0.458  -0.441  -0.420
 -0.385  -0.358  -0.344  -0.288  -0.203

          Ground-State Mulliken Net Atomic Charges

     Atom                 Charge (a.u.)    Spin (a.u.)
  --------------------------------------------------------
      1 S                     0.001791      -0.000000
      2 C                    -0.195263       0.000000
      3 C                    -0.264070       0.000000
      4 C                    -0.325064       0.000000
      5 H                     0.105510      -0.000000
      6 H                     0.094491       0.000000
      7 H                     0.154186       0.000000
      8 H                     0.089519       0.000000
      9 H                     0.103335      -0.000000
     10 H                     0.109564      -0.000000
     11 H                     0.106827      -0.000000
     12 H                     0.019174       0.000000
  --------------------------------------------------------
  Sum of atomic charges =     0.000000

                    Cartesian Multipole Moments
 -----------------------------------------------------------------
    Charge (ESU x 10^10)
                 0.0000
    Dipole Moment (Debye)
         X      -1.4495      Y      -0.1608      Z      -0.4596
       Tot       1.5291
    Quadrupole Moments (Debye-Ang)
        XX     -38.0181     XY       0.6051     YY     -33.7712
        XZ      -1.6615     YZ      -1.5091     ZZ     -32.8310

 Final energy is   -517.091467754394
 **  OPTIMIZATION CONVERGED  **
 Total job time:  47.31s(wall), 554.27s(cpu)
        *  Thank you very much for using Q-Chem.  Have a nice day.  *
