 Q-Chem 5.1, Q-Chem, Inc., Pleasanton, CA (2018)
 Q-Chem 5.1.1 for Intel X86 EM64T Linux

User input:
--------------------------------------------------------------

$comment
potential surface scanner
$end

$rem
JOBTYPE  PES_SCAN
UNRESTRICTED TRUE
SYM_IGNORE  TRUE
GEOM_OPT_MAX_CYCLES 400
SCF_MAX_CYCLES 400
METHOD   B3LYP
BASIS   6-31G**
PDB_PRINT 2
SCF_CONVERGENCE 6
THRESH 14
SCF_PRINT 1
$end
$molecule
0 3
S 3.225181 0.984789 -0.364150
C -0.734368 0.422207 -0.038657
C 0.259556 -0.673918 -0.246840
C -2.183240 -0.106657 0.086407
H -0.487371 0.985318 0.869927
H -0.689576 1.133438 -0.872452
H 0.560818 -1.294603 0.594001
H 0.378682 -1.116346 -1.233159
H -2.278939 -0.796669 0.930636
H -2.881556 0.721990 0.244325
H -2.487890 -0.639922 -0.819498
H 2.031310 0.284172 -0.327536
$end
$scan
stre 1 3 3.300000 3.301000 0.100000
$end
--------------------------------------------------------------

   10    -517.2284964816      4.37e-07  Convergence criterion met
 Total energy in the final basis set =     -517.2284964816
   10    -517.2271944067      5.44e-07  Convergence criterion met
 Total energy in the final basis set =     -517.2271944067
   10    -517.2279705488      4.12e-07  Convergence criterion met
 Total energy in the final basis set =     -517.2279705488
   10    -517.2283333648      3.74e-07  Convergence criterion met
 Total energy in the final basis set =     -517.2283333648
   10    -517.2283610188      4.38e-07  Convergence criterion met
 Total energy in the final basis set =     -517.2283610188
   10    -517.2283660323      4.57e-07  Convergence criterion met
 Total energy in the final basis set =     -517.2283660323
   10    -517.2283690916      4.63e-07  Convergence criterion met
 Total energy in the final basis set =     -517.2283690916
   10    -517.2283703843      4.56e-07  Convergence criterion met
 Total energy in the final basis set =     -517.2283703843

             Standard Nuclear Orientation (Angstroms)
    I     Atom           X                Y                Z
 ----------------------------------------------------------------
    1      S       3.1544850207     0.9624916377    -0.3603652982
    2      C      -0.7196478138     0.4331640752    -0.0379804552
    3      C       0.2816832581    -0.6574105530    -0.2466680046
    4      C      -2.1640168897    -0.1073145325     0.0836596947
    5      H      -0.4769343294     0.9962330659     0.8715853807
    6      H      -0.6776759231     1.1458262648    -0.8705854854
    7      H       0.5685779939    -1.2862904647     0.5937184609
    8      H       0.3829611315    -1.1109721929    -1.2304392199
    9      H      -2.2563696340    -0.7987257258     0.9271453387
   10      H      -2.8687511092     0.7159280977     0.2410379556
   11      H      -2.4632337270    -0.6418195601    -0.8233572421
   12      H       1.9515290222     0.2526888877    -0.3247471253
 ----------------------------------------------------------------

   10    -517.2283706977      4.49e-07  Convergence criterion met
 Total energy in the final basis set =     -517.2283706977

                    Orbital Energies (a.u.)
 --------------------------------------------------------------

 Alpha MOs
 -- Occupied --
-88.889 -10.212 -10.200 -10.189  -7.950  -5.922  -5.912  -5.903
 -0.797  -0.718  -0.687  -0.596  -0.478  -0.443  -0.410  -0.407
 -0.381  -0.362  -0.346  -0.303  -0.256  -0.222

 Beta MOs
 -- Occupied --
-88.883 -10.200 -10.199 -10.188  -7.944  -5.906  -5.903  -5.899
 -0.786  -0.680  -0.662  -0.585  -0.473  -0.435  -0.402  -0.390
 -0.367  -0.357  -0.344  -0.240

          Ground-State Mulliken Net Atomic Charges

     Atom                 Charge (a.u.)    Spin (a.u.)
  --------------------------------------------------------
      1 S                    -0.097892       1.155914
      2 C                    -0.181950      -0.059743
      3 C                    -0.254429       0.940410
      4 C                    -0.313245       0.047180
      5 H                     0.115523       0.011086
      6 H                     0.114669       0.009703
      7 H                     0.126763      -0.035663
      8 H                     0.127047      -0.035669
      9 H                     0.110126      -0.001021
     10 H                     0.111094       0.013765
     11 H                     0.110232      -0.000927
     12 H                     0.032061      -0.045035
  --------------------------------------------------------
  Sum of atomic charges =    -0.000000

                    Cartesian Multipole Moments
 -----------------------------------------------------------------
    Charge (ESU x 10^10)
                 0.0000
    Dipole Moment (Debye)
         X      -2.3375      Y      -0.9251      Z       0.1324
       Tot       2.5174
    Quadrupole Moments (Debye-Ang)
        XX     -42.4201     XY      -2.3903     YY     -36.2303
        XZ       1.0821     YZ      -0.0368     ZZ     -32.8110

 Final energy is   -517.228370697652
 **  OPTIMIZATION CONVERGED  **
 Total job time:  28.98s(wall), 331.58s(cpu)
        *  Thank you very much for using Q-Chem.  Have a nice day.  *
