 Q-Chem 5.1, Q-Chem, Inc., Pleasanton, CA (2018)
 Q-Chem 5.1.1 for Intel X86 EM64T Linux

User input:
--------------------------------------------------------------

$comment
potential surface scanner
$end

$rem
JOBTYPE  PES_SCAN
UNRESTRICTED TRUE
SYM_IGNORE  TRUE
GEOM_OPT_MAX_CYCLES 400
SCF_MAX_CYCLES 400
METHOD   B3LYP
BASIS   6-31G**
PDB_PRINT 2
SCF_CONVERGENCE 6
THRESH 14
SCF_PRINT 1
$end
$molecule
0 1
S 2.942623 0.464385 -0.029447
C -0.753412 0.420725 -0.004260
C 0.187085 -0.721675 -0.013036
C -2.216020 -0.107191 0.038698
H -0.573408 1.053241 0.869242
H -0.621221 1.034518 -0.899686
H 0.406864 -1.251436 0.907450
H 0.388851 -1.261487 -0.931890
H -2.398266 -0.704755 0.936510
H -2.905319 0.742572 0.048746
H -2.445566 -0.722412 -0.836106
H 2.700391 0.957314 -1.263219
$end
$scan
stre 1 3 3.100000 3.101000 0.100000
$end
--------------------------------------------------------------

   10    -517.2502486652      5.27e-07  Convergence criterion met
 Total energy in the final basis set =     -517.2502486652
   10    -517.2434701686      9.56e-07  Convergence criterion met
 Total energy in the final basis set =     -517.2434701686
   10    -517.2434802106      9.82e-07  Convergence criterion met
 Total energy in the final basis set =     -517.2434802106
   11    -517.2436577198      2.22e-07  Convergence criterion met
 Total energy in the final basis set =     -517.2436577198
   11    -517.2436645470      2.23e-07  Convergence criterion met
 Total energy in the final basis set =     -517.2436645470
   11    -517.2436869297      2.26e-07  Convergence criterion met
 Total energy in the final basis set =     -517.2436869297
   11    -517.2436974708      2.29e-07  Convergence criterion met
 Total energy in the final basis set =     -517.2436974708
   11    -517.2437021609      2.30e-07  Convergence criterion met
 Total energy in the final basis set =     -517.2437021609
   11    -517.2437035804      2.31e-07  Convergence criterion met
 Total energy in the final basis set =     -517.2437035804
   11    -517.2437049454      2.31e-07  Convergence criterion met
 Total energy in the final basis set =     -517.2437049454
   11    -517.2437063320      2.31e-07  Convergence criterion met
 Total energy in the final basis set =     -517.2437063320
   11    -517.2437073748      2.31e-07  Convergence criterion met
 Total energy in the final basis set =     -517.2437073748

             Standard Nuclear Orientation (Angstroms)
    I     Atom           X                Y                Z
 ----------------------------------------------------------------
    1      S       3.0174131428     0.4871536906    -0.0280268064
    2      C      -0.7704731305     0.4152714629    -0.0073803543
    3      C       0.1654193712    -0.7277670481    -0.0181656812
    4      C      -2.2354091751    -0.1107562962     0.0458028735
    5      H      -0.5870056559     1.0489818841     0.8646222636
    6      H      -0.6441637958     1.0261343636    -0.9056279592
    7      H       0.3999696459    -1.2513993162     0.9024236736
    8      H       0.3790533699    -1.2608467381    -0.9386603016
    9      H      -2.4127488509    -0.7052236811     0.9464462351
   10      H      -2.9213256529     0.7416543911     0.0578682079
   11      H      -2.4710066731    -0.7273199540    -0.8262121378
   12      H       2.7928794043     0.9679162414    -1.2700880132
 ----------------------------------------------------------------

   11    -517.2437079865      2.31e-07  Convergence criterion met
 Total energy in the final basis set =     -517.2437079865

                    Orbital Energies (a.u.)
 --------------------------------------------------------------

 Alpha MOs
 -- Occupied --
-88.844 -10.272 -10.223 -10.213  -7.903  -5.867  -5.866  -5.858
 -0.822  -0.708  -0.656  -0.617  -0.505  -0.466  -0.432  -0.410
 -0.389  -0.370  -0.349  -0.230  -0.208

 Beta MOs
 -- Occupied --
-88.844 -10.272 -10.223 -10.213  -7.903  -5.867  -5.866  -5.858
 -0.822  -0.708  -0.656  -0.617  -0.505  -0.466  -0.432  -0.410
 -0.389  -0.370  -0.349  -0.230  -0.208

          Ground-State Mulliken Net Atomic Charges

     Atom                 Charge (a.u.)    Spin (a.u.)
  --------------------------------------------------------
      1 S                    -0.371543       0.000000
      2 C                    -0.208771       0.000000
      3 C                    -0.123786      -0.000000
      4 C                    -0.333318       0.000000
      5 H                     0.150799      -0.000000
      6 H                     0.138167      -0.000000
      7 H                     0.166055      -0.000000
      8 H                     0.163157      -0.000000
      9 H                     0.123098      -0.000000
     10 H                     0.131517      -0.000000
     11 H                     0.121514      -0.000000
     12 H                     0.043111      -0.000000
  --------------------------------------------------------
  Sum of atomic charges =    -0.000000

                    Cartesian Multipole Moments
 -----------------------------------------------------------------
    Charge (ESU x 10^10)
                -0.0000
    Dipole Moment (Debye)
         X      -5.2614      Y      -1.0432      Z      -0.7327
       Tot       5.4136
    Quadrupole Moments (Debye-Ang)
        XX     -47.3027     XY      -1.2944     YY     -34.0729
        XZ      -1.9420     YZ      -1.6096     ZZ     -32.1249

 Final energy is   -517.243707986515
 **  OPTIMIZATION CONVERGED  **
 Total job time:  49.38s(wall), 472.21s(cpu)
        *  Thank you very much for using Q-Chem.  Have a nice day.  *
