 Q-Chem 5.1, Q-Chem, Inc., Pleasanton, CA (2018)
 Q-Chem 5.1.1 for Intel X86 EM64T Linux

User input:
--------------------------------------------------------------

$comment
potential surface scanner
$end

$rem
JOBTYPE  PES_SCAN
UNRESTRICTED TRUE
SYM_IGNORE  TRUE
GEOM_OPT_MAX_CYCLES 400
SCF_MAX_CYCLES 400
METHOD   B3LYP
BASIS   6-31G**
PDB_PRINT 2
SCF_CONVERGENCE 6
THRESH 14
SCF_PRINT 1
$end
$molecule
0 1
S 2.870070 0.438173 -0.024561
C -0.739321 0.428021 -0.004532
C 0.207844 -0.711787 -0.012741
C -2.198595 -0.105617 0.034626
H -0.562016 1.060709 0.869250
H -0.607169 1.043269 -0.898970
H 0.415326 -1.246703 0.907689
H 0.392735 -1.261773 -0.929279
H -2.380068 -0.706221 0.930715
H -2.893073 0.739941 0.045163
H -2.423942 -0.720413 -0.841746
H 2.630809 0.946200 -1.252612
$end
$scan
stre 1 3 3.000000 3.001000 0.100000
$end
--------------------------------------------------------------

   10    -517.2573003222      2.92e-07  Convergence criterion met
 Total energy in the final basis set =     -517.2573003222
   10    -517.2499932699      4.74e-07  Convergence criterion met
 Total energy in the final basis set =     -517.2499932699
   10    -517.2500299676      4.95e-07  Convergence criterion met
 Total energy in the final basis set =     -517.2500299676
   10    -517.2502072206      5.25e-07  Convergence criterion met
 Total energy in the final basis set =     -517.2502072206
   10    -517.2502145732      5.27e-07  Convergence criterion met
 Total energy in the final basis set =     -517.2502145732
   10    -517.2502338475      5.31e-07  Convergence criterion met
 Total energy in the final basis set =     -517.2502338475
   10    -517.2502416771      5.31e-07  Convergence criterion met
 Total energy in the final basis set =     -517.2502416771
   10    -517.2502453327      5.29e-07  Convergence criterion met
 Total energy in the final basis set =     -517.2502453327
   10    -517.2502466201      5.28e-07  Convergence criterion met
 Total energy in the final basis set =     -517.2502466201
   10    -517.2502477369      5.27e-07  Convergence criterion met
 Total energy in the final basis set =     -517.2502477369

             Standard Nuclear Orientation (Angstroms)
    I     Atom           X                Y                Z
 ----------------------------------------------------------------
    1      S       2.9426227853     0.4643849070    -0.0294471120
    2      C      -0.7534124776     0.4207254273    -0.0042603108
    3      C       0.1870848658    -0.7216753247    -0.0130357208
    4      C      -2.2160204444    -0.1071907370     0.0386980215
    5      H      -0.5734082518     1.0532412233     0.8692418038
    6      H      -0.6212206948     1.0345184585    -0.8996855381
    7      H       0.4068641115    -1.2514363426     0.9074495205
    8      H       0.3888505651    -1.2614868286    -0.9318896859
    9      H      -2.3982660810    -0.7047553754     0.9365100339
   10      H      -2.9053190815     0.7425724378     0.0487462214
   11      H      -2.4455659673    -0.7224124716    -0.8361061153
   12      H       2.7003906706     0.9573136262    -1.2632191183
 ----------------------------------------------------------------

   10    -517.2502486634      5.27e-07  Convergence criterion met
 Total energy in the final basis set =     -517.2502486634

                    Orbital Energies (a.u.)
 --------------------------------------------------------------

 Alpha MOs
 -- Occupied --
-88.846 -10.270 -10.221 -10.211  -7.905  -5.869  -5.868  -5.860
 -0.820  -0.706  -0.658  -0.615  -0.503  -0.463  -0.430  -0.409
 -0.386  -0.368  -0.351  -0.235  -0.210

 Beta MOs
 -- Occupied --
-88.846 -10.270 -10.221 -10.211  -7.905  -5.869  -5.868  -5.860
 -0.820  -0.706  -0.658  -0.615  -0.503  -0.463  -0.430  -0.409
 -0.386  -0.368  -0.351  -0.235  -0.210

          Ground-State Mulliken Net Atomic Charges

     Atom                 Charge (a.u.)    Spin (a.u.)
  --------------------------------------------------------
      1 S                    -0.361068       0.000000
      2 C                    -0.205151      -0.000000
      3 C                    -0.128976       0.000000
      4 C                    -0.333228       0.000000
      5 H                     0.149001       0.000000
      6 H                     0.136124       0.000000
      7 H                     0.164598       0.000000
      8 H                     0.162168       0.000000
      9 H                     0.121993       0.000000
     10 H                     0.130311      -0.000000
     11 H                     0.120371      -0.000000
     12 H                     0.043857      -0.000000
  --------------------------------------------------------
  Sum of atomic charges =     0.000000

                    Cartesian Multipole Moments
 -----------------------------------------------------------------
    Charge (ESU x 10^10)
                 0.0000
    Dipole Moment (Debye)
         X      -4.9961      Y      -0.9752      Z      -0.7207
       Tot       5.1411
    Quadrupole Moments (Debye-Ang)
        XX     -46.5182     XY      -1.1133     YY     -34.0285
        XZ      -1.8434     YZ      -1.6277     ZZ     -32.1813

 Final energy is   -517.250248663375
 **  OPTIMIZATION CONVERGED  **
 Total job time:  33.63s(wall), 387.76s(cpu)
        *  Thank you very much for using Q-Chem.  Have a nice day.  *
