 Q-Chem 5.1, Q-Chem, Inc., Pleasanton, CA (2018)
 Q-Chem 5.1.1 for Intel X86 EM64T Linux

User input:
--------------------------------------------------------------

$comment
potential surface scanner
$end

$rem
JOBTYPE  PES_SCAN
UNRESTRICTED TRUE
SYM_IGNORE  TRUE
GEOM_OPT_MAX_CYCLES 400
SCF_MAX_CYCLES 400
METHOD   B3LYP
BASIS   6-31G**
PDB_PRINT 2
SCF_CONVERGENCE 6
THRESH 14
SCF_PRINT 1
$end
$molecule
0 3
S 2.684544 -0.992797 -0.725985
C -0.806678 0.658312 0.146182
C 0.599379 0.065028 -0.184601
C -1.940139 -0.348624 -0.046022
H -0.798073 1.023807 1.180410
H -0.972687 1.535610 -0.491601
H 0.754386 -0.783478 0.488136
H 0.562873 -0.271688 -1.224133
H -1.817104 -1.218371 0.609506
H -2.913179 0.100571 0.178752
H -1.974187 -0.715965 -1.078037
H 1.333468 0.851392 -0.029601
$end
$scan
stre 1 3 2.300000 2.301000 0.100000
$end
--------------------------------------------------------------

    9    -517.2327509819      9.20e-07  Convergence criterion met
 Total energy in the final basis set =     -517.2327509819
    9    -517.2226027396      7.73e-07  Convergence criterion met
 Total energy in the final basis set =     -517.2226027396
    9    -517.2224362521      6.96e-07  Convergence criterion met
 Total energy in the final basis set =     -517.2224362521
    9    -517.2224427884      6.87e-07  Convergence criterion met
 Total energy in the final basis set =     -517.2224427884
    9    -517.2224449035      6.88e-07  Convergence criterion met
 Total energy in the final basis set =     -517.2224449035

             Standard Nuclear Orientation (Angstroms)
    I     Atom           X                Y                Z
 ----------------------------------------------------------------
    1      S       2.6119267190    -0.9657890629    -0.7092385567
    2      C      -0.7980734113     0.6552193411     0.1439220488
    3      C       0.6180581429     0.0561709267    -0.1895401640
    4      C      -1.9312034500    -0.3509303889    -0.0477444099
    5      H      -0.7844087810     1.0196724436     1.1783098298
    6      H      -0.9597474451     1.5324636550    -0.4947093425
    7      H       0.7478803115    -0.7870849252     0.4932274127
    8      H       0.5562023481    -0.2735559952    -1.2292796979
    9      H      -1.8082930471    -1.2211462012     0.6072336694
   10      H      -2.9038384536     0.0985643797     0.1784055706
   11      H      -1.9670406258    -0.7176603119    -1.0799421285
   12      H       1.3311406924     0.8578731391    -0.0276382320
 ----------------------------------------------------------------

    9    -517.2224458471      6.94e-07  Convergence criterion met
 Total energy in the final basis set =     -517.2224458471

                    Orbital Energies (a.u.)
 --------------------------------------------------------------

 Alpha MOs
 -- Occupied --
-88.887 -10.199 -10.198 -10.182  -7.948  -5.918  -5.917  -5.899
 -0.800  -0.731  -0.669  -0.594  -0.478  -0.459  -0.422  -0.410
 -0.362  -0.358  -0.348  -0.291  -0.249  -0.239

 Beta MOs
 -- Occupied --
-88.876 -10.197 -10.196 -10.182  -7.938  -5.897  -5.897  -5.893
 -0.793  -0.710  -0.624  -0.569  -0.473  -0.455  -0.412  -0.403
 -0.358  -0.344  -0.343  -0.224

          Ground-State Mulliken Net Atomic Charges

     Atom                 Charge (a.u.)    Spin (a.u.)
  --------------------------------------------------------
      1 S                    -0.096471       1.827398
      2 C                    -0.194068       0.094461
      3 C                    -0.413660       0.032134
      4 C                    -0.312755      -0.002244
      5 H                     0.106153       0.002557
      6 H                     0.106136       0.002696
      7 H                     0.155529       0.014815
      8 H                     0.156127       0.014880
      9 H                     0.107216       0.000824
     10 H                     0.108531       0.002506
     11 H                     0.107034       0.000882
     12 H                     0.170229       0.009089
  --------------------------------------------------------
  Sum of atomic charges =    -0.000000

                    Cartesian Multipole Moments
 -----------------------------------------------------------------
    Charge (ESU x 10^10)
                -0.0000
    Dipole Moment (Debye)
         X      -1.8135      Y       0.8951      Z       0.4627
       Tot       2.0747
    Quadrupole Moments (Debye-Ang)
        XX     -40.1229     XY       1.6636     YY     -36.1042
        XZ       1.5190     YZ      -1.3458     ZZ     -33.4250

 Final energy is   -517.222445847069
 **  OPTIMIZATION CONVERGED  **
 Total job time:  19.04s(wall), 215.02s(cpu)
        *  Thank you very much for using Q-Chem.  Have a nice day.  *
