 Q-Chem 5.1, Q-Chem, Inc., Pleasanton, CA (2018)
 Q-Chem 5.1.1 for Intel X86 EM64T Linux

User input:
--------------------------------------------------------------

$comment
potential surface scanner
$end

$rem
JOBTYPE  PES_SCAN
UNRESTRICTED TRUE
SYM_IGNORE  TRUE
GEOM_OPT_MAX_CYCLES 400
SCF_MAX_CYCLES 400
METHOD   B3LYP
BASIS   6-31G**
PDB_PRINT 2
SCF_CONVERGENCE 6
THRESH 14
SCF_PRINT 1
$end
$molecule
0 3
S 4.283633 0.968945 -0.137458
C -1.020772 0.258781 -0.012061
C -0.122305 -0.932493 -0.026784
C -2.520371 -0.100976 0.119667
H -0.749095 0.921626 0.820048
H -0.884916 0.841078 -0.933213
H 0.226115 -1.380928 0.898065
H 0.069982 -1.474522 -0.947461
H -2.711888 -0.650805 1.046626
H -3.138202 0.803958 0.126745
H -2.847883 -0.729337 -0.714737
H 4.128304 1.378472 -1.416435
$end
$scan
stre 1 3 4.700000 4.701000 0.100000
$end
--------------------------------------------------------------

   10    -517.2242262924      5.89e-07  Convergence criterion met
 Total energy in the final basis set =     -517.2242262924
   10    -517.2235843897      5.83e-07  Convergence criterion met
 Total energy in the final basis set =     -517.2235843897
   10    -517.2240116274      5.73e-07  Convergence criterion met
 Total energy in the final basis set =     -517.2240116274
   10    -517.2241902607      5.57e-07  Convergence criterion met
 Total energy in the final basis set =     -517.2241902607
   10    -517.2241949584      5.57e-07  Convergence criterion met
 Total energy in the final basis set =     -517.2241949584
   10    -517.2242043687      5.58e-07  Convergence criterion met
 Total energy in the final basis set =     -517.2242043687
   10    -517.2242069565      5.59e-07  Convergence criterion met
 Total energy in the final basis set =     -517.2242069565
   10    -517.2242130176      5.61e-07  Convergence criterion met
 Total energy in the final basis set =     -517.2242130176
   10    -517.2242171990      5.63e-07  Convergence criterion met
 Total energy in the final basis set =     -517.2242171990
   10    -517.2242211017      5.64e-07  Convergence criterion met
 Total energy in the final basis set =     -517.2242211017
   10    -517.2242229036      5.64e-07  Convergence criterion met
 Total energy in the final basis set =     -517.2242229036

             Standard Nuclear Orientation (Angstroms)
    I     Atom           X                Y                Z
 ----------------------------------------------------------------
    1      S       4.2039722965     0.9403740637    -0.1274579549
    2      C      -1.0102066780     0.2629086992    -0.0148018664
    3      C      -0.1085553395    -0.9258441210    -0.0308165054
    4      C      -2.5087554622    -0.0997254208     0.1187414858
    5      H      -0.7382209031     0.9258486623     0.8169962560
    6      H      -0.8768889394     0.8459037212    -0.9359886503
    7      H       0.2553746663    -1.3637087334     0.8930197477
    8      H       0.0743352284    -1.4747917873    -0.9492727365
    9      H      -2.6982875726    -0.6501580725     1.0457448858
   10      H      -3.1282251986     0.8041163189     0.1269090243
   11      H      -2.8364863117    -0.7282258510    -0.7155045099
   12      H       4.0845462141     1.3671015209    -1.4045671761
 ----------------------------------------------------------------

   10    -517.2242237378      5.62e-07  Convergence criterion met
 Total energy in the final basis set =     -517.2242237378

                    Orbital Energies (a.u.)
 --------------------------------------------------------------

 Alpha MOs
 -- Occupied --
-88.910 -10.183 -10.182 -10.174  -7.971  -5.942  -5.932  -5.923
 -0.776  -0.737  -0.669  -0.576  -0.458  -0.424  -0.412  -0.389
 -0.375  -0.346  -0.329  -0.319  -0.271  -0.194

 Beta MOs
 -- Occupied --
-88.904 -10.184 -10.173 -10.168  -7.966  -5.929  -5.925  -5.920
 -0.766  -0.697  -0.651  -0.561  -0.454  -0.419  -0.398  -0.384
 -0.363  -0.341  -0.327  -0.257

          Ground-State Mulliken Net Atomic Charges

     Atom                 Charge (a.u.)    Spin (a.u.)
  --------------------------------------------------------
      1 S                    -0.073051       1.028416
      2 C                    -0.188494      -0.074283
      3 C                    -0.215539       1.080415
      4 C                    -0.306965       0.049547
      5 H                     0.102340       0.012299
      6 H                     0.099445       0.014448
      7 H                     0.102079      -0.048047
      8 H                     0.098292      -0.048003
      9 H                     0.105333      -0.000401
     10 H                     0.099242       0.013579
     11 H                     0.104359      -0.000543
     12 H                     0.072959      -0.027427
  --------------------------------------------------------
  Sum of atomic charges =    -0.000000

                    Cartesian Multipole Moments
 -----------------------------------------------------------------
    Charge (ESU x 10^10)
                -0.0000
    Dipole Moment (Debye)
         X      -0.2635      Y       0.3924      Z      -0.9506
       Tot       1.0617
    Quadrupole Moments (Debye-Ang)
        XX     -37.2804     XY      -0.3240     YY     -33.3948
        XZ      -4.0675     YZ      -1.2681     ZZ     -31.6709

 Final energy is   -517.224223737759
 **  OPTIMIZATION CONVERGED  **
 Total job time:  36.24s(wall), 417.33s(cpu)
        *  Thank you very much for using Q-Chem.  Have a nice day.  *
