 Q-Chem 5.1, Q-Chem, Inc., Pleasanton, CA (2018)
 Q-Chem 5.1.1 for Intel X86 EM64T Linux

User input:
--------------------------------------------------------------

$comment
potential surface scanner
$end

$rem
JOBTYPE  PES_SCAN
UNRESTRICTED TRUE
SYM_IGNORE  TRUE
GEOM_OPT_MAX_CYCLES 400
SCF_MAX_CYCLES 400
METHOD   B3LYP
BASIS   6-31G**
PDB_PRINT 2
SCF_CONVERGENCE 6
THRESH 14
SCF_PRINT 1
$end
$molecule
0 1
S 2.346703 0.201991 0.005991
C -0.648727 0.492424 -0.010542
C 0.404643 -0.596569 -0.020588
C -2.065264 -0.105156 0.013275
H -0.497618 1.136901 0.861330
H -0.532312 1.127481 -0.896251
H 0.413047 -1.208536 0.881864
H 0.389733 -1.229746 -0.907386
H -2.222161 -0.720972 0.905399
H -2.819676 0.687773 0.018079
H -2.248486 -0.735360 -0.863748
H 2.192719 0.853569 -1.164423
$end
$scan
stre 1 3 2.200000 2.201000 0.100000
$end
--------------------------------------------------------------

    9    -517.3274575788      3.57e-07  Convergence criterion met
 Total energy in the final basis set =     -517.3274575788
    9    -517.3186404659      3.73e-07  Convergence criterion met
 Total energy in the final basis set =     -517.3186404659
    9    -517.3186005727      3.70e-07  Convergence criterion met
 Total energy in the final basis set =     -517.3186005727
    9    -517.3186691615      3.68e-07  Convergence criterion met
 Total energy in the final basis set =     -517.3186691615

             Standard Nuclear Orientation (Angstroms)
    I     Atom           X                Y                Z
 ----------------------------------------------------------------
    1      S       2.4090709740     0.2318380917     0.0020285090
    2      C      -0.6574754810     0.4845742768    -0.0098121166
    3      C       0.3781682121    -0.6137500304    -0.0183279600
    4      C      -2.0800049883    -0.1038058474     0.0149675306
    5      H      -0.5023193655     1.1275343555     0.8620347487
    6      H      -0.5372691323     1.1167149563    -0.8965004782
    7      H       0.4148953324    -1.2171074240     0.8876368584
    8      H       0.3947354858    -1.2371026299    -0.9106400684
    9      H      -2.2416406199    -0.7172411348     0.9076531372
   10      H      -2.8265302457     0.6965750871     0.0195295865
   11      H      -2.2686517914    -0.7322837937    -0.8619358392
   12      H       2.2296226198     0.8678540928    -1.1736339079
 ----------------------------------------------------------------

    9    -517.3186710994      3.68e-07  Convergence criterion met
 Total energy in the final basis set =     -517.3186710994

                    Orbital Energies (a.u.)
 --------------------------------------------------------------

 Alpha MOs
 -- Occupied --
-88.867 -10.239 -10.200 -10.190  -7.927  -5.892  -5.889  -5.881
 -0.801  -0.713  -0.663  -0.598  -0.481  -0.439  -0.410  -0.400
 -0.373  -0.361  -0.348  -0.292  -0.231

 Beta MOs
 -- Occupied --
-88.867 -10.239 -10.200 -10.190  -7.927  -5.892  -5.889  -5.881
 -0.801  -0.713  -0.663  -0.598  -0.481  -0.439  -0.410  -0.400
 -0.373  -0.361  -0.348  -0.292  -0.231

          Ground-State Mulliken Net Atomic Charges

     Atom                 Charge (a.u.)    Spin (a.u.)
  --------------------------------------------------------
      1 S                    -0.167841      -0.000000
      2 C                    -0.167372       0.000000
      3 C                    -0.261909       0.000000
      4 C                    -0.325842       0.000000
      5 H                     0.126932      -0.000000
      6 H                     0.109622       0.000000
      7 H                     0.146064      -0.000000
      8 H                     0.146599      -0.000000
      9 H                     0.111409      -0.000000
     10 H                     0.115725      -0.000000
     11 H                     0.109425      -0.000000
     12 H                     0.057190       0.000000
  --------------------------------------------------------
  Sum of atomic charges =    -0.000000

                    Cartesian Multipole Moments
 -----------------------------------------------------------------
    Charge (ESU x 10^10)
                 0.0000
    Dipole Moment (Debye)
         X      -2.5442      Y      -0.2490      Z      -0.7343
       Tot       2.6597
    Quadrupole Moments (Debye-Ang)
        XX     -40.4454     XY       0.4375     YY     -34.0145
        XZ      -1.6861     YZ      -1.6879     ZZ     -32.7060

 Final energy is   -517.318671099424
 **  OPTIMIZATION CONVERGED  **
 Total job time:  15.50s(wall), 176.11s(cpu)
        *  Thank you very much for using Q-Chem.  Have a nice day.  *
