 Q-Chem 5.1, Q-Chem, Inc., Pleasanton, CA (2018)
 Q-Chem 5.1.1 for Intel X86 EM64T Linux

User input:
--------------------------------------------------------------

$comment
potential surface scanner
$end

$rem
JOBTYPE  PES_SCAN
UNRESTRICTED TRUE
SYM_IGNORE  TRUE
GEOM_OPT_MAX_CYCLES 400
SCF_MAX_CYCLES 400
METHOD   B3LYP
BASIS   6-31G**
PDB_PRINT 2
SCF_CONVERGENCE 6
THRESH 14
SCF_PRINT 1
$end
$molecule
0 1
S 2.597579 0.333007 -0.008025
C -0.690735 0.462019 -0.002706
C 0.301827 -0.656698 -0.010309
C -2.129432 -0.103776 0.019721
H -0.528579 1.097254 0.872556
H -0.560481 1.089565 -0.889708
H 0.422044 -1.230769 0.903999
H 0.404192 -1.246132 -0.916945
H -2.302726 -0.719321 0.908109
H -2.853724 0.716564 0.031931
H -2.332015 -0.718946 -0.862841
H 2.384652 0.881033 -1.222780
$end
$scan
stre 1 3 2.600000 2.601000 0.100000
$end
--------------------------------------------------------------

    9    -517.2904610487      5.86e-07  Convergence criterion met
 Total energy in the final basis set =     -517.2904610487
    9    -517.2815534691      6.64e-07  Convergence criterion met
 Total energy in the final basis set =     -517.2815534691
    9    -517.2814584926      7.14e-07  Convergence criterion met
 Total energy in the final basis set =     -517.2814584926
    9    -517.2814785457      6.99e-07  Convergence criterion met
 Total energy in the final basis set =     -517.2814785457
    9    -517.2814796038      6.97e-07  Convergence criterion met
 Total energy in the final basis set =     -517.2814796038

             Standard Nuclear Orientation (Angstroms)
    I     Atom           X                Y                Z
 ----------------------------------------------------------------
    1      S       2.6637784706     0.3597638784    -0.0131242078
    2      C      -0.7017380620     0.4533759443    -0.0026119865
    3      C       0.2772516646    -0.6719725633    -0.0100008149
    4      C      -2.1462182747    -0.1037302676     0.0227114289
    5      H      -0.5358168459     1.0874304974     0.8725797117
    6      H      -0.5699871220     1.0776653860    -0.8913466167
    7      H       0.4224314715    -1.2352088695     0.9067326151
    8      H       0.4027823205    -1.2512983301    -0.9196415009
    9      H      -2.3228326257    -0.7157071875     0.9126765993
   10      H      -2.8624537914     0.7236086995     0.0342217300
   11      H      -2.3542192035    -0.7183356552    -0.8587521742
   12      H       2.4396239979     0.8982084675    -1.2304427840
 ----------------------------------------------------------------

    9    -517.2814798484      6.96e-07  Convergence criterion met
 Total energy in the final basis set =     -517.2814798484

                    Orbital Energies (a.u.)
 --------------------------------------------------------------

 Alpha MOs
 -- Occupied --
-88.857 -10.258 -10.211 -10.201  -7.915  -5.880  -5.878  -5.870
 -0.810  -0.701  -0.666  -0.607  -0.492  -0.452  -0.420  -0.403
 -0.376  -0.361  -0.358  -0.259  -0.220

 Beta MOs
 -- Occupied --
-88.857 -10.258 -10.211 -10.201  -7.915  -5.880  -5.878  -5.870
 -0.810  -0.701  -0.666  -0.607  -0.492  -0.452  -0.420  -0.403
 -0.376  -0.361  -0.358  -0.259  -0.220

          Ground-State Mulliken Net Atomic Charges

     Atom                 Charge (a.u.)    Spin (a.u.)
  --------------------------------------------------------
      1 S                    -0.291774       0.000000
      2 C                    -0.186224      -0.000000
      3 C                    -0.173625      -0.000000
      4 C                    -0.330978       0.000000
      5 H                     0.139388       0.000000
      6 H                     0.124660      -0.000000
      7 H                     0.156823       0.000000
      8 H                     0.155700      -0.000000
      9 H                     0.116928      -0.000000
     10 H                     0.123925      -0.000000
     11 H                     0.115140       0.000000
     12 H                     0.050036      -0.000000
  --------------------------------------------------------
  Sum of atomic charges =     0.000000

                    Cartesian Multipole Moments
 -----------------------------------------------------------------
    Charge (ESU x 10^10)
                 0.0000
    Dipole Moment (Debye)
         X      -3.7981      Y      -0.6412      Z      -0.7305
       Tot       3.9205
    Quadrupole Moments (Debye-Ang)
        XX     -43.2888     XY      -0.3310     YY     -34.0236
        XZ      -1.7446     YZ      -1.6479     ZZ     -32.3850

 Final energy is   -517.281479848437
 **  OPTIMIZATION CONVERGED  **
 Total job time:  17.72s(wall), 201.15s(cpu)
        *  Thank you very much for using Q-Chem.  Have a nice day.  *
