 Q-Chem 5.1, Q-Chem, Inc., Pleasanton, CA (2018)
 Q-Chem 5.1.1 for Intel X86 EM64T Linux

User input:
--------------------------------------------------------------

$comment
potential surface scanner
$end

$rem
JOBTYPE  PES_SCAN
UNRESTRICTED TRUE
SYM_IGNORE  TRUE
GEOM_OPT_MAX_CYCLES 400
SCF_MAX_CYCLES 400
METHOD   B3LYP
BASIS   6-31G**
PDB_PRINT 2
SCF_CONVERGENCE 6
THRESH 14
SCF_PRINT 1
$end
$molecule
0 1
S 2.126400 0.172600 -0.001000
C -0.602600 0.507000 0.001200
C 0.472000 -0.574500 0.001000
C -1.995800 -0.105100 -0.001200
H -0.500600 1.146800 0.886100
H -0.499900 1.148900 -0.882200
H 0.380400 -1.208800 0.888400
H 0.378500 -1.212800 -0.883500
H -2.152000 -0.728200 0.885200
H -2.755700 0.682700 -0.000800
H -2.150200 -0.725500 -0.889800
H 2.012100 0.800700 -1.180400
$end
$scan
stre 1 3 1.000000 1.001000 0.100000
$end
--------------------------------------------------------------

    9    -517.3385956811      3.60e-07  Convergence criterion met
 Total energy in the final basis set =     -517.3385956811
    9    -517.3254999689      3.81e-07  Convergence criterion met
 Total energy in the final basis set =     -517.3254999689
    9    -517.2819204334      3.99e-07  Convergence criterion met
 Total energy in the final basis set =     -517.2819204334
    8    -517.1998531820      8.37e-07  Convergence criterion met
 Total energy in the final basis set =     -517.1998531820
    8    -517.0739738609      8.89e-07  Convergence criterion met
 Total energy in the final basis set =     -517.0739738609
    9    -516.8564368624      7.66e-07  Convergence criterion met
 Total energy in the final basis set =     -516.8564368624
   10    -516.5485922634      2.28e-07  Convergence criterion met
 Total energy in the final basis set =     -516.5485922634
   10    -516.3699031227      2.93e-07  Convergence criterion met
    9    -516.2979526484      5.13e-07  Convergence criterion met
 Total energy in the final basis set =     -516.2979526484
    9    -516.2979526709      5.13e-07  Convergence criterion met
 Total energy in the final basis set =     -516.2979526709
    9    -516.2979526923      5.13e-07  Convergence criterion met
 Total energy in the final basis set =     -516.2979526923
    9    -516.2979527129      5.13e-07  Convergence criterion met
 Total energy in the final basis set =     -516.2979527129
    9    -516.2979527325      5.13e-07  Convergence criterion met
 Total energy in the final basis set =     -516.2979527325
    9    -516.2979527514      5.13e-07  Convergence criterion met
 Total energy in the final basis set =     -516.2979527514

             Standard Nuclear Orientation (Angstroms)
    I     Atom           X                Y                Z
 ----------------------------------------------------------------
    1      S       2.9188673750    -0.3500309754    -0.4481764261
    2      C      -1.2967743859     0.6965277205     0.4213001345
    3      C       2.3660627935    -1.1595256992    -0.6459778095
    4      C      -2.6511539793     0.0111364967     0.2280674554
    5      H      -1.2648153928     1.2621338346     1.3582504187
    6      H      -1.0829116308     1.3957935209    -0.3937170144
    7      H      -0.4822506644    -0.0356085740     0.4531155842
    8      H       1.7924369493    -1.9870038013    -0.9641892439
    9      H      -2.8583281310    -0.6981186822     1.0361558808
   10      H      -3.4674823047     0.7405992312     0.2123122710
   11      H      -2.6871984740    -0.5432514528    -0.7156399950
   12      H       3.4261478439     0.5711483810    -1.7185012559
 ----------------------------------------------------------------

    9    -516.2979527696      5.14e-07  Convergence criterion met
 Total energy in the final basis set =     -516.2979527696

                    Orbital Energies (a.u.)
 --------------------------------------------------------------

 Alpha MOs
 -- Occupied --
-88.886 -10.206 -10.179 -10.178  -8.016  -5.987  -5.962  -5.959
 -0.930  -0.753  -0.618  -0.552  -0.492  -0.481  -0.436  -0.435
 -0.433  -0.369  -0.345  -0.345  -0.178

 Beta MOs
 -- Occupied --
-88.886 -10.206 -10.179 -10.178  -8.016  -5.987  -5.962  -5.959
 -0.930  -0.753  -0.618  -0.552  -0.492  -0.481  -0.436  -0.435
 -0.433  -0.369  -0.345  -0.345  -0.178

          Ground-State Mulliken Net Atomic Charges

     Atom                 Charge (a.u.)    Spin (a.u.)
  --------------------------------------------------------
      1 S                     0.690763      -0.000000
      2 C                    -0.319739      -0.000000
      3 C                    -0.515265       0.000000
      4 C                    -0.315150      -0.000000
      5 H                     0.109289      -0.000000
      6 H                     0.110064      -0.000000
      7 H                     0.097121       0.000000
      8 H                     0.117940      -0.000000
      9 H                     0.105650       0.000000
     10 H                     0.108521       0.000000
     11 H                     0.104689       0.000000
     12 H                    -0.293883       0.000000
  --------------------------------------------------------
  Sum of atomic charges =     0.000000

                    Cartesian Multipole Moments
 -----------------------------------------------------------------
    Charge (ESU x 10^10)
                 0.0000
    Dipole Moment (Debye)
         X      -1.2485      Y      -1.8431      Z       1.0484
       Tot       2.4607
    Quadrupole Moments (Debye-Ang)
        XX     -38.8495     XY      -5.9012     YY     -31.3736
        XZ       4.6602     YZ       2.8058     ZZ     -36.9627

 Final energy is   -516.297952769623
 **  OPTIMIZATION CONVERGED  **
 Total job time:  398.19s(wall), 4578.32s(cpu)
        *  Thank you very much for using Q-Chem.  Have a nice day.  *
