 Q-Chem 5.1, Q-Chem, Inc., Pleasanton, CA (2018)
 Q-Chem 5.1.1 for Intel X86 EM64T Linux

User input:
--------------------------------------------------------------

$comment
potential surface scanner
$end

$rem
JOBTYPE  PES_SCAN
UNRESTRICTED TRUE
SYM_IGNORE  TRUE
GEOM_OPT_MAX_CYCLES 400
SCF_MAX_CYCLES 400
METHOD   B3LYP
BASIS   6-31G**
PDB_PRINT 2
SCF_CONVERGENCE 6
THRESH 14
SCF_PRINT 1
$end
$molecule
0 3
S 4.034096 0.893902 -0.113393
C -0.983562 0.268663 -0.017855
C -0.082997 -0.920865 -0.034843
C -2.482368 -0.093152 0.115065
H -0.710638 0.931335 0.813637
H -0.850749 0.852356 -0.938877
H 0.298794 -1.346448 0.887374
H 0.081175 -1.481891 -0.949565
H -2.672766 -0.643299 1.042065
H -3.101566 0.810899 0.122502
H -2.809881 -0.721832 -0.719168
H 3.993065 1.354133 -1.383941
$end
$scan
stre 1 3 4.400000 4.401000 0.100000
$end
--------------------------------------------------------------

   10    -517.2241990664      5.03e-07  Convergence criterion met
 Total energy in the final basis set =     -517.2241990664
   10    -517.2236584083      5.03e-07  Convergence criterion met
 Total energy in the final basis set =     -517.2236584083
   10    -517.2240096642      5.00e-07  Convergence criterion met
 Total energy in the final basis set =     -517.2240096642
   10    -517.2241463395      4.97e-07  Convergence criterion met
 Total energy in the final basis set =     -517.2241463395
   10    -517.2241502231      4.97e-07  Convergence criterion met
 Total energy in the final basis set =     -517.2241502231
   10    -517.2241579368      4.97e-07  Convergence criterion met
 Total energy in the final basis set =     -517.2241579368
   10    -517.2241598516      4.96e-07  Convergence criterion met
 Total energy in the final basis set =     -517.2241598516
   10    -517.2241645334      4.96e-07  Convergence criterion met
 Total energy in the final basis set =     -517.2241645334
   10    -517.2241670769      4.96e-07  Convergence criterion met
 Total energy in the final basis set =     -517.2241670769
   10    -517.2241693448      4.96e-07  Convergence criterion met
 Total energy in the final basis set =     -517.2241693448

             Standard Nuclear Orientation (Angstroms)
    I     Atom           X                Y                Z
 ----------------------------------------------------------------
    1      S       3.9466068010     0.8737926058    -0.1108001631
    2      C      -0.9691642960     0.2705903555    -0.0182737069
    3      C      -0.0703389779    -0.9201918985    -0.0348395433
    4      C      -2.4686628412    -0.0887063316     0.1120300481
    5      H      -0.6965300473     0.9317288171     0.8144443069
    6      H      -0.8335091873     0.8548378646    -0.9385283165
    7      H       0.3134287068    -1.3439897499     0.8874067099
    8      H       0.0877484522    -1.4865664751    -0.9473011356
    9      H      -2.6615359031    -0.6386269667     1.0386611631
   10      H      -3.0863187876     0.8164489719     0.1188058334
   11      H      -2.7963480332    -0.7165125319    -0.7228149177
   12      H       3.9472271135     1.3509963389    -1.3757892783
 ----------------------------------------------------------------

   10    -517.2241703412      4.96e-07  Convergence criterion met
 Total energy in the final basis set =     -517.2241703412

                    Orbital Energies (a.u.)
 --------------------------------------------------------------

 Alpha MOs
 -- Occupied --
-88.909 -10.182 -10.181 -10.174  -7.971  -5.942  -5.932  -5.923
 -0.775  -0.737  -0.669  -0.575  -0.457  -0.424  -0.411  -0.389
 -0.374  -0.345  -0.328  -0.319  -0.271  -0.193

 Beta MOs
 -- Occupied --
-88.904 -10.183 -10.172 -10.167  -7.965  -5.929  -5.924  -5.920
 -0.765  -0.697  -0.650  -0.561  -0.453  -0.418  -0.398  -0.383
 -0.363  -0.340  -0.326  -0.256

          Ground-State Mulliken Net Atomic Charges

     Atom                 Charge (a.u.)    Spin (a.u.)
  --------------------------------------------------------
      1 S                    -0.072806       1.029549
      2 C                    -0.188369      -0.074137
      3 C                    -0.213067       1.079123
      4 C                    -0.307176       0.049310
      5 H                     0.101983       0.010948
      6 H                     0.099601       0.015936
      7 H                     0.101616      -0.048029
      8 H                     0.097450      -0.047897
      9 H                     0.105176      -0.000289
     10 H                     0.098929       0.013594
     11 H                     0.104021      -0.000645
     12 H                     0.072641      -0.027463
  --------------------------------------------------------
  Sum of atomic charges =     0.000000

                    Cartesian Multipole Moments
 -----------------------------------------------------------------
    Charge (ESU x 10^10)
                -0.0000
    Dipole Moment (Debye)
         X      -0.1585      Y       0.4314      Z      -0.9380
       Tot       1.0446
    Quadrupole Moments (Debye-Ang)
        XX     -36.6208     XY       0.0035     YY     -33.2031
        XZ      -4.0443     YZ      -1.2843     ZZ     -31.7896

 Final energy is   -517.224170341227
 **  OPTIMIZATION CONVERGED  **
 Total job time:  33.13s(wall), 378.59s(cpu)
        *  Thank you very much for using Q-Chem.  Have a nice day.  *
