 Q-Chem 5.1, Q-Chem, Inc., Pleasanton, CA (2018)
 Q-Chem 5.1.1 for Intel X86 EM64T Linux

User input:
--------------------------------------------------------------

$comment
potential surface scanner
$end

$rem
JOBTYPE  PES_SCAN
UNRESTRICTED TRUE
SYM_IGNORE  TRUE
GEOM_OPT_MAX_CYCLES 400
SCF_MAX_CYCLES 400
METHOD   B3LYP
BASIS   6-31G**
PDB_PRINT 2
SCF_CONVERGENCE 6
THRESH 14
SCF_PRINT 1
$end
$molecule
0 1
S 3.762043 0.740715 -0.115450
C -0.915427 0.336405 0.002629
C -0.024389 -0.828198 -0.008473
C -2.410712 -0.123732 0.081419
H -0.707439 0.972021 0.869435
H -0.787617 0.931041 -0.907566
H 0.298050 -1.298188 0.914779
H 0.234328 -1.333790 -0.933105
H -2.598575 -0.700147 0.990534
H -3.048677 0.764904 0.093664
H -2.681529 -0.735360 -0.782625
H 3.592549 1.178132 -1.382234
$end
$scan
stre 1 3 4.200000 4.201000 0.100000
$end
--------------------------------------------------------------

   18    -517.2011542657      9.42e-07  Convergence criterion met
 Total energy in the final basis set =     -517.2011542657
   16    -517.1984578847      5.79e-07  Convergence criterion met
 Total energy in the final basis set =     -517.1984578847
   14    -517.1985069006      1.45e-07  Convergence criterion met
 Total energy in the final basis set =     -517.1985069006
   11    -517.1985787595      9.12e-07  Convergence criterion met
 Total energy in the final basis set =     -517.1985787595
   14    -517.1985854194      8.46e-07  Convergence criterion met
 Total energy in the final basis set =     -517.1985854194
   15    -517.1986000801      5.78e-07  Convergence criterion met
 Total energy in the final basis set =     -517.1986000801
   15    -517.1986035832      5.76e-07  Convergence criterion met
 Total energy in the final basis set =     -517.1986035832
   17    -517.1986074240      3.47e-07  Convergence criterion met
   12    -517.1986127848      5.36e-07  Convergence criterion met
 Total energy in the final basis set =     -517.1986127848
   12    -517.1986150022      4.55e-07  Convergence criterion met
 Total energy in the final basis set =     -517.1986150022
   14    -517.1986178294      5.54e-07  Convergence criterion met
 Total energy in the final basis set =     -517.1986178294
   17    -517.1986215401      8.37e-07  Convergence criterion met
 Total energy in the final basis set =     -517.1986215401
   16    -517.1986250124      4.45e-07  Convergence criterion met
 Total energy in the final basis set =     -517.1986250124
   16    -517.1986264303      6.18e-07  Convergence criterion met
 Total energy in the final basis set =     -517.1986264303

             Standard Nuclear Orientation (Angstroms)
    I     Atom           X                Y                Z
 ----------------------------------------------------------------
    1      S       3.8340750029     0.7695350787    -0.1201533534
    2      C      -0.9295545088     0.3269758947    -0.0005025908
    3      C      -0.0433820287    -0.8408596005    -0.0108152640
    4      C      -2.4275837546    -0.1236572329     0.0880414149
    5      H      -0.7147237995     0.9652886957     0.8629148225
    6      H      -0.8037439861     0.9173714819    -0.9138204164
    7      H       0.2812620037    -1.3084326195     0.9129744462
    8      H       0.2163840564    -1.3465040700    -0.9351615064
    9      H      -2.6139115247    -0.6952454405     1.0004740439
   10      H      -3.0597276049     0.7691386571     0.0999729970
   11      H      -2.7063096562    -0.7370532063    -0.7721626289
   12      H       3.6798208006     1.2072453615    -1.3887549645
 ----------------------------------------------------------------

   16    -517.1986267741      6.71e-07  Convergence criterion met
 Total energy in the final basis set =     -517.1986267741

                    Orbital Energies (a.u.)
 --------------------------------------------------------------

 Alpha MOs
 -- Occupied --
-88.831 -10.278 -10.235 -10.224  -7.891  -5.854  -5.854  -5.845
 -0.833  -0.719  -0.645  -0.627  -0.518  -0.479  -0.443  -0.418
 -0.400  -0.381  -0.338  -0.203  -0.197

 Beta MOs
 -- Occupied --
-88.831 -10.278 -10.235 -10.224  -7.891  -5.854  -5.854  -5.845
 -0.833  -0.719  -0.645  -0.627  -0.518  -0.479  -0.443  -0.418
 -0.400  -0.381  -0.338  -0.203  -0.197

          Ground-State Mulliken Net Atomic Charges

     Atom                 Charge (a.u.)    Spin (a.u.)
  --------------------------------------------------------
      1 S                    -0.388808       0.000000
      2 C                    -0.222360       0.000000
      3 C                    -0.131557      -0.000000
      4 C                    -0.327411      -0.000000
      5 H                     0.154065      -0.000000
      6 H                     0.147192      -0.000000
      7 H                     0.169651       0.000000
      8 H                     0.166773       0.000000
      9 H                     0.128490      -0.000000
     10 H                     0.135910      -0.000000
     11 H                     0.127611      -0.000000
     12 H                     0.040443      -0.000000
  --------------------------------------------------------
  Sum of atomic charges =    -0.000000

                    Cartesian Multipole Moments
 -----------------------------------------------------------------
    Charge (ESU x 10^10)
                -0.0000
    Dipole Moment (Debye)
         X      -7.2946      Y      -1.6567      Z      -0.5995
       Tot       7.5044
    Quadrupole Moments (Debye-Ang)
        XX     -56.6140     XY      -3.6505     YY     -34.6215
        XZ      -2.1183     YZ      -1.6190     ZZ     -31.7663

 Final energy is   -517.198626774121
 **  OPTIMIZATION CONVERGED  **
 Total job time:  72.11s(wall), 727.95s(cpu)
        *  Thank you very much for using Q-Chem.  Have a nice day.  *
