 Q-Chem 5.1, Q-Chem, Inc., Pleasanton, CA (2018)
 Q-Chem 5.1.1 for Intel X86 EM64T Linux

User input:
--------------------------------------------------------------

$comment
potential surface scanner
$end

$rem
JOBTYPE  PES_SCAN
UNRESTRICTED TRUE
SYM_IGNORE  TRUE
GEOM_OPT_MAX_CYCLES 400
SCF_MAX_CYCLES 400
METHOD   B3LYP
BASIS   6-31G**
PDB_PRINT 2
SCF_CONVERGENCE 6
THRESH 14
SCF_PRINT 1
$end
$molecule
0 3
S 2.759816 -1.023239 -0.742197
C -0.815724 0.661731 0.148061
C 0.584026 0.072704 -0.181083
C -1.948765 -0.346483 -0.044332
H -0.810318 1.027461 1.182327
H -0.985335 1.539149 -0.488795
H 0.757128 -0.778761 0.485013
H 0.567398 -0.268378 -1.220506
H -1.824453 -1.216172 0.611010
H -2.922328 0.101540 0.180428
H -1.981944 -0.713720 -1.076387
H 1.333102 0.847965 -0.030532
$end
$scan
stre 1 3 2.400000 2.401000 0.100000
$end
--------------------------------------------------------------

   10    -517.2406197950      3.79e-07  Convergence criterion met
 Total energy in the final basis set =     -517.2406197950
    9    -517.2328024882      8.70e-07  Convergence criterion met
 Total energy in the final basis set =     -517.2328024882
    9    -517.2327229320      8.18e-07  Convergence criterion met
 Total energy in the final basis set =     -517.2327229320
    9    -517.2327400314      8.38e-07  Convergence criterion met
 Total energy in the final basis set =     -517.2327400314
    9    -517.2327485126      8.81e-07  Convergence criterion met
 Total energy in the final basis set =     -517.2327485126
    9    -517.2327504338      9.07e-07  Convergence criterion met
 Total energy in the final basis set =     -517.2327504338

             Standard Nuclear Orientation (Angstroms)
    I     Atom           X                Y                Z
 ----------------------------------------------------------------
    1      S       2.6845436218    -0.9927965614    -0.7259847998
    2      C      -0.8066779654     0.6583122914     0.1461820047
    3      C       0.5993792398     0.0650282295    -0.1846007346
    4      C      -1.9401393651    -0.3486241928    -0.0460216196
    5      H      -0.7980730221     1.0238066441     1.1804097228
    6      H      -0.9726873948     1.5356102468    -0.4916009234
    7      H       0.7543860389    -0.7834783389     0.4881359367
    8      H       0.5628731715    -0.2716882620    -1.2241333805
    9      H      -1.8171036121    -1.2183705805     0.6095063204
   10      H      -2.9131790330     0.1005705456     0.1787523443
   11      H      -1.9741866565    -0.7159648851    -1.0780372620
   12      H       1.3334679770     0.8513918633    -0.0296006091
 ----------------------------------------------------------------

    9    -517.2327509219      9.20e-07  Convergence criterion met
 Total energy in the final basis set =     -517.2327509219

                    Orbital Energies (a.u.)
 --------------------------------------------------------------

 Alpha MOs
 -- Occupied --
-88.894 -10.195 -10.195 -10.181  -7.955  -5.924  -5.924  -5.906
 -0.796  -0.726  -0.673  -0.594  -0.473  -0.454  -0.419  -0.405
 -0.360  -0.356  -0.345  -0.297  -0.254  -0.253

 Beta MOs
 -- Occupied --
-88.883 -10.194 -10.193 -10.181  -7.945  -5.904  -5.903  -5.900
 -0.790  -0.704  -0.622  -0.574  -0.469  -0.450  -0.410  -0.399
 -0.355  -0.343  -0.341  -0.229

          Ground-State Mulliken Net Atomic Charges

     Atom                 Charge (a.u.)    Spin (a.u.)
  --------------------------------------------------------
      1 S                    -0.084777       1.859313
      2 C                    -0.191601       0.074187
      3 C                    -0.397695       0.036846
      4 C                    -0.312440      -0.001731
      5 H                     0.105090       0.002286
      6 H                     0.105078       0.002453
      7 H                     0.146918       0.008977
      8 H                     0.147806       0.009029
      9 H                     0.106712       0.000645
     10 H                     0.107283       0.002144
     11 H                     0.106548       0.000690
     12 H                     0.161077       0.005161
  --------------------------------------------------------
  Sum of atomic charges =    -0.000000

                    Cartesian Multipole Moments
 -----------------------------------------------------------------
    Charge (ESU x 10^10)
                 0.0000
    Dipole Moment (Debye)
         X      -1.5758      Y       0.7769      Z       0.4016
       Tot       1.8022
    Quadrupole Moments (Debye-Ang)
        XX     -39.3192     XY       1.2461     YY     -36.0144
        XZ       1.2551     YZ      -1.2572     ZZ     -33.4520

 Final energy is   -517.232750921883
 **  OPTIMIZATION CONVERGED  **
 Total job time:  21.90s(wall), 251.02s(cpu)
        *  Thank you very much for using Q-Chem.  Have a nice day.  *
