 Q-Chem 5.1, Q-Chem, Inc., Pleasanton, CA (2018)
 Q-Chem 5.1.1 for Intel X86 EM64T Linux

User input:
--------------------------------------------------------------

$comment
potential surface scanner
$end

$rem
JOBTYPE  PES_SCAN
UNRESTRICTED TRUE
SYM_IGNORE  TRUE
GEOM_OPT_MAX_CYCLES 400
SCF_MAX_CYCLES 400
METHOD   B3LYP
BASIS   6-31G**
PDB_PRINT 2
SCF_CONVERGENCE 6
THRESH 14
SCF_PRINT 1
$end
$molecule
0 1
S 4.060359 0.853327 -0.125323
C -0.972260 0.304273 -0.011947
C -0.095548 -0.869364 -0.021569
C -2.474846 -0.126603 0.108372
H -0.738375 0.951237 0.840807
H -0.856850 0.883555 -0.933951
H 0.235591 -1.331620 0.902640
H 0.167009 -1.372811 -0.946295
H -2.651069 -0.684786 1.030925
H -3.095502 0.774223 0.120141
H -2.774676 -0.747064 -0.739390
H 3.908771 1.269435 -1.401405
$end
$scan
stre 1 3 4.600000 4.601000 0.100000
$end
--------------------------------------------------------------

   23    -517.1923413947      6.61e-07  Convergence criterion met
 Total energy in the final basis set =     -517.1923413947
   25    -517.1901629364      2.26e-07  Convergence criterion met
 Total energy in the final basis set =     -517.1901629364
   25    -517.1904276291      4.74e-07  Convergence criterion met
 Total energy in the final basis set =     -517.1904276291
   25    -517.1905604296      2.54e-07  Convergence criterion met
 Total energy in the final basis set =     -517.1905604296
   28    -517.1905700202      9.43e-07  Convergence criterion met
 Total energy in the final basis set =     -517.1905700202
   29    -517.1905899077      2.25e-07  Convergence criterion met
 Total energy in the final basis set =     -517.1905899077
   29    -517.1905971104      2.91e-07  Convergence criterion met
 Total energy in the final basis set =     -517.1905971104
   33    -517.1906017536      6.92e-07  Convergence criterion met
   28    -517.1906118965      5.89e-07  Convergence criterion met
 Total energy in the final basis set =     -517.1906118965
   31    -517.1906163428      7.06e-07  Convergence criterion met
 Total energy in the final basis set =     -517.1906163428
   34    -517.1906228878      7.31e-08  Convergence criterion met
 Total energy in the final basis set =     -517.1906228878
   26    -517.1906298704      7.59e-07  Convergence criterion met
 Total energy in the final basis set =     -517.1906298704
   32    -517.1906350546      1.72e-07  Convergence criterion met
 Total energy in the final basis set =     -517.1906350546
   34    -517.1906371201      5.95e-07  Convergence criterion met
 Total energy in the final basis set =     -517.1906371201

             Standard Nuclear Orientation (Angstroms)
    I     Atom           X                Y                Z
 ----------------------------------------------------------------
    1      S       4.1264389083     0.8811357086    -0.1333052397
    2      C      -0.9907169239     0.2925638137    -0.0169892061
    3      C      -0.1195763974    -0.8851043590    -0.0249231785
    4      C      -2.4955340664    -0.1265655579     0.1174999329
    5      H      -0.7469290526     0.9426479643     0.8308468604
    6      H      -0.8783943775     0.8651973150    -0.9435728305
    7      H       0.2179924585    -1.3402465459     0.9005919439
    8      H       0.1386432498    -1.3945529367    -0.9475964045
    9      H      -2.6681065191    -0.6794410252     1.0439289760
   10      H      -3.1093503412     0.7789161563     0.1304427900
   11      H      -2.8067541947    -0.7485763450    -0.7249930045
   12      H       4.0448912562     1.3178278117    -1.4089256394
 ----------------------------------------------------------------

   35    -517.1906376866      9.43e-07  Convergence criterion met
 Total energy in the final basis set =     -517.1906376866

                    Orbital Energies (a.u.)
 --------------------------------------------------------------

 Alpha MOs
 -- Occupied --
-88.828 -10.276 -10.237 -10.225  -7.888  -5.852  -5.851  -5.843
 -0.834  -0.720  -0.643  -0.628  -0.519  -0.480  -0.444  -0.419
 -0.401  -0.382  -0.336  -0.198  -0.195

 Beta MOs
 -- Occupied --
-88.828 -10.276 -10.237 -10.225  -7.888  -5.852  -5.851  -5.843
 -0.834  -0.720  -0.643  -0.628  -0.519  -0.480  -0.444  -0.419
 -0.401  -0.382  -0.336  -0.198  -0.195

          Ground-State Mulliken Net Atomic Charges

     Atom                 Charge (a.u.)    Spin (a.u.)
  --------------------------------------------------------
      1 S                    -0.380141      -0.000024
      2 C                    -0.222564       0.000000
      3 C                    -0.137368       0.000021
      4 C                    -0.324990       0.000002
      5 H                     0.153346       0.000000
      6 H                     0.145927       0.000000
      7 H                     0.167541      -0.000000
      8 H                     0.165051      -0.000000
      9 H                     0.128801       0.000000
     10 H                     0.135531       0.000000
     11 H                     0.128156       0.000000
     12 H                     0.040711       0.000000
  --------------------------------------------------------
  Sum of atomic charges =     0.000000

                    Cartesian Multipole Moments
 -----------------------------------------------------------------
    Charge (ESU x 10^10)
                -0.0000
    Dipole Moment (Debye)
         X      -7.7442      Y      -1.8445      Z      -0.5978
       Tot       7.9832
    Quadrupole Moments (Debye-Ang)
        XX     -59.7622     XY      -4.5428     YY     -34.8916
        XZ      -2.3347     YZ      -1.6169     ZZ     -31.7050

 Final energy is   -517.190637686557
 **  OPTIMIZATION CONVERGED  **
 Total job time:  119.66s(wall), 1339.43s(cpu)
        *  Thank you very much for using Q-Chem.  Have a nice day.  *
