 Q-Chem 5.1, Q-Chem, Inc., Pleasanton, CA (2018)
 Q-Chem 5.1.1 for Intel X86 EM64T Linux

User input:
--------------------------------------------------------------

$comment
potential surface scanner
$end

$rem
JOBTYPE  PES_SCAN
UNRESTRICTED TRUE
SYM_IGNORE  TRUE
GEOM_OPT_MAX_CYCLES 400
SCF_MAX_CYCLES 400
METHOD   B3LYP
BASIS   6-31G**
PDB_PRINT 2
SCF_CONVERGENCE 6
THRESH 14
SCF_PRINT 1
$end
$molecule
0 3
S 3.699885 0.813178 -0.107068
C -0.918440 0.283322 -0.002848
C -0.020280 -0.908059 -0.019188
C -2.420638 -0.076520 0.088558
H -0.663320 0.931827 0.845003
H -0.762859 0.881671 -0.911055
H 0.358972 -1.336404 0.902592
H 0.139562 -1.469806 -0.934267
H -2.634705 -0.639037 1.002897
H -3.038171 0.828754 0.093547
H -2.729406 -0.692741 -0.762032
H 3.702004 1.287617 -1.373137
$end
$scan
stre 1 3 4.000000 4.001000 0.100000
$end
--------------------------------------------------------------

   10    -517.2240168438      5.08e-07  Convergence criterion met
 Total energy in the final basis set =     -517.2240168438
   10    -517.2234103294      5.23e-07  Convergence criterion met
 Total energy in the final basis set =     -517.2234103294
   10    -517.2237575541      5.20e-07  Convergence criterion met
 Total energy in the final basis set =     -517.2237575541
   10    -517.2238934266      5.17e-07  Convergence criterion met
 Total energy in the final basis set =     -517.2238934266
   10    -517.2238994288      5.17e-07  Convergence criterion met
 Total energy in the final basis set =     -517.2238994288
   10    -517.2239095448      5.16e-07  Convergence criterion met
 Total energy in the final basis set =     -517.2239095448
   10    -517.2239125855      5.15e-07  Convergence criterion met
 Total energy in the final basis set =     -517.2239125855
   10    -517.2239204757      5.13e-07  Convergence criterion met
 Total energy in the final basis set =     -517.2239204757
   10    -517.2239237624      5.12e-07  Convergence criterion met
 Total energy in the final basis set =     -517.2239237624
   10    -517.2239254929      5.12e-07  Convergence criterion met
 Total energy in the final basis set =     -517.2239254929

             Standard Nuclear Orientation (Angstroms)
    I     Atom           X                Y                Z
 ----------------------------------------------------------------
    1      S       3.6289059223     0.7808126910    -0.0990333305
    2      C      -0.9100018643     0.2916717016    -0.0030719098
    3      C      -0.0031721431    -0.8931041719    -0.0214778901
    4      C      -2.4097348708    -0.0781932902     0.0865544777
    5      H      -0.6593849774     0.9400773433     0.8461735056
    6      H      -0.7574972193     0.8927050515    -0.9100545221
    7      H       0.3813746552    -1.3191623303     0.8991038710
    8      H       0.1614811614    -1.4517236731    -0.9376003872
    9      H      -2.6206522987    -0.6446785151     0.9991768797
   10      H      -3.0332045531     0.8229982251     0.0936957180
   11      H      -2.7141312007    -0.6939817568    -0.7659462733
   12      H       3.6486213885     1.2563807250    -1.3645181391
 ----------------------------------------------------------------

   10    -517.2239260006      5.11e-07  Convergence criterion met
 Total energy in the final basis set =     -517.2239260006

                    Orbital Energies (a.u.)
 --------------------------------------------------------------

 Alpha MOs
 -- Occupied --
-88.909 -10.181 -10.180 -10.173  -7.970  -5.942  -5.932  -5.922
 -0.774  -0.736  -0.668  -0.574  -0.457  -0.423  -0.411  -0.388
 -0.373  -0.345  -0.328  -0.319  -0.271  -0.191

 Beta MOs
 -- Occupied --
-88.903 -10.182 -10.172 -10.166  -7.965  -5.928  -5.924  -5.919
 -0.764  -0.696  -0.650  -0.560  -0.452  -0.417  -0.397  -0.383
 -0.362  -0.339  -0.325  -0.256

          Ground-State Mulliken Net Atomic Charges

     Atom                 Charge (a.u.)    Spin (a.u.)
  --------------------------------------------------------
      1 S                    -0.072202       1.032572
      2 C                    -0.188302      -0.074014
      3 C                    -0.208380       1.076198
      4 C                    -0.307385       0.048814
      5 H                     0.101333       0.010094
      6 H                     0.098864       0.017092
      7 H                     0.100899      -0.048057
      8 H                     0.095929      -0.047841
      9 H                     0.105024      -0.000191
     10 H                     0.098482       0.013604
     11 H                     0.103600      -0.000701
     12 H                     0.072138      -0.027570
  --------------------------------------------------------
  Sum of atomic charges =    -0.000000

                    Cartesian Multipole Moments
 -----------------------------------------------------------------
    Charge (ESU x 10^10)
                -0.0000
    Dipole Moment (Debye)
         X      -0.1203      Y       0.4247      Z      -0.9347
       Tot       1.0337
    Quadrupole Moments (Debye-Ang)
        XX     -36.5509     XY      -0.0955     YY     -33.2860
        XZ      -3.7890     YZ      -1.2031     ZZ     -31.8298

 Final energy is   -517.223926000552
 **  OPTIMIZATION CONVERGED  **
 Total job time:  38.67s(wall), 389.06s(cpu)
        *  Thank you very much for using Q-Chem.  Have a nice day.  *
