 Q-Chem 5.1, Q-Chem, Inc., Pleasanton, CA (2018)
 Q-Chem 5.1.1 for Intel X86 EM64T Linux

User input:
--------------------------------------------------------------

$comment
potential surface scanner
$end

$rem
JOBTYPE  PES_SCAN
UNRESTRICTED TRUE
SYM_IGNORE  TRUE
GEOM_OPT_MAX_CYCLES 400
SCF_MAX_CYCLES 400
METHOD   B3LYP
BASIS   6-31G**
PDB_PRINT 2
SCF_CONVERGENCE 6
THRESH 14
SCF_PRINT 1
$end
$molecule
0 3
S 3.154485 0.962492 -0.360365
C -0.719648 0.433164 -0.037980
C 0.281683 -0.657411 -0.246668
C -2.164017 -0.107315 0.083660
H -0.476934 0.996233 0.871585
H -0.677676 1.145826 -0.870585
H 0.568578 -1.286290 0.593718
H 0.382961 -1.110972 -1.230439
H -2.256370 -0.798726 0.927145
H -2.868751 0.715928 0.241038
H -2.463234 -0.641820 -0.823357
H 1.951529 0.252689 -0.324747
$end
$scan
stre 1 3 3.200000 3.201000 0.100000
$end
--------------------------------------------------------------

   10    -517.2283706986      4.49e-07  Convergence criterion met
 Total energy in the final basis set =     -517.2283706986
   10    -517.2270252328      3.37e-07  Convergence criterion met
 Total energy in the final basis set =     -517.2270252328
   10    -517.2277359904      5.57e-07  Convergence criterion met
 Total energy in the final basis set =     -517.2277359904
   10    -517.2281982606      6.72e-07  Convergence criterion met
 Total energy in the final basis set =     -517.2281982606
   10    -517.2282623352      6.79e-07  Convergence criterion met
 Total energy in the final basis set =     -517.2282623352
   10    -517.2282765207      6.83e-07  Convergence criterion met
 Total energy in the final basis set =     -517.2282765207
   10    -517.2282806722      6.85e-07  Convergence criterion met
 Total energy in the final basis set =     -517.2282806722
   10    -517.2282825645      6.86e-07  Convergence criterion met
 Total energy in the final basis set =     -517.2282825645

             Standard Nuclear Orientation (Angstroms)
    I     Atom           X                Y                Z
 ----------------------------------------------------------------
    1      S       3.0928307752     0.9357487767    -0.3552485871
    2      C      -0.7056423618     0.4474522142    -0.0379267487
    3      C       0.3069350247    -0.6349661840    -0.2473601016
    4      C      -2.1428837335    -0.1098571865     0.0812356022
    5      H      -0.4680209623     1.0113721673     0.8721875158
    6      H      -0.6687622243     1.1612157976    -0.8696301305
    7      H       0.5715612637    -1.2760948797     0.5919756892
    8      H       0.3844851183    -1.1023897351    -1.2275445568
    9      H      -2.2291620808    -0.8023707845     0.9245207759
   10      H      -2.8568880598     0.7054207771     0.2378812381
   11      H      -2.4353394659    -0.6471283359    -0.8264092581
   12      H       1.8634927063     0.2153953727    -0.3206764384
 ----------------------------------------------------------------

   10    -517.2282831761      6.86e-07  Convergence criterion met
 Total energy in the final basis set =     -517.2282831761

                    Orbital Energies (a.u.)
 --------------------------------------------------------------

 Alpha MOs
 -- Occupied --
-88.887 -10.215 -10.201 -10.190  -7.948  -5.919  -5.910  -5.900
 -0.799  -0.716  -0.687  -0.598  -0.479  -0.445  -0.413  -0.408
 -0.379  -0.363  -0.347  -0.301  -0.254  -0.223

 Beta MOs
 -- Occupied --
-88.880 -10.203 -10.201 -10.189  -7.942  -5.903  -5.901  -5.897
 -0.788  -0.682  -0.656  -0.588  -0.475  -0.437  -0.404  -0.393
 -0.364  -0.357  -0.346  -0.237

          Ground-State Mulliken Net Atomic Charges

     Atom                 Charge (a.u.)    Spin (a.u.)
  --------------------------------------------------------
      1 S                    -0.101055       1.213651
      2 C                    -0.179231      -0.053979
      3 C                    -0.258863       0.888536
      4 C                    -0.314143       0.044328
      5 H                     0.116926       0.010069
      6 H                     0.116030       0.008875
      7 H                     0.130564      -0.031746
      8 H                     0.130753      -0.031741
      9 H                     0.110472      -0.001038
     10 H                     0.112145       0.013565
     11 H                     0.110544      -0.000965
     12 H                     0.025859      -0.059555
  --------------------------------------------------------
  Sum of atomic charges =     0.000000

                    Cartesian Multipole Moments
 -----------------------------------------------------------------
    Charge (ESU x 10^10)
                 0.0000
    Dipole Moment (Debye)
         X      -2.4705      Y      -0.9754      Z       0.1390
       Tot       2.6597
    Quadrupole Moments (Debye-Ang)
        XX     -42.5838     XY      -2.4088     YY     -36.1843
        XZ       1.1084     YZ      -0.0227     ZZ     -32.8288

 Final energy is   -517.228283176086
 **  OPTIMIZATION CONVERGED  **
 Total job time:  29.24s(wall), 334.30s(cpu)
        *  Thank you very much for using Q-Chem.  Have a nice day.  *
