 Q-Chem 5.1, Q-Chem, Inc., Pleasanton, CA (2018)
 Q-Chem 5.1.1 for Intel X86 EM64T Linux

User input:
--------------------------------------------------------------

$comment
potential surface scanner
$end

$rem
JOBTYPE  PES_SCAN
UNRESTRICTED TRUE
SYM_IGNORE  TRUE
GEOM_OPT_MAX_CYCLES 400
SCF_MAX_CYCLES 400
METHOD   B3LYP
BASIS   6-31G**
PDB_PRINT 2
SCF_CONVERGENCE 6
THRESH 14
SCF_PRINT 1
$end
$molecule
0 3
S 4.749791 1.154224 -0.186281
C -1.079886 0.223577 -0.011410
C -0.205596 -0.984959 -0.018855
C -2.585734 -0.101636 0.133116
H -0.790400 0.888629 0.814420
H -0.934944 0.797103 -0.936556
H 0.072367 -1.473007 0.910150
H 0.023858 -1.503895 -0.944140
H -2.784785 -0.636149 1.067606
H -3.182177 0.817186 0.133998
H -2.932680 -0.731375 -0.692377
H 4.362791 1.454103 -1.446664
$end
$scan
stre 1 3 5.300000 5.301000 0.100000
$end
--------------------------------------------------------------

   32    -517.2243024387      1.28e-07  Convergence criterion met
 Total energy in the final basis set =     -517.2243024387
   29    -517.2237164456      8.38e-07  Convergence criterion met
 Total energy in the final basis set =     -517.2237164456
   30    -517.2240667285      1.92e-08  Convergence criterion met
 Total energy in the final basis set =     -517.2240667285
   30    -517.2242404280      8.31e-08  Convergence criterion met
 Total energy in the final basis set =     -517.2242404280
   30    -517.2242517711      8.35e-08  Convergence criterion met
 Total energy in the final basis set =     -517.2242517711
   30    -517.2242699098      9.67e-08  Convergence criterion met
 Total energy in the final basis set =     -517.2242699098
   30    -517.2242709950      9.38e-08  Convergence criterion met
 Total energy in the final basis set =     -517.2242709950
   30    -517.2242758892      6.90e-08  Convergence criterion met
 Total energy in the final basis set =     -517.2242758892
   30    -517.2242785162      4.92e-08  Convergence criterion met
 Total energy in the final basis set =     -517.2242785162
   30    -517.2242814737      1.23e-08  Convergence criterion met
 Total energy in the final basis set =     -517.2242814737
   30    -517.2242831076      2.15e-08  Convergence criterion met
 Total energy in the final basis set =     -517.2242831076
   30    -517.2242846396      5.56e-08  Convergence criterion met
 Total energy in the final basis set =     -517.2242846396
   30    -517.2242858989      8.24e-08  Convergence criterion met
 Total energy in the final basis set =     -517.2242858989

             Standard Nuclear Orientation (Angstroms)
    I     Atom           X                Y                Z
 ----------------------------------------------------------------
    1      S       4.6724471419     1.1228095505    -0.1761132031
    2      C      -1.0697788568     0.2294893026    -0.0108592805
    3      C      -0.1914611222    -0.9766805571    -0.0194567502
    4      C      -2.5749375549    -0.1011823507     0.1304837403
    5      H      -0.7830329366     0.8944532287     0.8150832472
    6      H      -0.9260907981     0.8024204726    -0.9363469148
    7      H       0.1051790072    -1.4567525424     0.9078405083
    8      H       0.0287935246    -1.4992774478    -0.9450091554
    9      H      -2.7730822837    -0.6384183121     1.0634011858
   10      H      -3.1747120384     0.8158621787     0.1328719206
   11      H      -2.9182861108    -0.7292893871    -0.6975667470
   12      H       4.3175670277     1.4403668641    -1.4413215511
 ----------------------------------------------------------------

   30    -517.2242868701      9.83e-08  Convergence criterion met
 Total energy in the final basis set =     -517.2242868701

                    Orbital Energies (a.u.)
 --------------------------------------------------------------

 Alpha MOs
 -- Occupied --
-88.910 -10.184 -10.183 -10.175  -7.971  -5.943  -5.933  -5.924
 -0.777  -0.737  -0.671  -0.577  -0.459  -0.425  -0.412  -0.390
 -0.376  -0.347  -0.330  -0.320  -0.272  -0.196

 Beta MOs
 -- Occupied --
-88.904 -10.185 -10.174 -10.169  -7.966  -5.929  -5.925  -5.920
 -0.767  -0.698  -0.652  -0.563  -0.455  -0.419  -0.398  -0.385
 -0.364  -0.341  -0.328  -0.257

          Ground-State Mulliken Net Atomic Charges

     Atom                 Charge (a.u.)    Spin (a.u.)
  --------------------------------------------------------
      1 S                    -0.073373       1.027554
      2 C                    -0.188661      -0.074321
      3 C                    -0.217993       1.081023
      4 C                    -0.307018       0.049688
      5 H                     0.103311       0.015630
      6 H                     0.099189       0.011176
      7 H                     0.101803      -0.047818
      8 H                     0.099227      -0.048025
      9 H                     0.105431      -0.000672
     10 H                     0.099795       0.013481
     11 H                     0.104932      -0.000321
     12 H                     0.073358      -0.027395
  --------------------------------------------------------
  Sum of atomic charges =     0.000000

                    Cartesian Multipole Moments
 -----------------------------------------------------------------
    Charge (ESU x 10^10)
                 0.0000
    Dipole Moment (Debye)
         X      -0.4697      Y       0.3138      Z      -0.9500
       Tot       1.1053
    Quadrupole Moments (Debye-Ang)
        XX     -38.8907     XY      -0.8322     YY     -33.5438
        XZ      -3.8880     YZ      -1.1492     ZZ     -31.6062

 Final energy is   -517.224286870127
 **  OPTIMIZATION CONVERGED  **
 Total job time:  89.89s(wall), 1055.68s(cpu)
        *  Thank you very much for using Q-Chem.  Have a nice day.  *
