 Q-Chem 5.1, Q-Chem, Inc., Pleasanton, CA (2018)
 Q-Chem 5.1.1 for Intel X86 EM64T Linux

User input:
--------------------------------------------------------------

$comment
potential surface scanner
$end

$rem
JOBTYPE  PES_SCAN
UNRESTRICTED TRUE
SYM_IGNORE  TRUE
GEOM_OPT_MAX_CYCLES 400
SCF_MAX_CYCLES 400
METHOD   B3LYP
BASIS   6-31G**
PDB_PRINT 2
SCF_CONVERGENCE 6
THRESH 14
SCF_PRINT 1
$end
$molecule
0 1
S 3.232604 0.572756 -0.041998
C -0.811938 0.390496 -0.008296
C 0.105287 -0.761183 -0.019778
C -2.288118 -0.113652 0.058381
H -0.618272 1.024137 0.861980
H -0.686385 0.994662 -0.911296
H 0.373770 -1.265543 0.902069
H 0.350331 -1.274405 -0.943291
H -2.466307 -0.701983 0.962461
H -2.956727 0.752241 0.073460
H -2.539209 -0.727943 -0.810406
H 3.017564 1.014216 -1.300282
$end
$scan
stre 1 3 3.500000 3.501000 0.100000
$end
--------------------------------------------------------------

   11    -517.2269410557      6.38e-07  Convergence criterion met
 Total energy in the final basis set =     -517.2269410557
   12    -517.2220071641      3.12e-07  Convergence criterion met
 Total energy in the final basis set =     -517.2220071641
   12    -517.2220269664      3.20e-07  Convergence criterion met
 Total energy in the final basis set =     -517.2220269664
   12    -517.2221574578      3.17e-07  Convergence criterion met
 Total energy in the final basis set =     -517.2221574578
   12    -517.2221637281      3.17e-07  Convergence criterion met
 Total energy in the final basis set =     -517.2221637281
   12    -517.2221791694      3.19e-07  Convergence criterion met
 Total energy in the final basis set =     -517.2221791694
   12    -517.2221850145      3.21e-07  Convergence criterion met
 Total energy in the final basis set =     -517.2221850145
   12    -517.2221916705      3.22e-07  Convergence criterion met
   12    -517.2221966935      3.22e-07  Convergence criterion met
 Total energy in the final basis set =     -517.2221966935
   12    -517.2222009032      3.21e-07  Convergence criterion met
 Total energy in the final basis set =     -517.2222009032
   12    -517.2222031984      3.20e-07  Convergence criterion met
 Total energy in the final basis set =     -517.2222031984
   12    -517.2222048030      3.20e-07  Convergence criterion met
 Total energy in the final basis set =     -517.2222048030
   12    -517.2222062039      3.20e-07  Convergence criterion met
 Total energy in the final basis set =     -517.2222062039
   12    -517.2222072323      3.20e-07  Convergence criterion met
 Total energy in the final basis set =     -517.2222072323

             Standard Nuclear Orientation (Angstroms)
    I     Atom           X                Y                Z
 ----------------------------------------------------------------
    1      S       3.3047810736     0.6005507453    -0.0506316548
    2      C      -0.8254192612     0.3815548414    -0.0066636386
    3      C       0.0857984076    -0.7731714686    -0.0184354665
    4      C      -2.3055551293    -0.1140805668     0.0614495269
    5      H      -0.6286901016     1.0151095251     0.8631265931
    6      H      -0.6989854044     0.9839505515    -0.9109265731
    7      H       0.3673320785    -1.2706508209     0.9035750761
    8      H       0.3333475891    -1.2856138228    -0.9422424333
    9      H      -2.4864993971    -0.7003896835     0.9661620812
   10      H      -2.9679778668     0.7565247682     0.0758295920
   11      H      -2.5601156334    -0.7274483158    -0.8068535651
   12      H       3.0945836451     1.0374632469    -1.3113855377
 ----------------------------------------------------------------

   12    -517.2222076960      3.21e-07  Convergence criterion met
 Total energy in the final basis set =     -517.2222076960

                    Orbital Energies (a.u.)
 --------------------------------------------------------------

 Alpha MOs
 -- Occupied --
-88.838 -10.277 -10.229 -10.219  -7.897  -5.861  -5.860  -5.852
 -0.828  -0.713  -0.650  -0.622  -0.512  -0.473  -0.438  -0.414
 -0.395  -0.376  -0.343  -0.216  -0.202

 Beta MOs
 -- Occupied --
-88.838 -10.277 -10.229 -10.219  -7.897  -5.861  -5.860  -5.852
 -0.828  -0.713  -0.650  -0.622  -0.512  -0.473  -0.438  -0.414
 -0.395  -0.376  -0.343  -0.216  -0.202

          Ground-State Mulliken Net Atomic Charges

     Atom                 Charge (a.u.)    Spin (a.u.)
  --------------------------------------------------------
      1 S                    -0.392403      -0.000000
      2 C                    -0.217594       0.000000
      3 C                    -0.119564       0.000000
      4 C                    -0.332131       0.000000
      5 H                     0.154818       0.000000
      6 H                     0.144139       0.000000
      7 H                     0.169892      -0.000000
      8 H                     0.166381      -0.000000
      9 H                     0.126085      -0.000000
     10 H                     0.134599       0.000000
     11 H                     0.124794      -0.000000
     12 H                     0.040983       0.000000
  --------------------------------------------------------
  Sum of atomic charges =    -0.000000

                    Cartesian Multipole Moments
 -----------------------------------------------------------------
    Charge (ESU x 10^10)
                 0.0000
    Dipole Moment (Debye)
         X      -6.1557      Y      -1.3303      Z      -0.7105
       Tot       6.3378
    Quadrupole Moments (Debye-Ang)
        XX     -50.6101     XY      -2.1930     YY     -34.2588
        XZ      -2.0820     YZ      -1.5829     ZZ     -31.9363

 Final energy is   -517.222207695981
 **  OPTIMIZATION CONVERGED  **
 Total job time:  51.40s(wall), 591.97s(cpu)
        *  Thank you very much for using Q-Chem.  Have a nice day.  *
