 Q-Chem 5.1, Q-Chem, Inc., Pleasanton, CA (2018)
 Q-Chem 5.1.1 for Intel X86 EM64T Linux

User input:
--------------------------------------------------------------

$comment
potential surface scanner
$end

$rem
JOBTYPE  PES_SCAN
UNRESTRICTED TRUE
SYM_IGNORE  TRUE
GEOM_OPT_MAX_CYCLES 400
SCF_MAX_CYCLES 400
METHOD   B3LYP
BASIS   6-31G**
PDB_PRINT 2
SCF_CONVERGENCE 6
THRESH 14
SCF_PRINT 1
$end
$molecule
0 1
S 3.688806 0.713401 -0.108929
C -0.901566 0.345351 0.004538
C -0.005764 -0.816245 -0.007278
C -2.393978 -0.123446 0.075981
H -0.698688 0.979172 0.873641
H -0.773066 0.943232 -0.903340
H 0.314101 -1.289386 0.915267
H 0.251877 -1.322093 -0.932168
H -2.582670 -0.704022 0.982340
H -3.037424 0.761234 0.088580
H -2.658237 -0.733746 -0.791120
H 3.509211 1.150351 -1.374506
$end
$scan
stre 1 3 4.100000 4.101000 0.100000
$end
--------------------------------------------------------------

   13    -517.2039257882      2.50e-07  Convergence criterion met
 Total energy in the final basis set =     -517.2039257882
   16    -517.2009858058      1.93e-07  Convergence criterion met
 Total energy in the final basis set =     -517.2009858058
   16    -517.2010308607      4.75e-07  Convergence criterion met
 Total energy in the final basis set =     -517.2010308607
   20    -517.2011064837      1.98e-07  Convergence criterion met
 Total energy in the final basis set =     -517.2011064837
   27    -517.2011131611      8.96e-07  Convergence criterion met
 Total energy in the final basis set =     -517.2011131611
   17    -517.2011276359      7.64e-07  Convergence criterion met
 Total energy in the final basis set =     -517.2011276359
   17    -517.2011316090      7.98e-07  Convergence criterion met
 Total energy in the final basis set =     -517.2011316090
   17    -517.2011356339      9.36e-07  Convergence criterion met
   18    -517.2011416361      3.20e-07  Convergence criterion met
 Total energy in the final basis set =     -517.2011416361
   18    -517.2011440447      1.83e-07  Convergence criterion met
 Total energy in the final basis set =     -517.2011440447
   18    -517.2011467883      1.84e-07  Convergence criterion met
 Total energy in the final basis set =     -517.2011467883
   18    -517.2011500683      2.31e-07  Convergence criterion met
 Total energy in the final basis set =     -517.2011500683
   18    -517.2011528744      2.93e-07  Convergence criterion met
 Total energy in the final basis set =     -517.2011528744
   18    -517.2011540347      5.07e-07  Convergence criterion met
 Total energy in the final basis set =     -517.2011540347

             Standard Nuclear Orientation (Angstroms)
    I     Atom           X                Y                Z
 ----------------------------------------------------------------
    1      S       3.7620427130     0.7407147047    -0.1154503188
    2      C      -0.9154270872     0.3364052118     0.0026292481
    3      C      -0.0243894326    -0.8281977813    -0.0084732219
    4      C      -2.4107118504    -0.1237317577     0.0814185506
    5      H      -0.7074390964     0.9720211847     0.8694348153
    6      H      -0.7876173964     0.9310409415    -0.9075659522
    7      H       0.2980495747    -1.2981876788     0.9147789900
    8      H       0.2343278509    -1.3337898868    -0.9331050819
    9      H      -2.5985753757    -0.7001473503     0.9905338351
   10      H      -3.0486773667     0.7649038450     0.0936637989
   11      H      -2.6815294422    -0.7353601588    -0.7826248711
   12      H       3.5925489092     1.1781317259    -1.3822337922
 ----------------------------------------------------------------

   18    -517.2011542664      9.51e-07  Convergence criterion met
 Total energy in the final basis set =     -517.2011542664

                    Orbital Energies (a.u.)
 --------------------------------------------------------------

 Alpha MOs
 -- Occupied --
-88.832 -10.278 -10.235 -10.223  -7.891  -5.855  -5.854  -5.846
 -0.833  -0.718  -0.646  -0.626  -0.517  -0.478  -0.442  -0.417
 -0.399  -0.381  -0.339  -0.204  -0.198

 Beta MOs
 -- Occupied --
-88.832 -10.278 -10.235 -10.223  -7.891  -5.855  -5.854  -5.846
 -0.833  -0.718  -0.646  -0.626  -0.517  -0.478  -0.442  -0.417
 -0.399  -0.381  -0.339  -0.204  -0.198

          Ground-State Mulliken Net Atomic Charges

     Atom                 Charge (a.u.)    Spin (a.u.)
  --------------------------------------------------------
      1 S                    -0.390736      -0.000004
      2 C                    -0.222169      -0.000000
      3 C                    -0.129751       0.000004
      4 C                    -0.328080       0.000000
      5 H                     0.154100       0.000000
      6 H                     0.147359       0.000000
      7 H                     0.170124      -0.000000
      8 H                     0.167059      -0.000000
      9 H                     0.128347       0.000000
     10 H                     0.135933       0.000000
     11 H                     0.127406       0.000000
     12 H                     0.040408       0.000000
  --------------------------------------------------------
  Sum of atomic charges =    -0.000000

                    Cartesian Multipole Moments
 -----------------------------------------------------------------
    Charge (ESU x 10^10)
                -0.0000
    Dipole Moment (Debye)
         X      -7.1697      Y      -1.6051      Z      -0.6034
       Tot       7.3719
    Quadrupole Moments (Debye-Ang)
        XX     -55.8153     XY      -3.4256     YY     -34.5642
        XZ      -2.0779     YZ      -1.6160     ZZ     -31.7831

 Final energy is   -517.201154266351
 **  OPTIMIZATION CONVERGED  **
 Total job time:  67.59s(wall), 792.36s(cpu)
        *  Thank you very much for using Q-Chem.  Have a nice day.  *
