 Q-Chem 5.1, Q-Chem, Inc., Pleasanton, CA (2018)
 Q-Chem 5.1.1 for Intel X86 EM64T Linux

User input:
--------------------------------------------------------------

$comment
potential surface scanner
$end

$rem
JOBTYPE  PES_SCAN
UNRESTRICTED TRUE
SYM_IGNORE  TRUE
GEOM_OPT_MAX_CYCLES 400
SCF_MAX_CYCLES 400
METHOD   B3LYP
BASIS   6-31G**
PDB_PRINT 2
SCF_CONVERGENCE 6
THRESH 14
SCF_PRINT 1
$end
$molecule
0 1
S 3.304781 0.600551 -0.050632
C -0.825419 0.381555 -0.006664
C 0.085798 -0.773171 -0.018435
C -2.305555 -0.114081 0.061450
H -0.628690 1.015110 0.863127
H -0.698985 0.983951 -0.910927
H 0.367332 -1.270651 0.903575
H 0.333348 -1.285614 -0.942242
H -2.486499 -0.700390 0.966162
H -2.967978 0.756525 0.075830
H -2.560116 -0.727448 -0.806854
H 3.094584 1.037463 -1.311386
$end
$scan
stre 1 3 3.600000 3.601000 0.100000
$end
--------------------------------------------------------------

   12    -517.2222076852      3.21e-07  Convergence criterion met
 Total energy in the final basis set =     -517.2222076852
   12    -517.2176701892      9.57e-07  Convergence criterion met
 Total energy in the final basis set =     -517.2176701892
   12    -517.2176954408      9.70e-07  Convergence criterion met
 Total energy in the final basis set =     -517.2176954408
   12    -517.2178151173      9.01e-07  Convergence criterion met
 Total energy in the final basis set =     -517.2178151173
   12    -517.2178213974      8.92e-07  Convergence criterion met
 Total energy in the final basis set =     -517.2178213974
   12    -517.2178365806      8.69e-07  Convergence criterion met
 Total energy in the final basis set =     -517.2178365806
   12    -517.2178418798      8.59e-07  Convergence criterion met
 Total energy in the final basis set =     -517.2178418798
   12    -517.2178477168      8.48e-07  Convergence criterion met
   12    -517.2178521048      8.41e-07  Convergence criterion met
 Total energy in the final basis set =     -517.2178521048
   12    -517.2178560700      8.38e-07  Convergence criterion met
 Total energy in the final basis set =     -517.2178560700
   12    -517.2178585864      8.44e-07  Convergence criterion met
 Total energy in the final basis set =     -517.2178585864
   12    -517.2178606498      8.57e-07  Convergence criterion met
 Total energy in the final basis set =     -517.2178606498
   12    -517.2178624857      8.77e-07  Convergence criterion met
 Total energy in the final basis set =     -517.2178624857
   12    -517.2178637512      8.98e-07  Convergence criterion met
 Total energy in the final basis set =     -517.2178637512

             Standard Nuclear Orientation (Angstroms)
    I     Atom           X                Y                Z
 ----------------------------------------------------------------
    1      S       3.3808465945     0.6238296079    -0.0614961822
    2      C      -0.8404927329     0.3742134881    -0.0046222311
    3      C       0.0670206424    -0.7820609805    -0.0164629752
    4      C      -2.3233453937    -0.1159659167     0.0643911757
    5      H      -0.6424965367     1.0076502046     0.8651649322
    6      H      -0.7135567132     0.9756735266    -0.9096151017
    7      H       0.3576323811    -1.2738960222     0.9058104562
    8      H       0.3180950920    -1.2922999744    -0.9405892354
    9      H      -2.5056754662    -0.7012801994     0.9693612065
   10      H      -2.9816716168     0.7577188498     0.0787816361
   11      H      -2.5801100537    -0.7284507774    -0.8037723379
   12      H       3.1763548033     1.0586681937    -1.3239473432
 ----------------------------------------------------------------

   12    -517.2178642448      9.07e-07  Convergence criterion met
 Total energy in the final basis set =     -517.2178642448

                    Orbital Energies (a.u.)
 --------------------------------------------------------------

 Alpha MOs
 -- Occupied --
-88.837 -10.277 -10.230 -10.220  -7.896  -5.859  -5.859  -5.850
 -0.829  -0.714  -0.649  -0.623  -0.513  -0.474  -0.439  -0.415
 -0.396  -0.377  -0.342  -0.214  -0.201

 Beta MOs
 -- Occupied --
-88.837 -10.277 -10.230 -10.220  -7.896  -5.859  -5.859  -5.850
 -0.829  -0.714  -0.649  -0.623  -0.513  -0.474  -0.439  -0.415
 -0.396  -0.377  -0.342  -0.214  -0.201

          Ground-State Mulliken Net Atomic Charges

     Atom                 Charge (a.u.)    Spin (a.u.)
  --------------------------------------------------------
      1 S                    -0.393959      -0.000000
      2 C                    -0.218984      -0.000000
      3 C                    -0.120636       0.000000
      4 C                    -0.331548      -0.000000
      5 H                     0.154982       0.000000
      6 H                     0.145145       0.000000
      7 H                     0.170305      -0.000000
      8 H                     0.166815      -0.000000
      9 H                     0.126633       0.000000
     10 H                     0.135051       0.000000
     11 H                     0.125420      -0.000000
     12 H                     0.040775       0.000000
  --------------------------------------------------------
  Sum of atomic charges =    -0.000000

                    Cartesian Multipole Moments
 -----------------------------------------------------------------
    Charge (ESU x 10^10)
                 0.0000
    Dipole Moment (Debye)
         X      -6.3509      Y      -1.3815      Z      -0.6929
       Tot       6.5363
    Quadrupole Moments (Debye-Ang)
        XX     -51.4647     XY      -2.3955     YY     -34.3065
        XZ      -2.0881     YZ      -1.5876     ZZ     -31.9028

 Final energy is   -517.217864244784
 **  OPTIMIZATION CONVERGED  **
 Total job time:  50.57s(wall), 585.54s(cpu)
        *  Thank you very much for using Q-Chem.  Have a nice day.  *
