 Q-Chem 5.1, Q-Chem, Inc., Pleasanton, CA (2018)
 Q-Chem 5.1.1 for Intel X86 EM64T Linux

User input:
--------------------------------------------------------------

$comment
potential surface scanner
$end

$rem
JOBTYPE  PES_SCAN
UNRESTRICTED TRUE
SYM_IGNORE  TRUE
GEOM_OPT_MAX_CYCLES 400
SCF_MAX_CYCLES 400
METHOD   B3LYP
BASIS   6-31G**
PDB_PRINT 2
SCF_CONVERGENCE 6
THRESH 14
SCF_PRINT 1
$end
$molecule
0 3
S 4.598166 1.095163 -0.166192
C -1.058729 0.238744 -0.014059
C -0.174780 -0.963562 -0.022502
C -2.561121 -0.102723 0.129848
H -0.775190 0.904971 0.811944
H -0.918659 0.814334 -0.938361
H 0.106991 -1.449972 0.906386
H 0.029209 -1.498537 -0.944953
H -2.753125 -0.642649 1.062559
H -3.168211 0.809488 0.134360
H -2.901631 -0.733352 -0.697539
H 4.289684 1.431896 -1.438484
$end
$scan
stre 1 3 5.100000 5.101000 0.100000
$end
--------------------------------------------------------------

   30    -517.2242577599      2.83e-07  Convergence criterion met
 Total energy in the final basis set =     -517.2242577599
   11    -517.2236608500      9.77e-07  Convergence criterion met
 Total energy in the final basis set =     -517.2236608500
   11    -517.2240206557      9.40e-07  Convergence criterion met
 Total energy in the final basis set =     -517.2240206557
   11    -517.2241969418      8.96e-07  Convergence criterion met
 Total energy in the final basis set =     -517.2241969418
   11    -517.2242090271      8.95e-07  Convergence criterion met
 Total energy in the final basis set =     -517.2242090271
   11    -517.2242328885      8.93e-07  Convergence criterion met
 Total energy in the final basis set =     -517.2242328885
   11    -517.2242354835      8.95e-07  Convergence criterion met
 Total energy in the final basis set =     -517.2242354835
   11    -517.2242486797      9.10e-07  Convergence criterion met
 Total energy in the final basis set =     -517.2242486797
   11    -517.2242561672      9.21e-07  Convergence criterion met
 Total energy in the final basis set =     -517.2242561672
   11    -517.2242620199      9.31e-07  Convergence criterion met
 Total energy in the final basis set =     -517.2242620199
   11    -517.2242640865      9.34e-07  Convergence criterion met
 Total energy in the final basis set =     -517.2242640865
   11    -517.2242653394      9.34e-07  Convergence criterion met
 Total energy in the final basis set =     -517.2242653394

             Standard Nuclear Orientation (Angstroms)
    I     Atom           X                Y                Z
 ----------------------------------------------------------------
    1      S       4.5177928163     1.0620504442    -0.1571857555
    2      C      -1.0505616561     0.2416060731    -0.0127305078
    3      C      -0.1632600977    -0.9578345134    -0.0237237103
    4      C      -2.5532745768    -0.1014766286     0.1280961437
    5      H      -0.7692239075     0.9074625066     0.8142588281
    6      H      -0.9123245724     0.8161521312    -0.9381394789
    7      H       0.1450952649    -1.4313404824     0.9031042666
    8      H       0.0469999259    -1.4871111250    -0.9478845594
    9      H      -2.7467156053    -0.6421656966     1.0599904873
   10      H      -3.1606348465     0.8105005729     0.1316322169
   11      H      -2.8910462412    -0.7314691499    -0.7008265011
   12      H       4.2497574964     1.4174268679    -1.4335844297
 ----------------------------------------------------------------

   11    -517.2242662108      9.32e-07  Convergence criterion met
 Total energy in the final basis set =     -517.2242662108

                    Orbital Energies (a.u.)
 --------------------------------------------------------------

 Alpha MOs
 -- Occupied --
-88.910 -10.184 -10.183 -10.175  -7.971  -5.943  -5.932  -5.923
 -0.777  -0.737  -0.670  -0.577  -0.459  -0.425  -0.412  -0.390
 -0.376  -0.347  -0.330  -0.320  -0.272  -0.196

 Beta MOs
 -- Occupied --
-88.904 -10.185 -10.174 -10.169  -7.966  -5.929  -5.925  -5.920
 -0.767  -0.697  -0.652  -0.563  -0.455  -0.419  -0.398  -0.385
 -0.364  -0.341  -0.328  -0.257

          Ground-State Mulliken Net Atomic Charges

     Atom                 Charge (a.u.)    Spin (a.u.)
  --------------------------------------------------------
      1 S                    -0.073238       1.027688
      2 C                    -0.188865      -0.074196
      3 C                    -0.217524       1.080494
      4 C                    -0.306991       0.049879
      5 H                     0.102660       0.014906
      6 H                     0.099172       0.011726
      7 H                     0.101915      -0.047755
      8 H                     0.099493      -0.047914
      9 H                     0.105476      -0.000628
     10 H                     0.099763       0.013567
     11 H                     0.104946      -0.000377
     12 H                     0.073192      -0.027391
  --------------------------------------------------------
  Sum of atomic charges =    -0.000000

                    Cartesian Multipole Moments
 -----------------------------------------------------------------
    Charge (ESU x 10^10)
                 0.0000
    Dipole Moment (Debye)
         X      -0.4061      Y       0.3311      Z      -0.9589
       Tot       1.0927
    Quadrupole Moments (Debye-Ang)
        XX     -37.7126     XY      -0.8831     YY     -34.0571
        XZ      -4.1918     YZ      -1.3220     ZZ     -31.5830

 Final energy is   -517.224266210839
 **  OPTIMIZATION CONVERGED  **
 Total job time:  44.19s(wall), 506.40s(cpu)
        *  Thank you very much for using Q-Chem.  Have a nice day.  *
