 Q-Chem 5.1, Q-Chem, Inc., Pleasanton, CA (2018)
 Q-Chem 5.1.1 for Intel X86 EM64T Linux

User input:
--------------------------------------------------------------

$comment
potential surface scanner
$end

$rem
JOBTYPE  PES_SCAN
UNRESTRICTED TRUE
SYM_IGNORE  TRUE
GEOM_OPT_MAX_CYCLES 400
SCF_MAX_CYCLES 400
METHOD   B3LYP
BASIS   6-31G**
PDB_PRINT 2
SCF_CONVERGENCE 6
THRESH 14
SCF_PRINT 1
$end
$molecule
0 3
S 3.946607 0.873793 -0.110800
C -0.969164 0.270590 -0.018274
C -0.070339 -0.920192 -0.034840
C -2.468663 -0.088706 0.112030
H -0.696530 0.931729 0.814444
H -0.833509 0.854838 -0.938528
H 0.313429 -1.343990 0.887407
H 0.087748 -1.486566 -0.947301
H -2.661536 -0.638627 1.038661
H -3.086319 0.816449 0.118806
H -2.796348 -0.716513 -0.722815
H 3.947227 1.350996 -1.375789
$end
$scan
stre 1 3 4.300000 4.301000 0.100000
$end
--------------------------------------------------------------

   10    -517.2241703416      4.96e-07  Convergence criterion met
 Total energy in the final basis set =     -517.2241703416
   10    -517.2236017862      5.04e-07  Convergence criterion met
 Total energy in the final basis set =     -517.2236017862
   10    -517.2239657935      5.04e-07  Convergence criterion met
 Total energy in the final basis set =     -517.2239657935
   10    -517.2241044848      5.03e-07  Convergence criterion met
 Total energy in the final basis set =     -517.2241044848
   10    -517.2241098765      5.04e-07  Convergence criterion met
 Total energy in the final basis set =     -517.2241098765
   10    -517.2241180954      5.04e-07  Convergence criterion met
 Total energy in the final basis set =     -517.2241180954
   10    -517.2241200322      5.04e-07  Convergence criterion met
 Total energy in the final basis set =     -517.2241200322
   10    -517.2241258646      5.02e-07  Convergence criterion met
 Total energy in the final basis set =     -517.2241258646
   10    -517.2241284910      5.02e-07  Convergence criterion met
 Total energy in the final basis set =     -517.2241284910
   10    -517.2241300023      5.01e-07  Convergence criterion met
 Total energy in the final basis set =     -517.2241300023

             Standard Nuclear Orientation (Angstroms)
    I     Atom           X                Y                Z
 ----------------------------------------------------------------
    1      S       3.8579940298     0.8556148619    -0.1139989013
    2      C      -0.9527443772     0.2723213000    -0.0139977085
    3      C      -0.0569689878    -0.9208717365    -0.0293596337
    4      C      -2.4539053494    -0.0835408486     0.1056895809
    5      H      -0.6833250753     0.9305325308     0.8220145834
    6      H      -0.8100219750     0.8592097086    -0.9315876366
    7      H       0.3241352213    -1.3465320729     0.8930659425
    8      H       0.0987514114    -1.4871733385    -0.9423185979
    9      H      -2.6542176628    -0.6353584403     1.0296168493
   10      H      -3.0695086920     0.8230249421     0.1105641112
   11      H      -2.7775168342    -0.7085571962    -0.7328510519
   12      H       3.8899312912     1.3451312896    -1.3738365373
 ----------------------------------------------------------------

   10    -517.2241304409      5.01e-07  Convergence criterion met
 Total energy in the final basis set =     -517.2241304409

                    Orbital Energies (a.u.)
 --------------------------------------------------------------

 Alpha MOs
 -- Occupied --
-88.909 -10.182 -10.181 -10.174  -7.971  -5.942  -5.932  -5.923
 -0.775  -0.737  -0.669  -0.575  -0.457  -0.423  -0.411  -0.388
 -0.374  -0.345  -0.328  -0.319  -0.271  -0.192

 Beta MOs
 -- Occupied --
-88.904 -10.183 -10.172 -10.167  -7.965  -5.929  -5.924  -5.919
 -0.765  -0.697  -0.650  -0.561  -0.453  -0.418  -0.398  -0.383
 -0.362  -0.340  -0.326  -0.256

          Ground-State Mulliken Net Atomic Charges

     Atom                 Charge (a.u.)    Spin (a.u.)
  --------------------------------------------------------
      1 S                    -0.072654       1.030082
      2 C                    -0.188374      -0.074093
      3 C                    -0.211859       1.078591
      4 C                    -0.307260       0.049194
      5 H                     0.101784       0.010688
      6 H                     0.099591       0.016221
      7 H                     0.101308      -0.048021
      8 H                     0.097162      -0.047875
      9 H                     0.105106      -0.000265
     10 H                     0.098822       0.013611
     11 H                     0.103906      -0.000664
     12 H                     0.072468      -0.027468
  --------------------------------------------------------
  Sum of atomic charges =     0.000000

                    Cartesian Multipole Moments
 -----------------------------------------------------------------
    Charge (ESU x 10^10)
                 0.0000
    Dipole Moment (Debye)
         X      -0.1298      Y       0.4404      Z      -0.9348
       Tot       1.0414
    Quadrupole Moments (Debye-Ang)
        XX     -36.4442     XY       0.0642     YY     -33.1754
        XZ      -4.0276     YZ      -1.2955     ZZ     -31.8142

 Final energy is   -517.224130440937
 **  OPTIMIZATION CONVERGED  **
 Total job time:  33.08s(wall), 379.26s(cpu)
        *  Thank you very much for using Q-Chem.  Have a nice day.  *
