 Q-Chem 5.1, Q-Chem, Inc., Pleasanton, CA (2018)
 Q-Chem 5.1.1 for Intel X86 EM64T Linux

User input:
--------------------------------------------------------------

$comment
potential surface scanner
$end

$rem
JOBTYPE  PES_SCAN
UNRESTRICTED TRUE
SYM_IGNORE  TRUE
GEOM_OPT_MAX_CYCLES 400
SCF_MAX_CYCLES 400
METHOD   B3LYP
BASIS   6-31G**
PDB_PRINT 2
SCF_CONVERGENCE 6
THRESH 14
SCF_PRINT 1
$end
$molecule
0 1
S 2.126400 0.172600 -0.001000
C -0.602600 0.507000 0.001200
C 0.472000 -0.574500 0.001000
C -1.995800 -0.105100 -0.001200
H -0.500600 1.146800 0.886100
H -0.499900 1.148900 -0.882200
H 0.380400 -1.208800 0.888400
H 0.378500 -1.212800 -0.883500
H -2.152000 -0.728200 0.885200
H -2.755700 0.682700 -0.000800
H -2.150200 -0.725500 -0.889800
H 2.012100 0.800700 -1.180400
$end
$scan
stre 1 3 1.500000 1.501000 0.100000
$end
--------------------------------------------------------------

    9    -517.3385956811      3.60e-07  Convergence criterion met
 Total energy in the final basis set =     -517.3385956811
    9    -517.3254999689      3.81e-07  Convergence criterion met
 Total energy in the final basis set =     -517.3254999689
    9    -517.2819204334      3.99e-07  Convergence criterion met
 Total energy in the final basis set =     -517.2819204334
    9    -517.2735683927      4.25e-07  Convergence criterion met
 Total energy in the final basis set =     -517.2735683927
    9    -517.2747622884      4.72e-07  Convergence criterion met
 Total energy in the final basis set =     -517.2747622884
    9    -517.2749274229      4.85e-07  Convergence criterion met
 Total energy in the final basis set =     -517.2749274229
    9    -517.2749911545      4.91e-07  Convergence criterion met
 Total energy in the final basis set =     -517.2749911545
    9    -517.2750033429      4.92e-07  Convergence criterion met
 Total energy in the final basis set =     -517.2750033429
    9    -517.2750071786      4.92e-07  Convergence criterion met
 Total energy in the final basis set =     -517.2750071786
    9    -517.2750093528      4.92e-07  Convergence criterion met
 Total energy in the final basis set =     -517.2750093528
    9    -517.2750108233      4.91e-07  Convergence criterion met
 Total energy in the final basis set =     -517.2750108233
    9    -517.2750120027      4.91e-07  Convergence criterion met
 Total energy in the final basis set =     -517.2750120027

             Standard Nuclear Orientation (Angstroms)
    I     Atom           X                Y                Z
 ----------------------------------------------------------------
    1      S       1.9758961663     0.0157252859     0.0228423463
    2      C      -0.6099298301     0.5418938426    -0.0116259826
    3      C       0.5633211908    -0.4842588033    -0.0453345587
    4      C      -1.9883185821    -0.1195823968     0.0053868224
    5      H      -0.4775105099     1.1885904509     0.8641865084
    6      H      -0.5147224159     1.1920988455    -0.8922905077
    7      H       0.4094249822    -1.1305860787     0.8344309385
    8      H       0.3290652924    -1.1765389464    -0.8779220330
    9      H      -2.1135380116    -0.7529591373     0.8912469741
   10      H      -2.7892659813     0.6260901309     0.0168585649
   11      H      -2.1377032587    -0.7527671045    -0.8765598079
   12      H       2.0658809580     0.7560939111    -1.1082192648
 ----------------------------------------------------------------

    9    -517.2750128815      4.91e-07  Convergence criterion met
 Total energy in the final basis set =     -517.2750128815

                    Orbital Energies (a.u.)
 --------------------------------------------------------------

 Alpha MOs
 -- Occupied --
-88.859 -10.200 -10.188 -10.180  -7.931  -5.896  -5.891  -5.885
 -0.865  -0.756  -0.637  -0.593  -0.493  -0.451  -0.424  -0.412
 -0.379  -0.353  -0.342  -0.307  -0.221

 Beta MOs
 -- Occupied --
-88.859 -10.200 -10.188 -10.180  -7.931  -5.896  -5.891  -5.885
 -0.865  -0.756  -0.637  -0.593  -0.493  -0.451  -0.424  -0.412
 -0.379  -0.353  -0.342  -0.307  -0.221

          Ground-State Mulliken Net Atomic Charges

     Atom                 Charge (a.u.)    Spin (a.u.)
  --------------------------------------------------------
      1 S                    -0.014674       0.000000
      2 C                    -0.179348       0.000000
      3 C                    -0.304924       0.000000
      4 C                    -0.323524       0.000000
      5 H                     0.109849       0.000000
      6 H                     0.094558       0.000000
      7 H                     0.141814      -0.000000
      8 H                     0.116743       0.000000
      9 H                     0.105003      -0.000000
     10 H                     0.108550       0.000000
     11 H                     0.105369      -0.000000
     12 H                     0.040583      -0.000000
  --------------------------------------------------------
  Sum of atomic charges =     0.000000

                    Cartesian Multipole Moments
 -----------------------------------------------------------------
    Charge (ESU x 10^10)
                 0.0000
    Dipole Moment (Debye)
         X      -1.4687      Y      -0.0580      Z      -0.6578
       Tot       1.6103
    Quadrupole Moments (Debye-Ang)
        XX     -38.0898     XY       0.8216     YY     -33.9449
        XZ      -1.8127     YZ      -1.5188     ZZ     -32.8575

 Final energy is   -517.275012881463
 **  OPTIMIZATION CONVERGED  **
 Total job time:  37.50s(wall), 438.17s(cpu)
        *  Thank you very much for using Q-Chem.  Have a nice day.  *
