 Q-Chem 5.1, Q-Chem, Inc., Pleasanton, CA (2018)
 Q-Chem 5.1.1 for Intel X86 EM64T Linux

User input:
--------------------------------------------------------------

$comment
potential surface scanner
$end

$rem
JOBTYPE  PES_SCAN
UNRESTRICTED TRUE
SYM_IGNORE  TRUE
GEOM_OPT_MAX_CYCLES 400
SCF_MAX_CYCLES 400
METHOD   B3LYP
BASIS   6-31G**
PDB_PRINT 2
SCF_CONVERGENCE 6
THRESH 14
SCF_PRINT 1
$end
$molecule
0 3
S 2.611927 -0.965789 -0.709239
C -0.798073 0.655219 0.143922
C 0.618058 0.056171 -0.189540
C -1.931203 -0.350930 -0.047744
H -0.784409 1.019672 1.178310
H -0.959747 1.532464 -0.494709
H 0.747880 -0.787085 0.493227
H 0.556202 -0.273556 -1.229280
H -1.808293 -1.221146 0.607234
H -2.903838 0.098564 0.178406
H -1.967041 -0.717660 -1.079942
H 1.331141 0.857873 -0.027638
$end
$scan
stre 1 3 2.200000 2.201000 0.100000
$end
--------------------------------------------------------------

    9    -517.2224459069      6.94e-07  Convergence criterion met
 Total energy in the final basis set =     -517.2224459069
    9    -517.2092267615      8.72e-07  Convergence criterion met
 Total energy in the final basis set =     -517.2092267615
    9    -517.2091304243      7.57e-07  Convergence criterion met
 Total energy in the final basis set =     -517.2091304243
    9    -517.2092762445      8.61e-07  Convergence criterion met
 Total energy in the final basis set =     -517.2092762445
    9    -517.2092803914      9.03e-07  Convergence criterion met
 Total energy in the final basis set =     -517.2092803914
    9    -517.2092830123      9.34e-07  Convergence criterion met
 Total energy in the final basis set =     -517.2092830123
    9    -517.2092843594      9.37e-07  Convergence criterion met
 Total energy in the final basis set =     -517.2092843594
    9    -517.2092874899      9.28e-07  Convergence criterion met
 Total energy in the final basis set =     -517.2092874899
    9    -517.2092894671      9.07e-07  Convergence criterion met
 Total energy in the final basis set =     -517.2092894671

             Standard Nuclear Orientation (Angstroms)
    I     Atom           X                Y                Z
 ----------------------------------------------------------------
    1      S       2.5241177406    -0.9731362906    -0.6930426990
    2      C      -0.7908509643     0.6555282472     0.1411247232
    3      C       0.6438029205     0.0545335067    -0.1947335149
    4      C      -1.9175744069    -0.3563098966    -0.0508266615
    5      H      -0.7737250258     1.0173233104     1.1762454886
    6      H      -0.9519791702     1.5318812113    -0.4984743402
    7      H       0.7359405758    -0.7779086327     0.5054506535
    8      H       0.5489572015    -0.2625812122    -1.2352050346
    9      H      -1.7861051569    -1.2297584613     0.5983523060
   10      H      -2.8919626187     0.0853108372     0.1833512628
   11      H      -1.9572747669    -0.7172857771    -1.0849642292
   12      H       1.3292576713     0.8762001578    -0.0242709548
 ----------------------------------------------------------------

    9    -517.2092903191      8.89e-07  Convergence criterion met
 Total energy in the final basis set =     -517.2092903191

                    Orbital Energies (a.u.)
 --------------------------------------------------------------

 Alpha MOs
 -- Occupied --
-88.879 -10.204 -10.200 -10.184  -7.941  -5.910  -5.909  -5.892
 -0.805  -0.737  -0.665  -0.593  -0.484  -0.464  -0.425  -0.416
 -0.365  -0.360  -0.351  -0.285  -0.244  -0.221

 Beta MOs
 -- Occupied --
-88.868 -10.203 -10.197 -10.184  -7.931  -5.890  -5.890  -5.886
 -0.796  -0.717  -0.626  -0.564  -0.477  -0.459  -0.413  -0.408
 -0.362  -0.347  -0.342  -0.220

          Ground-State Mulliken Net Atomic Charges

     Atom                 Charge (a.u.)    Spin (a.u.)
  --------------------------------------------------------
      1 S                    -0.107939       1.784616
      2 C                    -0.197876       0.123554
      3 C                    -0.427715       0.021608
      4 C                    -0.313075      -0.003344
      5 H                     0.107201       0.002966
      6 H                     0.107124       0.003147
      7 H                     0.164459       0.024652
      8 H                     0.164392       0.024299
      9 H                     0.107688       0.001174
     10 H                     0.109997       0.002865
     11 H                     0.107608       0.001193
     12 H                     0.178136       0.013270
  --------------------------------------------------------
  Sum of atomic charges =     0.000000

                    Cartesian Multipole Moments
 -----------------------------------------------------------------
    Charge (ESU x 10^10)
                 0.0000
    Dipole Moment (Debye)
         X      -2.0435      Y       1.0565      Z       0.5282
       Tot       2.3603
    Quadrupole Moments (Debye-Ang)
        XX     -40.8536     XY       2.1801     YY     -36.2953
        XZ       1.7850     YZ      -1.4601     ZZ     -33.3680

 Final energy is   -517.209290319066
 **  OPTIMIZATION CONVERGED  **
 Total job time:  36.05s(wall), 355.38s(cpu)
        *  Thank you very much for using Q-Chem.  Have a nice day.  *
