 Q-Chem 5.1, Q-Chem, Inc., Pleasanton, CA (2018)
 Q-Chem 5.1.1 for Intel X86 EM64T Linux

User input:
--------------------------------------------------------------

$comment
potential surface scanner
$end

$rem
JOBTYPE  PES_SCAN
UNRESTRICTED TRUE
SYM_IGNORE  TRUE
GEOM_OPT_MAX_CYCLES 400
SCF_MAX_CYCLES 400
METHOD   B3LYP
BASIS   6-31G**
PDB_PRINT 2
SCF_CONVERGENCE 6
THRESH 14
SCF_PRINT 1
$end
$molecule
0 1
S 3.976572 0.829730 -0.126720
C -0.958896 0.308219 -0.007999
C -0.082100 -0.865921 -0.017396
C -2.461526 -0.123698 0.102723
H -0.728624 0.952447 0.847520
H -0.839012 0.889535 -0.928096
H 0.249008 -1.327978 0.907009
H 0.177139 -1.373253 -0.941048
H -2.643069 -0.685525 1.022083
H -3.082560 0.776868 0.114591
H -2.757213 -0.740861 -0.748985
H 3.862884 1.264239 -1.400677
$end
$scan
stre 1 3 4.500000 4.501000 0.100000
$end
--------------------------------------------------------------

   21    -517.1942433917      8.72e-07  Convergence criterion met
 Total energy in the final basis set =     -517.1942433917
   19    -517.1918963204      3.20e-07  Convergence criterion met
 Total energy in the final basis set =     -517.1918963204
   21    -517.1921653008      5.66e-07  Convergence criterion met
 Total energy in the final basis set =     -517.1921653008
   20    -517.1923021374      8.03e-07  Convergence criterion met
 Total energy in the final basis set =     -517.1923021374
   22    -517.1923116445      4.68e-07  Convergence criterion met
 Total energy in the final basis set =     -517.1923116445
   26    -517.1923301798      6.26e-07  Convergence criterion met
 Total energy in the final basis set =     -517.1923301798
   23    -517.1923359912      4.68e-07  Convergence criterion met
 Total energy in the final basis set =     -517.1923359912
   24    -517.1923392844      6.34e-07  Convergence criterion met
 Total energy in the final basis set =     -517.1923392844
   26    -517.1923404876      1.20e-07  Convergence criterion met
 Total energy in the final basis set =     -517.1923404876

             Standard Nuclear Orientation (Angstroms)
    I     Atom           X                Y                Z
 ----------------------------------------------------------------
    1      S       4.0603589757     0.8533272886    -0.1253226451
    2      C      -0.9722599645     0.3042733073    -0.0119466010
    3      C      -0.0955482560    -0.8693644646    -0.0215688780
    4      C      -2.4748462581    -0.1266029939     0.1083720872
    5      H      -0.7383745515     0.9512365584     0.8408069808
    6      H      -0.8568500964     0.8835549054    -0.9339514083
    7      H       0.2355911677    -1.3316199636     0.9026399893
    8      H       0.1670085300    -1.3728105061    -0.9462951589
    9      H      -2.6510691491    -0.6847864277     1.0309249339
   10      H      -3.0955024610     0.7742233313     0.1201410244
   11      H      -2.7746762871    -0.7470638748    -0.7393900262
   12      H       3.9087713502     1.2694348396    -1.4014052981
 ----------------------------------------------------------------

   25    -517.1923413585      1.29e-07  Convergence criterion met
 Total energy in the final basis set =     -517.1923413585

                    Orbital Energies (a.u.)
 --------------------------------------------------------------

 Alpha MOs
 -- Occupied --
-88.829 -10.277 -10.237 -10.225  -7.889  -5.852  -5.852  -5.843
 -0.834  -0.720  -0.644  -0.628  -0.519  -0.480  -0.444  -0.418
 -0.401  -0.382  -0.337  -0.199  -0.196

 Beta MOs
 -- Occupied --
-88.829 -10.277 -10.237 -10.225  -7.889  -5.852  -5.852  -5.843
 -0.834  -0.720  -0.644  -0.628  -0.519  -0.480  -0.444  -0.418
 -0.401  -0.382  -0.337  -0.199  -0.196

          Ground-State Mulliken Net Atomic Charges

     Atom                 Charge (a.u.)    Spin (a.u.)
  --------------------------------------------------------
      1 S                    -0.381488      -0.000001
      2 C                    -0.222633       0.000000
      3 C                    -0.136353       0.000001
      4 C                    -0.325522       0.000000
      5 H                     0.153638      -0.000000
      6 H                     0.146029       0.000000
      7 H                     0.168154      -0.000000
      8 H                     0.165504      -0.000000
      9 H                     0.128834       0.000000
     10 H                     0.135673       0.000000
     11 H                     0.128087       0.000000
     12 H                     0.040077       0.000000
  --------------------------------------------------------
  Sum of atomic charges =    -0.000000

                    Cartesian Multipole Moments
 -----------------------------------------------------------------
    Charge (ESU x 10^10)
                -0.0000
    Dipole Moment (Debye)
         X      -7.6716      Y      -1.8053      Z      -0.6067
       Tot       7.9045
    Quadrupole Moments (Debye-Ang)
        XX     -59.2973     XY      -4.4306     YY     -34.8731
        XZ      -2.2541     YZ      -1.5999     ZZ     -31.7206

 Final energy is   -517.192341358514
 **  OPTIMIZATION CONVERGED  **
 Total job time:  52.15s(wall), 607.30s(cpu)
        *  Thank you very much for using Q-Chem.  Have a nice day.  *
