 Q-Chem 5.1, Q-Chem, Inc., Pleasanton, CA (2018)
 Q-Chem 5.1.1 for Intel X86 EM64T Linux

User input:
--------------------------------------------------------------

$comment
potential surface scanner
$end

$rem
JOBTYPE  PES_SCAN
UNRESTRICTED TRUE
SYM_IGNORE  TRUE
GEOM_OPT_MAX_CYCLES 400
SCF_MAX_CYCLES 400
METHOD   B3LYP
BASIS   6-31G**
PDB_PRINT 2
SCF_CONVERGENCE 6
THRESH 14
SCF_PRINT 1
$end
$molecule
0 3
S 3.777490 0.836231 -0.111059
C -0.934635 0.277265 -0.008110
C -0.038646 -0.915765 -0.023761
C -2.436712 -0.079396 0.096809
H -0.672101 0.930514 0.833886
H -0.784661 0.869796 -0.920986
H 0.339677 -1.343849 0.898617
H 0.117997 -1.480248 -0.937709
H -2.644841 -0.636263 1.015967
H -3.052525 0.827036 0.101295
H -2.753003 -0.699904 -0.747864
H 3.794563 1.318384 -1.374084
$end
$scan
stre 1 3 4.100000 4.101000 0.100000
$end
--------------------------------------------------------------

   10    -517.2240824162      5.06e-07  Convergence criterion met
 Total energy in the final basis set =     -517.2240824162
   10    -517.2235936129      5.18e-07  Convergence criterion met
 Total energy in the final basis set =     -517.2235936129
   10    -517.2238768130      5.16e-07  Convergence criterion met
 Total energy in the final basis set =     -517.2238768130
   10    -517.2239874971      5.14e-07  Convergence criterion met
 Total energy in the final basis set =     -517.2239874971
   10    -517.2239936013      5.14e-07  Convergence criterion met
 Total energy in the final basis set =     -517.2239936013
   10    -517.2240030113      5.14e-07  Convergence criterion met
 Total energy in the final basis set =     -517.2240030113
   10    -517.2240054066      5.13e-07  Convergence criterion met
 Total energy in the final basis set =     -517.2240054066
   10    -517.2240121578      5.10e-07  Convergence criterion met
 Total energy in the final basis set =     -517.2240121578
   10    -517.2240148671      5.09e-07  Convergence criterion met
 Total energy in the final basis set =     -517.2240148671
   10    -517.2240163158      5.08e-07  Convergence criterion met
 Total energy in the final basis set =     -517.2240163158

             Standard Nuclear Orientation (Angstroms)
    I     Atom           X                Y                Z
 ----------------------------------------------------------------
    1      S       3.6998847919     0.8131777529    -0.1070682070
    2      C      -0.9184403736     0.2833218060    -0.0028482466
    3      C      -0.0202796175    -0.9080592693    -0.0191878409
    4      C      -2.4206379681    -0.0765199169     0.0885580546
    5      H      -0.6633203908     0.9318265343     0.8450026487
    6      H      -0.7628593540     0.8816712174    -0.9110551367
    7      H       0.3589716111    -1.3364036564     0.9025923578
    8      H       0.1395624332    -1.4698062294    -0.9342671694
    9      H      -2.6347050309    -0.6390367393     1.0028971116
   10      H      -3.0381711000     0.8287543333     0.0935470897
   11      H      -2.7294060528    -0.6927413327    -0.7620321699
   12      H       3.7020040515     1.2876165001    -1.3731374918
 ----------------------------------------------------------------

   10    -517.2240168434      5.08e-07  Convergence criterion met
 Total energy in the final basis set =     -517.2240168434

                    Orbital Energies (a.u.)
 --------------------------------------------------------------

 Alpha MOs
 -- Occupied --
-88.909 -10.182 -10.180 -10.173  -7.970  -5.942  -5.932  -5.923
 -0.775  -0.736  -0.668  -0.575  -0.457  -0.423  -0.411  -0.388
 -0.373  -0.345  -0.328  -0.319  -0.271  -0.192

 Beta MOs
 -- Occupied --
-88.903 -10.182 -10.172 -10.167  -7.965  -5.928  -5.924  -5.919
 -0.764  -0.696  -0.650  -0.560  -0.453  -0.418  -0.397  -0.383
 -0.362  -0.339  -0.326  -0.256

          Ground-State Mulliken Net Atomic Charges

     Atom                 Charge (a.u.)    Spin (a.u.)
  --------------------------------------------------------
      1 S                    -0.072415       1.031614
      2 C                    -0.188349      -0.074036
      3 C                    -0.209572       1.077063
      4 C                    -0.307392       0.048964
      5 H                     0.101530       0.010121
      6 H                     0.099088       0.016974
      7 H                     0.101123      -0.048039
      8 H                     0.096322      -0.047835
      9 H                     0.105089      -0.000206
     10 H                     0.098614       0.013623
     11 H                     0.103693      -0.000705
     12 H                     0.072270      -0.027537
  --------------------------------------------------------
  Sum of atomic charges =    -0.000000

                    Cartesian Multipole Moments
 -----------------------------------------------------------------
    Charge (ESU x 10^10)
                 0.0000
    Dipole Moment (Debye)
         X      -0.1420      Y       0.4253      Z      -0.9355
       Tot       1.0374
    Quadrupole Moments (Debye-Ang)
        XX     -36.6402     XY      -0.0960     YY     -33.2664
        XZ      -3.8206     YZ      -1.2309     ZZ     -31.8001

 Final energy is   -517.224016843437
 **  OPTIMIZATION CONVERGED  **
 Total job time:  34.44s(wall), 387.50s(cpu)
        *  Thank you very much for using Q-Chem.  Have a nice day.  *
