 Q-Chem 5.1, Q-Chem, Inc., Pleasanton, CA (2018)
 Q-Chem 5.1.1 for Intel X86 EM64T Linux

User input:
--------------------------------------------------------------

$comment
potential surface scanner
$end

$rem
JOBTYPE  PES_SCAN
UNRESTRICTED TRUE
SYM_IGNORE  TRUE
GEOM_OPT_MAX_CYCLES 400
SCF_MAX_CYCLES 400
METHOD   B3LYP
BASIS   6-31G**
PDB_PRINT 2
SCF_CONVERGENCE 6
THRESH 14
SCF_PRINT 1
$end
$molecule
0 3
S 3.198194 0.897178 -0.384916
C -0.678598 0.516174 -0.028097
C 0.436788 -0.504367 -0.242402
C -2.063583 -0.134639 0.067251
H -0.479487 1.089486 0.885741
H -0.672045 1.242263 -0.850611
H 0.502000 -1.226692 0.579214
H 0.315136 -1.060594 -1.178625
H -2.114517 -0.841302 0.903160
H -2.843532 0.618492 0.219455
H -2.306749 -0.686215 -0.847779
H 1.419000 -0.005985 -0.299385
$end
$scan
stre 1 3 3.000000 3.001000 0.100000
$end
--------------------------------------------------------------

   10    -517.2552588503      4.08e-07  Convergence criterion met
 Total energy in the final basis set =     -517.2552588503
   10    -517.2513754433      3.90e-07  Convergence criterion met
 Total energy in the final basis set =     -517.2513754433
   10    -517.2524068856      4.20e-07  Convergence criterion met
 Total energy in the final basis set =     -517.2524068856
   10    -517.2527413236      4.40e-07  Convergence criterion met
 Total energy in the final basis set =     -517.2527413236
   10    -517.2527554356      4.45e-07  Convergence criterion met
 Total energy in the final basis set =     -517.2527554356
   10    -517.2527569395      4.43e-07  Convergence criterion met
 Total energy in the final basis set =     -517.2527569395
   10    -517.2527579821      4.38e-07  Convergence criterion met
 Total energy in the final basis set =     -517.2527579821
   10    -517.2527596390      4.27e-07  Convergence criterion met
   13    -517.2574136845      9.23e-07  Convergence criterion met
 Total energy in the final basis set =     -517.2574136845
   13    -517.2574169543      9.25e-07  Convergence criterion met
 Total energy in the final basis set =     -517.2574169543
   13    -517.2574200486      9.27e-07  Convergence criterion met
 Total energy in the final basis set =     -517.2574200486
   13    -517.2574230391      9.30e-07  Convergence criterion met
 Total energy in the final basis set =     -517.2574230391
   13    -517.2574251490      9.32e-07  Convergence criterion met
 Total energy in the final basis set =     -517.2574251490
   13    -517.2574262229      9.32e-07  Convergence criterion met
 Total energy in the final basis set =     -517.2574262229

             Standard Nuclear Orientation (Angstroms)
    I     Atom           X                Y                Z
 ----------------------------------------------------------------
    1      S       3.3199106185    -0.6565639680    -0.9834768621
    2      C      -0.8287467580     0.6434503944     0.1460299486
    3      C       0.5094287920    -0.0656403756    -0.1162899689
    4      C      -2.0355267071    -0.2797168621    -0.0401897806
    5      H      -0.8278936264     1.0523533925     1.1642471545
    6      H      -0.9174954419     1.5056269533    -0.5269602044
    7      H       0.6578590773    -0.9025982920     0.5738395907
    8      H       0.5350461588    -0.4691719409    -1.1350671483
    9      H      -1.9887304551    -1.1350737704     0.6433222884
   10      H      -2.9762261096     0.2472887792     0.1501430397
   11      H      -2.0745745036    -0.6743019138    -1.0618431357
   12      H       1.3395559551     0.6381466035     0.0092510781
 ----------------------------------------------------------------

   13    -517.2574267126      9.29e-07  Convergence criterion met
 Total energy in the final basis set =     -517.2574267126

                    Orbital Energies (a.u.)
 --------------------------------------------------------------

 Alpha MOs
 -- Occupied --
-88.921 -10.186 -10.180 -10.175  -7.981  -5.950  -5.950  -5.931
 -0.782  -0.716  -0.682  -0.587  -0.458  -0.441  -0.402  -0.385
 -0.352  -0.342  -0.333  -0.320  -0.302  -0.274

 Beta MOs
 -- Occupied --
-88.910 -10.185 -10.179 -10.175  -7.970  -5.929  -5.929  -5.925
 -0.781  -0.684  -0.622  -0.585  -0.457  -0.438  -0.401  -0.383
 -0.341  -0.339  -0.330  -0.248

          Ground-State Mulliken Net Atomic Charges

     Atom                 Charge (a.u.)    Spin (a.u.)
  --------------------------------------------------------
      1 S                    -0.032651       1.956874
      2 C                    -0.180760       0.018521
      3 C                    -0.330343       0.024260
      4 C                    -0.311447       0.001911
      5 H                     0.099133       0.000605
      6 H                     0.099358      -0.000498
      7 H                     0.116056      -0.000627
      8 H                     0.114038      -0.001169
      9 H                     0.103909      -0.000047
     10 H                     0.102993       0.001666
     11 H                     0.103723       0.000048
     12 H                     0.115991      -0.001544
  --------------------------------------------------------
  Sum of atomic charges =    -0.000000

                    Cartesian Multipole Moments
 -----------------------------------------------------------------
    Charge (ESU x 10^10)
                -0.0000
    Dipole Moment (Debye)
         X      -0.6358      Y       0.1724      Z       0.1908
       Tot       0.6858
    Quadrupole Moments (Debye-Ang)
        XX     -36.0120     XY      -0.4052     YY     -35.9735
        XZ       0.7018     YZ      -0.1686     ZZ     -33.3219

 Final energy is   -517.257426712599
 **  OPTIMIZATION CONVERGED  **
 Total job time:  418.21s(wall), 4872.90s(cpu)
        *  Thank you very much for using Q-Chem.  Have a nice day.  *
