 Q-Chem 5.1, Q-Chem, Inc., Pleasanton, CA (2018)
 Q-Chem 5.1.1 for Intel X86 EM64T Linux

User input:
--------------------------------------------------------------

$comment
potential surface scanner
$end

$rem
JOBTYPE  PES_SCAN
UNRESTRICTED TRUE
SYM_IGNORE  TRUE
GEOM_OPT_MAX_CYCLES 400
SCF_MAX_CYCLES 400
METHOD   B3LYP
BASIS   6-31G**
PDB_PRINT 2
SCF_CONVERGENCE 6
THRESH 14
SCF_PRINT 1
$end
$molecule
0 3
S 4.441397 1.029049 -0.150804
C -1.041771 0.248934 -0.012405
C -0.149714 -0.947245 -0.024433
C -2.542683 -0.102360 0.125077
H -0.764784 0.913381 0.816961
H -0.903845 0.826703 -0.935843
H 0.171175 -1.413060 0.901957
H 0.056003 -1.480306 -0.947409
H -2.734271 -0.647580 1.054760
H -3.155678 0.805865 0.130810
H -2.876077 -0.732101 -0.705903
H 4.212850 1.402519 -1.429764
$end
$scan
stre 1 3 4.900000 4.901000 0.100000
$end
--------------------------------------------------------------

   10    -517.2242431854      7.66e-07  Convergence criterion met
 Total energy in the final basis set =     -517.2242431854
   10    -517.2237153778      6.63e-07  Convergence criterion met
 Total energy in the final basis set =     -517.2237153778
   10    -517.2240501714      6.45e-07  Convergence criterion met
 Total energy in the final basis set =     -517.2240501714
   10    -517.2241961224      6.19e-07  Convergence criterion met
 Total energy in the final basis set =     -517.2241961224
   10    -517.2242010665      6.19e-07  Convergence criterion met
 Total energy in the final basis set =     -517.2242010665
   10    -517.2242111107      6.19e-07  Convergence criterion met
 Total energy in the final basis set =     -517.2242111107
   10    -517.2242135262      6.21e-07  Convergence criterion met
 Total energy in the final basis set =     -517.2242135262
   10    -517.2242198890      6.26e-07  Convergence criterion met
 Total energy in the final basis set =     -517.2242198890
   10    -517.2242235003      6.31e-07  Convergence criterion met
 Total energy in the final basis set =     -517.2242235003
   10    -517.2242275364      6.35e-07  Convergence criterion met
 Total energy in the final basis set =     -517.2242275364
   10    -517.2242298192      6.36e-07  Convergence criterion met
 Total energy in the final basis set =     -517.2242298192
   10    -517.2242310988      6.35e-07  Convergence criterion met
 Total energy in the final basis set =     -517.2242310988

             Standard Nuclear Orientation (Angstroms)
    I     Atom           X                Y                Z
 ----------------------------------------------------------------
    1      S       4.3637635561     0.9981710874    -0.1445565985
    2      C      -1.0319330006     0.2545110298    -0.0114042330
    3      C      -0.1356892985    -0.9384857765    -0.0250245606
    4      C      -2.5319207778    -0.1023300705     0.1220077830
    5      H      -0.7585859119     0.9179472864     0.8198140886
    6      H      -0.8945473341     0.8347874419    -0.9334635541
    7      H       0.1994775400    -1.3961862041     0.9002531830
    8      H       0.0634531088    -1.4752357587    -0.9473198346
    9      H      -2.7236397447    -0.6504000063     1.0499751475
   10      H      -3.1481652871     0.8037007697     0.1283700862
   11      H      -2.8613147076    -0.7313261792    -0.7111560096
   12      H       4.1717038573     1.3886453803    -1.4244914979
 ----------------------------------------------------------------

   10    -517.2242318102      6.33e-07  Convergence criterion met
 Total energy in the final basis set =     -517.2242318102

                    Orbital Energies (a.u.)
 --------------------------------------------------------------

 Alpha MOs
 -- Occupied --
-88.910 -10.183 -10.182 -10.175  -7.971  -5.942  -5.932  -5.923
 -0.776  -0.737  -0.670  -0.576  -0.459  -0.425  -0.412  -0.390
 -0.375  -0.346  -0.329  -0.320  -0.272  -0.195

 Beta MOs
 -- Occupied --
-88.904 -10.184 -10.173 -10.169  -7.966  -5.929  -5.925  -5.920
 -0.766  -0.697  -0.651  -0.562  -0.454  -0.419  -0.398  -0.384
 -0.364  -0.341  -0.327  -0.257

          Ground-State Mulliken Net Atomic Charges

     Atom                 Charge (a.u.)    Spin (a.u.)
  --------------------------------------------------------
      1 S                    -0.073129       1.027974
      2 C                    -0.188647      -0.074222
      3 C                    -0.216474       1.080642
      4 C                    -0.306951       0.049648
      5 H                     0.102626       0.013563
      6 H                     0.099353       0.013011
      7 H                     0.101959      -0.047901
      8 H                     0.098765      -0.047971
      9 H                     0.105378      -0.000516
     10 H                     0.099456       0.013642
     11 H                     0.104592      -0.000459
     12 H                     0.073072      -0.027410
  --------------------------------------------------------
  Sum of atomic charges =     0.000000

                    Cartesian Multipole Moments
 -----------------------------------------------------------------
    Charge (ESU x 10^10)
                -0.0000
    Dipole Moment (Debye)
         X      -0.3326      Y       0.3620      Z      -0.9566
       Tot       1.0755
    Quadrupole Moments (Debye-Ang)
        XX     -37.6488     XY      -0.5616     YY     -33.5605
        XZ      -4.0996     YZ      -1.2712     ZZ     -31.6117

 Final energy is   -517.224231810207
 **  OPTIMIZATION CONVERGED  **
 Total job time:  38.76s(wall), 445.16s(cpu)
        *  Thank you very much for using Q-Chem.  Have a nice day.  *
