 Q-Chem 5.1, Q-Chem, Inc., Pleasanton, CA (2018)
 Q-Chem 5.1.1 for Intel X86 EM64T Linux

User input:
--------------------------------------------------------------

$comment
potential surface scanner
$end

$rem
JOBTYPE  PES_SCAN
UNRESTRICTED TRUE
SYM_IGNORE  TRUE
GEOM_OPT_MAX_CYCLES 400
SCF_MAX_CYCLES 400
METHOD   B3LYP
BASIS   6-31G**
PDB_PRINT 2
SCF_CONVERGENCE 6
THRESH 14
SCF_PRINT 1
$end
$molecule
0 1
S 2.409071 0.231838 0.002029
C -0.657475 0.484574 -0.009812
C 0.378168 -0.613750 -0.018328
C -2.080005 -0.103806 0.014968
H -0.502319 1.127534 0.862035
H -0.537269 1.116715 -0.896500
H 0.414895 -1.217107 0.887637
H 0.394735 -1.237103 -0.910640
H -2.241641 -0.717241 0.907653
H -2.826530 0.696575 0.019530
H -2.268652 -0.732284 -0.861936
H 2.229623 0.867854 -1.173634
$end
$scan
stre 1 3 2.300000 2.301000 0.100000
$end
--------------------------------------------------------------

    9    -517.3186710829      3.68e-07  Convergence criterion met
 Total energy in the final basis set =     -517.3186710829
    9    -517.3092865478      3.93e-07  Convergence criterion met
 Total energy in the final basis set =     -517.3092865478
    9    -517.3091994327      3.97e-07  Convergence criterion met
 Total energy in the final basis set =     -517.3091994327
    9    -517.3092747551      4.07e-07  Convergence criterion met
 Total energy in the final basis set =     -517.3092747551
    9    -517.3092762872      4.07e-07  Convergence criterion met
 Total energy in the final basis set =     -517.3092762872

             Standard Nuclear Orientation (Angstroms)
    I     Atom           X                Y                Z
 ----------------------------------------------------------------
    1      S       2.4717415488     0.2620918945    -0.0025916611
    2      C      -0.6669015945     0.4757716929    -0.0090042484
    3      C       0.3523390489    -0.6311877684    -0.0161604648
    4      C      -2.0957941677    -0.1026675144     0.0168204314
    5      H      -0.5077309407     1.1170668266     0.8629679639
    6      H      -0.5428730589     1.1048040083    -0.8968099445
    7      H       0.4173152847    -1.2242438400     0.8936086007
    8      H       0.3991057450    -1.2435202064    -0.9137764796
    9      H      -2.2624281492    -0.7137882820     0.9099569851
   10      H      -2.8334798251     0.7058170071     0.0214503075
   11      H      -2.2903855829    -0.7291027341    -0.8600356756
   12      H       2.2716926917     0.8827579160    -1.1834238145
 ----------------------------------------------------------------

    9    -517.3092765572      4.07e-07  Convergence criterion met
 Total energy in the final basis set =     -517.3092765572

                    Orbital Energies (a.u.)
 --------------------------------------------------------------

 Alpha MOs
 -- Occupied --
-88.865 -10.245 -10.203 -10.193  -7.924  -5.889  -5.887  -5.879
 -0.802  -0.708  -0.665  -0.600  -0.484  -0.442  -0.412  -0.400
 -0.371  -0.364  -0.350  -0.283  -0.229

 Beta MOs
 -- Occupied --
-88.865 -10.245 -10.203 -10.193  -7.924  -5.889  -5.887  -5.879
 -0.802  -0.708  -0.665  -0.600  -0.484  -0.442  -0.412  -0.400
 -0.371  -0.364  -0.350  -0.283  -0.229

          Ground-State Mulliken Net Atomic Charges

     Atom                 Charge (a.u.)    Spin (a.u.)
  --------------------------------------------------------
      1 S                    -0.202979       0.000000
      2 C                    -0.171301       0.000000
      3 C                    -0.237406      -0.000000
      4 C                    -0.327162      -0.000000
      5 H                     0.130205      -0.000000
      6 H                     0.113290      -0.000000
      7 H                     0.148915       0.000000
      8 H                     0.149406       0.000000
      9 H                     0.112768       0.000000
     10 H                     0.117790       0.000000
     11 H                     0.110790      -0.000000
     12 H                     0.055684      -0.000000
  --------------------------------------------------------
  Sum of atomic charges =     0.000000

                    Cartesian Multipole Moments
 -----------------------------------------------------------------
    Charge (ESU x 10^10)
                 0.0000
    Dipole Moment (Debye)
         X      -2.8460      Y      -0.3337      Z      -0.7293
       Tot       2.9568
    Quadrupole Moments (Debye-Ang)
        XX     -41.1065     XY       0.2804     YY     -33.9839
        XZ      -1.6711     YZ      -1.6962     ZZ     -32.6538

 Final energy is   -517.309276557208
 **  OPTIMIZATION CONVERGED  **
 Total job time:  17.81s(wall), 205.71s(cpu)
        *  Thank you very much for using Q-Chem.  Have a nice day.  *
