 Q-Chem 5.1, Q-Chem, Inc., Pleasanton, CA (2018)
 Q-Chem 5.1.1 for Intel X86 EM64T Linux

User input:
--------------------------------------------------------------

$comment
potential surface scanner
$end

$rem
JOBTYPE  PES_SCAN
UNRESTRICTED TRUE
SYM_IGNORE  TRUE
GEOM_OPT_MAX_CYCLES 400
SCF_MAX_CYCLES 400
METHOD   B3LYP
BASIS   6-31G**
PDB_PRINT 2
SCF_CONVERGENCE 6
THRESH 14
SCF_PRINT 1
$end
$molecule
0 1
S 3.458506 0.644963 -0.074053
C -0.856411 0.367504 -0.001757
C 0.048481 -0.789643 -0.013801
C -2.341516 -0.118436 0.067034
H -0.658094 1.000660 0.868350
H -0.729109 0.968500 -0.907196
H 0.347980 -1.276073 0.908549
H 0.302331 -1.298004 -0.938251
H -2.525337 -0.703267 0.971919
H -2.996611 0.757662 0.081315
H -2.599391 -0.729975 -0.801371
H 3.261771 1.079911 -1.337732
$end
$scan
stre 1 3 3.800000 3.801000 0.100000
$end
--------------------------------------------------------------

   13    -517.2138936845      4.79e-07  Convergence criterion met
 Total energy in the final basis set =     -517.2138936845
   13    -517.2100893748      8.94e-07  Convergence criterion met
 Total energy in the final basis set =     -517.2100893748
   13    -517.2101201170      6.61e-07  Convergence criterion met
 Total energy in the final basis set =     -517.2101201170
   12    -517.2102201295      6.37e-07  Convergence criterion met
 Total energy in the final basis set =     -517.2102201295
   12    -517.2102266489      5.48e-07  Convergence criterion met
 Total energy in the final basis set =     -517.2102266489
   12    -517.2102418478      4.96e-07  Convergence criterion met
 Total energy in the final basis set =     -517.2102418478
   12    -517.2102465979      5.84e-07  Convergence criterion met
 Total energy in the final basis set =     -517.2102465979
   12    -517.2102516205      7.61e-07  Convergence criterion met
   12    -517.2102554065      9.06e-07  Convergence criterion met
 Total energy in the final basis set =     -517.2102554065
   13    -517.2102590689      5.12e-07  Convergence criterion met
 Total energy in the final basis set =     -517.2102590689
   13    -517.2102617044      5.34e-07  Convergence criterion met
 Total energy in the final basis set =     -517.2102617044
   13    -517.2102642382      5.68e-07  Convergence criterion met
 Total energy in the final basis set =     -517.2102642382
   13    -517.2102667322      6.22e-07  Convergence criterion met
 Total energy in the final basis set =     -517.2102667322
   13    -517.2102685285      6.85e-07  Convergence criterion met
 Total energy in the final basis set =     -517.2102685285

             Standard Nuclear Orientation (Angstroms)
    I     Atom           X                Y                Z
 ----------------------------------------------------------------
    1      S       3.5367747100     0.6656214112    -0.0872653718
    2      C      -0.8723216930     0.3609343086     0.0015003805
    3      C       0.0303367456    -0.7969239923    -0.0107629165
    4      C      -2.3595425286    -0.1209414829     0.0693953515
    5      H      -0.6739464290     0.9937658154     0.8719980264
    6      H      -0.7445337528     0.9616837530    -0.9042357261
    7      H       0.3383673519    -1.2781430509     0.9115449278
    8      H       0.2858616111    -1.3040114901    -0.9354885976
    9      H      -2.5451602546    -0.7054443325     0.9740289973
   10      H      -3.0116251387     0.7573918573     0.0834012903
   11      H      -2.6180892018    -0.7314774709    -0.7994244104
   12      H       3.3464785798     1.1013466741    -1.3516859514
 ----------------------------------------------------------------

   13    -517.2102691990      7.20e-07  Convergence criterion met
 Total energy in the final basis set =     -517.2102691990

                    Orbital Energies (a.u.)
 --------------------------------------------------------------

 Alpha MOs
 -- Occupied --
-88.835 -10.278 -10.233 -10.222  -7.894  -5.857  -5.857  -5.848
 -0.831  -0.716  -0.648  -0.625  -0.515  -0.476  -0.441  -0.416
 -0.398  -0.379  -0.340  -0.209  -0.200

 Beta MOs
 -- Occupied --
-88.835 -10.278 -10.233 -10.222  -7.894  -5.857  -5.857  -5.848
 -0.831  -0.716  -0.648  -0.625  -0.515  -0.476  -0.441  -0.416
 -0.398  -0.379  -0.340  -0.209  -0.200

          Ground-State Mulliken Net Atomic Charges

     Atom                 Charge (a.u.)    Spin (a.u.)
  --------------------------------------------------------
      1 S                    -0.394517      -0.000000
      2 C                    -0.220901      -0.000000
      3 C                    -0.123989       0.000000
      4 C                    -0.330191       0.000000
      5 H                     0.154635       0.000000
      6 H                     0.146687       0.000000
      7 H                     0.170731      -0.000000
      8 H                     0.167324      -0.000000
      9 H                     0.127534       0.000000
     10 H                     0.135644       0.000000
     11 H                     0.126451       0.000000
     12 H                     0.040592       0.000000
  --------------------------------------------------------
  Sum of atomic charges =     0.000000

                    Cartesian Multipole Moments
 -----------------------------------------------------------------
    Charge (ESU x 10^10)
                 0.0000
    Dipole Moment (Debye)
         X      -6.7141      Y      -1.4653      Z      -0.6486
       Tot       6.9027
    Quadrupole Moments (Debye-Ang)
        XX     -53.2158     XY      -2.7834     YY     -34.4087
        XZ      -2.0730     YZ      -1.6000     ZZ     -31.8428

 Final energy is   -517.210269198981
 **  OPTIMIZATION CONVERGED  **
 Total job time:  57.88s(wall), 606.84s(cpu)
        *  Thank you very much for using Q-Chem.  Have a nice day.  *
