 Q-Chem 5.1, Q-Chem, Inc., Pleasanton, CA (2018)
 Q-Chem 5.1.1 for Intel X86 EM64T Linux

User input:
--------------------------------------------------------------

$comment
potential surface scanner
$end

$rem
JOBTYPE  PES_SCAN
UNRESTRICTED TRUE
SYM_IGNORE  TRUE
GEOM_OPT_MAX_CYCLES 400
SCF_MAX_CYCLES 400
METHOD   B3LYP
BASIS   6-31G**
PDB_PRINT 2
SCF_CONVERGENCE 6
THRESH 14
SCF_PRINT 1
$end
$molecule
0 1
S 2.126400 0.172600 -0.001000
C -0.602600 0.507000 0.001200
C 0.472000 -0.574500 0.001000
C -1.995800 -0.105100 -0.001200
H -0.500600 1.146800 0.886100
H -0.499900 1.148900 -0.882200
H 0.380400 -1.208800 0.888400
H 0.378500 -1.212800 -0.883500
H -2.152000 -0.728200 0.885200
H -2.755700 0.682700 -0.000800
H -2.150200 -0.725500 -0.889800
H 2.012100 0.800700 -1.180400
$end
$scan
stre 1 3 1.700000 1.701000 0.100000
$end
--------------------------------------------------------------

    9    -517.3385956811      3.60e-07  Convergence criterion met
 Total energy in the final basis set =     -517.3385956811
    9    -517.3320603267      3.86e-07  Convergence criterion met
 Total energy in the final basis set =     -517.3320603267
    9    -517.3325731911      4.11e-07  Convergence criterion met
 Total energy in the final basis set =     -517.3325731911
    9    -517.3326977145      4.22e-07  Convergence criterion met
 Total energy in the final basis set =     -517.3326977145
    9    -517.3327051496      4.22e-07  Convergence criterion met
 Total energy in the final basis set =     -517.3327051496
    9    -517.3327085015      4.21e-07  Convergence criterion met
 Total energy in the final basis set =     -517.3327085015
    9    -517.3327118466      4.21e-07  Convergence criterion met
 Total energy in the final basis set =     -517.3327118466
    9    -517.3327141197      4.22e-07  Convergence criterion met
 Total energy in the final basis set =     -517.3327141197

             Standard Nuclear Orientation (Angstroms)
    I     Atom           X                Y                Z
 ----------------------------------------------------------------
    1      S       2.0998751912     0.0752629653     0.0167688694
    2      C      -0.6189231793     0.5245974715    -0.0128741502
    3      C       0.5095231558    -0.5231184393    -0.0353882779
    4      C      -2.0106129147    -0.1141147679     0.0077175748
    5      H      -0.4827233412     1.1735993139     0.8599493512
    6      H      -0.5190831215     1.1703890838    -0.8954008603
    7      H       0.4092556287    -1.1604943863     0.8528312024
    8      H       0.3525472388    -1.1974257735    -0.8879649733
    9      H      -2.1459668021    -0.7406974120     0.8966117469
   10      H      -2.7964595526     0.6474994271     0.0157548165
   11      H      -2.1713009637    -0.7485107979    -0.8713311187
   12      H       2.0864686607     0.7968133154    -1.1236741807
 ----------------------------------------------------------------

    9    -517.3327147261      4.23e-07  Convergence criterion met
 Total energy in the final basis set =     -517.3327147261

                    Orbital Energies (a.u.)
 --------------------------------------------------------------

 Alpha MOs
 -- Occupied --
-88.868 -10.210 -10.190 -10.181  -7.933  -5.898  -5.894  -5.887
 -0.824  -0.748  -0.644  -0.592  -0.481  -0.443  -0.414  -0.406
 -0.375  -0.350  -0.340  -0.318  -0.231

 Beta MOs
 -- Occupied --
-88.868 -10.210 -10.190 -10.181  -7.933  -5.898  -5.894  -5.887
 -0.824  -0.748  -0.644  -0.592  -0.481  -0.443  -0.414  -0.406
 -0.375  -0.350  -0.340  -0.318  -0.231

          Ground-State Mulliken Net Atomic Charges

     Atom                 Charge (a.u.)    Spin (a.u.)
  --------------------------------------------------------
      1 S                    -0.024561       0.000000
      2 C                    -0.169676       0.000000
      3 C                    -0.332649      -0.000000
      4 C                    -0.322427      -0.000000
      5 H                     0.113491       0.000000
      6 H                     0.096274      -0.000000
      7 H                     0.137424      -0.000000
      8 H                     0.129100       0.000000
      9 H                     0.106338       0.000000
     10 H                     0.108797       0.000000
     11 H                     0.105182      -0.000000
     12 H                     0.052708      -0.000000
  --------------------------------------------------------
  Sum of atomic charges =    -0.000000

                    Cartesian Multipole Moments
 -----------------------------------------------------------------
    Charge (ESU x 10^10)
                -0.0000
    Dipole Moment (Debye)
         X      -1.5668      Y      -0.0148      Z      -0.7230
       Tot       1.7256
    Quadrupole Moments (Debye-Ang)
        XX     -38.3685     XY       0.8808     YY     -34.0260
        XZ      -1.7970     YZ      -1.5887     ZZ     -32.8709

 Final energy is   -517.332714726144
 **  OPTIMIZATION CONVERGED  **
 Total job time:  29.14s(wall), 316.27s(cpu)
        *  Thank you very much for using Q-Chem.  Have a nice day.  *
