 Q-Chem 5.1, Q-Chem, Inc., Pleasanton, CA (2018)
 Q-Chem 5.1.1 for Intel X86 EM64T Linux

User input:
--------------------------------------------------------------

$comment
potential surface scanner
$end

$rem
JOBTYPE  PES_SCAN
UNRESTRICTED TRUE
SYM_IGNORE  TRUE
GEOM_OPT_MAX_CYCLES 400
SCF_MAX_CYCLES 400
METHOD   B3LYP
BASIS   6-31G**
PDB_PRINT 2
SCF_CONVERGENCE 6
THRESH 14
SCF_PRINT 1
$end
$molecule
0 1
S 3.834075 0.769535 -0.120153
C -0.929555 0.326976 -0.000503
C -0.043382 -0.840860 -0.010815
C -2.427584 -0.123657 0.088041
H -0.714724 0.965289 0.862915
H -0.803744 0.917371 -0.913820
H 0.281262 -1.308433 0.912974
H 0.216384 -1.346504 -0.935162
H -2.613912 -0.695245 1.000474
H -3.059728 0.769139 0.099973
H -2.706310 -0.737053 -0.772163
H 3.679821 1.207245 -1.388755
$end
$scan
stre 1 3 4.300000 4.301000 0.100000
$end
--------------------------------------------------------------

   16    -517.1986267721      6.71e-07  Convergence criterion met
 Total energy in the final basis set =     -517.1986267721
   19    -517.1961597613      2.95e-07  Convergence criterion met
 Total energy in the final basis set =     -517.1961597613
   18    -517.1962137385      4.69e-07  Convergence criterion met
 Total energy in the final basis set =     -517.1962137385
   18    -517.1962824202      2.80e-07  Convergence criterion met
 Total energy in the final basis set =     -517.1962824202
   18    -517.1962889594      1.64e-07  Convergence criterion met
 Total energy in the final basis set =     -517.1962889594
   18    -517.1963028206      1.45e-07  Convergence criterion met
 Total energy in the final basis set =     -517.1963028206
   18    -517.1963061991      1.58e-07  Convergence criterion met
 Total energy in the final basis set =     -517.1963061991
   18    -517.1963094075      1.42e-07  Convergence criterion met
   18    -517.1963139407      1.18e-07  Convergence criterion met
 Total energy in the final basis set =     -517.1963139407
   18    -517.1963158760      1.32e-07  Convergence criterion met
 Total energy in the final basis set =     -517.1963158760
   18    -517.1963185111      1.80e-07  Convergence criterion met
 Total energy in the final basis set =     -517.1963185111
   18    -517.1963222080      2.93e-07  Convergence criterion met
 Total energy in the final basis set =     -517.1963222080
   18    -517.1963261628      4.61e-07  Convergence criterion met
 Total energy in the final basis set =     -517.1963261628
   18    -517.1963283322      5.67e-07  Convergence criterion met
 Total energy in the final basis set =     -517.1963283322

             Standard Nuclear Orientation (Angstroms)
    I     Atom           X                Y                Z
 ----------------------------------------------------------------
    1      S       3.9053899656     0.7992624340    -0.1235764616
    2      C      -0.9441322656     0.3174650983    -0.0043875729
    3      C      -0.0627500722    -0.8535751783    -0.0140715901
    4      C      -2.4446081887    -0.1236126570     0.0954312913
    5      H      -0.7215458735     0.9588481431     0.8550463588
    6      H      -0.8212340215     0.9031986839    -0.9211747979
    7      H       0.2645917334    -1.3185576899     0.9101386821
    8      H       0.1974583186    -1.3597139646    -0.9380548407
    9      H      -2.6285766372    -0.6901583645     1.0114378900
   10      H      -3.0710224208     0.7732126677     0.1072918856
   11      H      -2.7319793250    -0.7389765287    -0.7604526333
   12      H       3.7710117870     1.2364103561    -1.3946222113
 ----------------------------------------------------------------

   18    -517.1963288743      5.78e-07  Convergence criterion met
 Total energy in the final basis set =     -517.1963288743

                    Orbital Energies (a.u.)
 --------------------------------------------------------------

 Alpha MOs
 -- Occupied --
-88.830 -10.277 -10.236 -10.224  -7.890  -5.854  -5.853  -5.845
 -0.833  -0.719  -0.645  -0.627  -0.518  -0.479  -0.443  -0.418
 -0.400  -0.381  -0.338  -0.201  -0.197

 Beta MOs
 -- Occupied --
-88.830 -10.277 -10.236 -10.224  -7.890  -5.854  -5.853  -5.845
 -0.833  -0.719  -0.645  -0.627  -0.518  -0.479  -0.443  -0.418
 -0.400  -0.381  -0.338  -0.201  -0.197

          Ground-State Mulliken Net Atomic Charges

     Atom                 Charge (a.u.)    Spin (a.u.)
  --------------------------------------------------------
      1 S                    -0.386909      -0.000000
      2 C                    -0.222477      -0.000000
      3 C                    -0.133107       0.000000
      4 C                    -0.326762       0.000000
      5 H                     0.154014       0.000000
      6 H                     0.146942       0.000000
      7 H                     0.169141      -0.000000
      8 H                     0.166406      -0.000000
      9 H                     0.128599       0.000000
     10 H                     0.135849       0.000000
     11 H                     0.127776       0.000000
     12 H                     0.040530       0.000000
  --------------------------------------------------------
  Sum of atomic charges =     0.000000

                    Cartesian Multipole Moments
 -----------------------------------------------------------------
    Charge (ESU x 10^10)
                 0.0000
    Dipole Moment (Debye)
         X      -7.4125      Y      -1.7103      Z      -0.5988
       Tot       7.6308
    Quadrupole Moments (Debye-Ang)
        XX     -57.3911     XY      -3.8810     YY     -34.6857
        XZ      -2.1736     YZ      -1.6188     ZZ     -31.7481

 Final energy is   -517.196328874263
 **  OPTIMIZATION CONVERGED  **
 Total job time:  69.11s(wall), 801.33s(cpu)
        *  Thank you very much for using Q-Chem.  Have a nice day.  *
