 Q-Chem 5.1, Q-Chem, Inc., Pleasanton, CA (2018)
 Q-Chem 5.1.1 for Intel X86 EM64T Linux

User input:
--------------------------------------------------------------

$comment
potential surface scanner
$end

$rem
JOBTYPE  PES_SCAN
UNRESTRICTED TRUE
SYM_IGNORE  TRUE
GEOM_OPT_MAX_CYCLES 400
SCF_MAX_CYCLES 400
METHOD   B3LYP
BASIS   6-31G**
PDB_PRINT 2
SCF_CONVERGENCE 6
THRESH 14
SCF_PRINT 1
$end
$molecule
0 1
S 4.126439 0.881136 -0.133305
C -0.990717 0.292564 -0.016989
C -0.119576 -0.885104 -0.024923
C -2.495534 -0.126566 0.117500
H -0.746929 0.942648 0.830847
H -0.878394 0.865197 -0.943573
H 0.217992 -1.340247 0.900592
H 0.138643 -1.394553 -0.947596
H -2.668107 -0.679441 1.043929
H -3.109350 0.778916 0.130443
H -2.806754 -0.748576 -0.724993
H 4.044891 1.317828 -1.408926
$end
$scan
stre 1 3 4.700000 4.701000 0.100000
$end
--------------------------------------------------------------

   34    -517.1906377013      3.58e-07  Convergence criterion met
 Total energy in the final basis set =     -517.1906377013
   53    -517.1925453472      1.63e-07  Convergence criterion met
 Total energy in the final basis set =     -517.1925453472
   69    -517.1888648620      6.40e-07  Convergence criterion met
 Total energy in the final basis set =     -517.1888648620
   48    -517.1890332850      8.38e-07  Convergence criterion met
 Total energy in the final basis set =     -517.1890332850
   76    -517.1890486765      6.15e-07  Convergence criterion met
 Total energy in the final basis set =     -517.1890486765
   61    -517.1890606784      1.04e-07  Convergence criterion met
 Total energy in the final basis set =     -517.1890606784
   60    -517.1890700272      6.87e-07  Convergence criterion met
 Total energy in the final basis set =     -517.1890700272
   58    -517.1890761150      6.40e-07  Convergence criterion met
   77    -517.1890753095      1.32e-07  Convergence criterion met
 Total energy in the final basis set =     -517.1890753095
   61    -517.1890795486      4.22e-07  Convergence criterion met
 Total energy in the final basis set =     -517.1890795486
   76    -517.2251479133      6.38e-07  Convergence criterion met
 Total energy in the final basis set =     -517.2251479133
   74    -517.1926864618      8.62e-08  Convergence criterion met
 Total energy in the final basis set =     -517.1926864618
   72    -517.1890783678      9.94e-07  Convergence criterion met
 Total energy in the final basis set =     -517.1890783678
   62    -517.1890813558      5.14e-07  Convergence criterion met
 Total energy in the final basis set =     -517.1890813558

             Standard Nuclear Orientation (Angstroms)
    I     Atom           X                Y                Z
 ----------------------------------------------------------------
    1      S       4.2104309934     0.9048190161    -0.1322574870
    2      C      -1.0046920698     0.2885231443    -0.0196714873
    3      C      -0.1327506008    -0.8885295544    -0.0289577730
    4      C      -2.5091701935    -0.1292629185     0.1230737207
    5      H      -0.7580488116     0.9417561179     0.8251329991
    6      H      -0.8970994700     0.8590559765    -0.9482138889
    7      H       0.2070332282    -1.3444028752     0.8954079778
    8      H       0.1268851502    -1.3957253061    -0.9525057291
    9      H      -2.6777732476    -0.6780116300     1.0526766267
   10      H      -3.1229315362     0.7762992225     0.1344717342
   11      H      -2.8240198674    -0.7551419200    -0.7151882897
   12      H       4.0947404251     1.3244227268    -1.4109624035
 ----------------------------------------------------------------

   65    -517.1890815616      4.20e-07  Convergence criterion met
 Total energy in the final basis set =     -517.1890815616

                    Orbital Energies (a.u.)
 --------------------------------------------------------------

 Alpha MOs
 -- Occupied --
-88.828 -10.276 -10.237 -10.225  -7.888  -5.851  -5.851  -5.842
 -0.834  -0.720  -0.643  -0.628  -0.519  -0.480  -0.444  -0.419
 -0.401  -0.382  -0.336  -0.197  -0.195

 Beta MOs
 -- Occupied --
-88.828 -10.276 -10.237 -10.225  -7.888  -5.851  -5.851  -5.842
 -0.834  -0.720  -0.643  -0.628  -0.519  -0.480  -0.444  -0.419
 -0.401  -0.382  -0.336  -0.197  -0.195

          Ground-State Mulliken Net Atomic Charges

     Atom                 Charge (a.u.)    Spin (a.u.)
  --------------------------------------------------------
      1 S                    -0.376952       0.000077
      2 C                    -0.222512      -0.000004
      3 C                    -0.138725      -0.000060
      4 C                    -0.324449      -0.000006
      5 H                     0.153016      -0.000001
      6 H                     0.145336      -0.000001
      7 H                     0.167028      -0.000002
      8 H                     0.164525      -0.000002
      9 H                     0.128891      -0.000000
     10 H                     0.135371      -0.000001
     11 H                     0.128216      -0.000000
     12 H                     0.040255       0.000001
  --------------------------------------------------------
  Sum of atomic charges =    -0.000000

                    Cartesian Multipole Moments
 -----------------------------------------------------------------
    Charge (ESU x 10^10)
                -0.0000
    Dipole Moment (Debye)
         X      -7.8833      Y      -1.8850      Z      -0.6057
       Tot       8.1281
    Quadrupole Moments (Debye-Ang)
        XX     -60.9052     XY      -4.8580     YY     -35.0007
        XZ      -2.3609     YZ      -1.6041     ZZ     -31.7000

 Final energy is   -517.189081561592
 **  OPTIMIZATION CONVERGED  **
 Total job time:  258.15s(wall), 3049.80s(cpu)
        *  Thank you very much for using Q-Chem.  Have a nice day.  *
