 Q-Chem 5.1, Q-Chem, Inc., Pleasanton, CA (2018)
 Q-Chem 5.1.1 for Intel X86 EM64T Linux

User input:
--------------------------------------------------------------

$comment
potential surface scanner
$end

$rem
JOBTYPE  PES_SCAN
UNRESTRICTED TRUE
SYM_IGNORE  TRUE
GEOM_OPT_MAX_CYCLES 400
SCF_MAX_CYCLES 400
METHOD   B3LYP
BASIS   6-31G**
PDB_PRINT 2
SCF_CONVERGENCE 6
THRESH 14
SCF_PRINT 1
$end
$molecule
0 1
S 2.223876 0.137586 0.011658
C -0.632731 0.509519 -0.011969
C 0.456792 -0.559495 -0.026942
C -2.036342 -0.109436 0.010428
H -0.489862 1.157070 0.859923
H -0.525480 1.150108 -0.896155
H 0.409205 -1.186494 0.868020
H 0.372353 -1.214129 -0.898197
H -2.181735 -0.730569 0.901218
H -2.808133 0.666563 0.016292
H -2.207281 -0.742718 -0.867231
H 2.131939 0.825796 -1.144044
$end
$scan
stre 1 3 2.000000 2.001000 0.100000
$end
--------------------------------------------------------------

    9    -517.3397113627      3.70e-07  Convergence criterion met
 Total energy in the final basis set =     -517.3397113627
    9    -517.3346967142      3.78e-07  Convergence criterion met
 Total energy in the final basis set =     -517.3346967142
    9    -517.3348177473      3.68e-07  Convergence criterion met
 Total energy in the final basis set =     -517.3348177473
    9    -517.3348774453      3.59e-07  Convergence criterion met
 Total energy in the final basis set =     -517.3348774453
    9    -517.3348796060      3.59e-07  Convergence criterion met
 Total energy in the final basis set =     -517.3348796060

             Standard Nuclear Orientation (Angstroms)
    I     Atom           X                Y                Z
 ----------------------------------------------------------------
    1      S       2.2852908539     0.1698575317     0.0089844761
    2      C      -0.6404922461     0.5009857280    -0.0112917263
    3      C       0.4307677885    -0.5782659273    -0.0235002999
    4      C      -2.0505686603    -0.1071495512     0.0117421856
    5      H      -0.4936687865     1.1469881256     0.8606461234
    6      H      -0.5285363399     1.1389536405    -0.8961256402
    7      H       0.4109168531    -1.1979959430     0.8753439679
    8      H       0.3816189441    -1.2220621392    -0.9031880571
    9      H      -2.2018249840    -0.7255607451     0.9032626095
   10      H      -2.8136322040     0.6774320353     0.0169564103
   11      H      -2.2276723657    -0.7390839072    -0.8654913769
   12      H       2.1604021469     0.8397021518    -1.1543376724
 ----------------------------------------------------------------

    9    -517.3348799607      3.59e-07  Convergence criterion met
 Total energy in the final basis set =     -517.3348799607

                    Orbital Energies (a.u.)
 --------------------------------------------------------------

 Alpha MOs
 -- Occupied --
-88.870 -10.228 -10.195 -10.185  -7.931  -5.896  -5.893  -5.886
 -0.801  -0.727  -0.656  -0.594  -0.477  -0.436  -0.410  -0.400
 -0.374  -0.355  -0.343  -0.309  -0.234

 Beta MOs
 -- Occupied --
-88.870 -10.228 -10.195 -10.185  -7.931  -5.896  -5.893  -5.886
 -0.801  -0.727  -0.656  -0.594  -0.477  -0.436  -0.410  -0.400
 -0.374  -0.355  -0.343  -0.309  -0.234

          Ground-State Mulliken Net Atomic Charges

     Atom                 Charge (a.u.)    Spin (a.u.)
  --------------------------------------------------------
      1 S                    -0.097713       0.000000
      2 C                    -0.163811      -0.000000
      3 C                    -0.306165       0.000000
      4 C                    -0.323563      -0.000000
      5 H                     0.120679       0.000000
      6 H                     0.102960       0.000000
      7 H                     0.140729       0.000000
      8 H                     0.140324      -0.000000
      9 H                     0.108939       0.000000
     10 H                     0.112069       0.000000
     11 H                     0.107055      -0.000000
     12 H                     0.058498      -0.000000
  --------------------------------------------------------
  Sum of atomic charges =     0.000000

                    Cartesian Multipole Moments
 -----------------------------------------------------------------
    Charge (ESU x 10^10)
                 0.0000
    Dipole Moment (Debye)
         X      -2.0259      Y      -0.1093      Z      -0.7414
       Tot       2.1601
    Quadrupole Moments (Debye-Ang)
        XX     -39.3475     XY       0.6961     YY     -34.0606
        XZ      -1.7322     YZ      -1.6623     ZZ     -32.7901

 Final energy is   -517.334879960652
 **  OPTIMIZATION CONVERGED  **
 Total job time:  18.43s(wall), 207.60s(cpu)
        *  Thank you very much for using Q-Chem.  Have a nice day.  *
