 Q-Chem 5.1, Q-Chem, Inc., Pleasanton, CA (2018)
 Q-Chem 5.1.1 for Intel X86 EM64T Linux

User input:
--------------------------------------------------------------

$comment
potential surface scanner
$end

$rem
JOBTYPE  PES_SCAN
UNRESTRICTED TRUE
SYM_IGNORE  TRUE
GEOM_OPT_MAX_CYCLES 400
SCF_MAX_CYCLES 400
METHOD   B3LYP
BASIS   6-31G**
PDB_PRINT 2
SCF_CONVERGENCE 6
THRESH 14
SCF_PRINT 1
$end
$molecule
0 1
S 2.285291 0.169858 0.008984
C -0.640492 0.500986 -0.011292
C 0.430768 -0.578266 -0.023500
C -2.050569 -0.107150 0.011742
H -0.493669 1.146988 0.860646
H -0.528536 1.138954 -0.896126
H 0.410917 -1.197996 0.875344
H 0.381619 -1.222062 -0.903188
H -2.201825 -0.725561 0.903263
H -2.813632 0.677432 0.016956
H -2.227672 -0.739084 -0.865491
H 2.160402 0.839702 -1.154338
$end
$scan
stre 1 3 2.100000 2.101000 0.100000
$end
--------------------------------------------------------------

    9    -517.3348799523      3.59e-07  Convergence criterion met
 Total energy in the final basis set =     -517.3348799523
    9    -517.3273619960      3.72e-07  Convergence criterion met
 Total energy in the final basis set =     -517.3273619960
    9    -517.3273901665      3.64e-07  Convergence criterion met
 Total energy in the final basis set =     -517.3273901665
    9    -517.3274550816      3.57e-07  Convergence criterion met
 Total energy in the final basis set =     -517.3274550816
    9    -517.3274572516      3.57e-07  Convergence criterion met
 Total energy in the final basis set =     -517.3274572516

             Standard Nuclear Orientation (Angstroms)
    I     Atom           X                Y                Z
 ----------------------------------------------------------------
    1      S       2.3467029248     0.2019912061     0.0059907161
    2      C      -0.6487269957     0.4924236350    -0.0105421776
    3      C       0.4046434256    -0.5965688577    -0.0205883999
    4      C      -2.0652636736    -0.1051561772     0.0132746100
    5      H      -0.4976179535     1.1369008461     0.8613296387
    6      H      -0.5323118245     1.1274811854    -0.8962505207
    7      H       0.4130472166    -1.2085364971     0.8818642857
    8      H       0.3897333790    -1.2297458373    -0.9073863604
    9      H      -2.2221612433    -0.7209718030     0.9053990138
   10      H      -2.8196763228     0.6877734997     0.0180794821
   11      H      -2.2484863713    -0.7353596241    -0.8637476794
   12      H       2.1927194386     0.8535694241    -1.1644226084
 ----------------------------------------------------------------

    9    -517.3274576149      3.57e-07  Convergence criterion met
 Total energy in the final basis set =     -517.3274576149

                    Orbital Energies (a.u.)
 --------------------------------------------------------------

 Alpha MOs
 -- Occupied --
-88.869 -10.234 -10.198 -10.188  -7.929  -5.894  -5.891  -5.884
 -0.800  -0.720  -0.660  -0.596  -0.479  -0.437  -0.410  -0.400
 -0.374  -0.358  -0.345  -0.301  -0.233

 Beta MOs
 -- Occupied --
-88.869 -10.234 -10.198 -10.188  -7.929  -5.894  -5.891  -5.884
 -0.800  -0.720  -0.660  -0.596  -0.479  -0.437  -0.410  -0.400
 -0.374  -0.358  -0.345  -0.301  -0.233

          Ground-State Mulliken Net Atomic Charges

     Atom                 Charge (a.u.)    Spin (a.u.)
  --------------------------------------------------------
      1 S                    -0.132124       0.000000
      2 C                    -0.164797      -0.000000
      3 C                    -0.285452       0.000000
      4 C                    -0.324590       0.000000
      5 H                     0.123713       0.000000
      6 H                     0.106121      -0.000000
      7 H                     0.143296      -0.000000
      8 H                     0.143589       0.000000
      9 H                     0.110097      -0.000000
     10 H                     0.113802      -0.000000
     11 H                     0.108145      -0.000000
     12 H                     0.058200      -0.000000
  --------------------------------------------------------
  Sum of atomic charges =     0.000000

                    Cartesian Multipole Moments
 -----------------------------------------------------------------
    Charge (ESU x 10^10)
                 0.0000
    Dipole Moment (Debye)
         X      -2.2668      Y      -0.1748      Z      -0.7391
       Tot       2.3907
    Quadrupole Moments (Debye-Ang)
        XX     -39.8554     XY       0.5749     YY     -34.0441
        XZ      -1.7092     YZ      -1.6767     ZZ     -32.7475

 Final energy is   -517.327457614905
 **  OPTIMIZATION CONVERGED  **
 Total job time:  18.07s(wall), 207.70s(cpu)
        *  Thank you very much for using Q-Chem.  Have a nice day.  *
