 Q-Chem 5.1, Q-Chem, Inc., Pleasanton, CA (2018)
 Q-Chem 5.1.1 for Intel X86 EM64T Linux

User input:
--------------------------------------------------------------

$comment
potential surface scanner
$end

$rem
JOBTYPE  PES_SCAN
UNRESTRICTED TRUE
SYM_IGNORE  TRUE
GEOM_OPT_MAX_CYCLES 400
SCF_MAX_CYCLES 400
METHOD   B3LYP
BASIS   6-31G**
PDB_PRINT 2
SCF_CONVERGENCE 6
THRESH 14
SCF_PRINT 1
$end
$molecule
0 3
S 4.203972 0.940374 -0.127458
C -1.010207 0.262909 -0.014802
C -0.108555 -0.925844 -0.030817
C -2.508755 -0.099725 0.118741
H -0.738221 0.925849 0.816996
H -0.876889 0.845904 -0.935989
H 0.255375 -1.363709 0.893020
H 0.074335 -1.474792 -0.949273
H -2.698288 -0.650158 1.045745
H -3.128225 0.804116 0.126909
H -2.836486 -0.728226 -0.715505
H 4.084546 1.367102 -1.404567
$end
$scan
stre 1 3 4.600000 4.601000 0.100000
$end
--------------------------------------------------------------

   10    -517.2242237380      5.62e-07  Convergence criterion met
 Total energy in the final basis set =     -517.2242237380
   10    -517.2235507336      5.41e-07  Convergence criterion met
 Total energy in the final basis set =     -517.2235507336
   10    -517.2239990768      5.36e-07  Convergence criterion met
 Total energy in the final basis set =     -517.2239990768
   10    -517.2241855382      5.24e-07  Convergence criterion met
 Total energy in the final basis set =     -517.2241855382
   10    -517.2241900864      5.24e-07  Convergence criterion met
 Total energy in the final basis set =     -517.2241900864
   10    -517.2241989066      5.25e-07  Convergence criterion met
 Total energy in the final basis set =     -517.2241989066
   10    -517.2242013505      5.25e-07  Convergence criterion met
 Total energy in the final basis set =     -517.2242013505
   10    -517.2242066668      5.27e-07  Convergence criterion met
 Total energy in the final basis set =     -517.2242066668
   10    -517.2242104867      5.28e-07  Convergence criterion met
 Total energy in the final basis set =     -517.2242104867
   10    -517.2242140824      5.29e-07  Convergence criterion met
 Total energy in the final basis set =     -517.2242140824
   10    -517.2242157778      5.29e-07  Convergence criterion met
 Total energy in the final basis set =     -517.2242157778

             Standard Nuclear Orientation (Angstroms)
    I     Atom           X                Y                Z
 ----------------------------------------------------------------
    1      S       4.1227265640     0.9140163195    -0.1170244446
    2      C      -0.9987059348     0.2670786011    -0.0179990712
    3      C      -0.0950139441    -0.9200967990    -0.0351789704
    4      C      -2.4963790426    -0.0979512631     0.1183695084
    5      H      -0.7259634940     0.9310377151     0.8126320614
    6      H      -0.8682841335     0.8498240175    -0.9398604696
    7      H       0.2809907728    -1.3501299002     0.8874301009
    8      H       0.0782330380    -1.4754956934    -0.9516534798
    9      H      -2.6834174450    -0.6482154071     1.0459772319
   10      H      -3.1174078395     0.8048253185     0.1270572291
   11      H      -2.8245756646    -0.7274567198    -0.7149601645
   12      H       4.0403991233     1.3563638109    -1.3917895317
 ----------------------------------------------------------------

   10    -517.2242165385      5.28e-07  Convergence criterion met
 Total energy in the final basis set =     -517.2242165385

                    Orbital Energies (a.u.)
 --------------------------------------------------------------

 Alpha MOs
 -- Occupied --
-88.909 -10.183 -10.182 -10.174  -7.971  -5.942  -5.932  -5.923
 -0.776  -0.737  -0.669  -0.575  -0.458  -0.424  -0.412  -0.389
 -0.374  -0.346  -0.329  -0.319  -0.271  -0.194

 Beta MOs
 -- Occupied --
-88.904 -10.183 -10.173 -10.168  -7.965  -5.929  -5.924  -5.920
 -0.765  -0.697  -0.651  -0.561  -0.454  -0.418  -0.398  -0.384
 -0.363  -0.340  -0.326  -0.257

          Ground-State Mulliken Net Atomic Charges

     Atom                 Charge (a.u.)    Spin (a.u.)
  --------------------------------------------------------
      1 S                    -0.073011       1.028725
      2 C                    -0.188452      -0.074254
      3 C                    -0.214923       1.080116
      4 C                    -0.307002       0.049467
      5 H                     0.102223       0.011782
      6 H                     0.099482       0.015020
      7 H                     0.102083      -0.048067
      8 H                     0.098009      -0.047985
      9 H                     0.105304      -0.000356
     10 H                     0.099147       0.013571
     11 H                     0.104246      -0.000580
     12 H                     0.072894      -0.027438
  --------------------------------------------------------
  Sum of atomic charges =    -0.000000

                    Cartesian Multipole Moments
 -----------------------------------------------------------------
    Charge (ESU x 10^10)
                -0.0000
    Dipole Moment (Debye)
         X      -0.2303      Y       0.4046      Z      -0.9470
       Tot       1.0553
    Quadrupole Moments (Debye-Ang)
        XX     -37.0819     XY      -0.2157     YY     -33.3280
        XZ      -4.0520     YZ      -1.2638     ZZ     -31.7123

 Final energy is   -517.224216538495
 **  OPTIMIZATION CONVERGED  **
 Total job time:  36.20s(wall), 414.18s(cpu)
        *  Thank you very much for using Q-Chem.  Have a nice day.  *
