 Q-Chem 5.1, Q-Chem, Inc., Pleasanton, CA (2018)
 Q-Chem 5.1.1 for Intel X86 EM64T Linux

User input:
--------------------------------------------------------------

$comment
potential surface scanner
$end

$rem
JOBTYPE  PES_SCAN
UNRESTRICTED TRUE
SYM_IGNORE  TRUE
GEOM_OPT_MAX_CYCLES 400
SCF_MAX_CYCLES 400
METHOD   B3LYP
BASIS   6-31G**
PDB_PRINT 2
SCF_CONVERGENCE 6
THRESH 14
SCF_PRINT 1
$end
$molecule
0 1
S 3.905390 0.799262 -0.123576
C -0.944132 0.317465 -0.004388
C -0.062750 -0.853575 -0.014072
C -2.444608 -0.123613 0.095431
H -0.721546 0.958848 0.855046
H -0.821234 0.903199 -0.921175
H 0.264592 -1.318558 0.910139
H 0.197458 -1.359714 -0.938055
H -2.628577 -0.690158 1.011438
H -3.071022 0.773213 0.107292
H -2.731979 -0.738977 -0.760453
H 3.771012 1.236410 -1.394622
$end
$scan
stre 1 3 4.400000 4.401000 0.100000
$end
--------------------------------------------------------------

   18    -517.1963288808      5.78e-07  Convergence criterion met
 Total energy in the final basis set =     -517.1963288808
   19    -517.1940741072      2.13e-07  Convergence criterion met
 Total energy in the final basis set =     -517.1940741072
   19    -517.1941341896      2.56e-07  Convergence criterion met
 Total energy in the final basis set =     -517.1941341896
   21    -517.1942001787      3.64e-07  Convergence criterion met
 Total energy in the final basis set =     -517.1942001787
   26    -517.1942066585      1.96e-07  Convergence criterion met
 Total energy in the final basis set =     -517.1942066585
   21    -517.1942197575      1.69e-07  Convergence criterion met
 Total energy in the final basis set =     -517.1942197575
   21    -517.1942229355      1.58e-07  Convergence criterion met
 Total energy in the final basis set =     -517.1942229355
   21    -517.1942256144      1.98e-07  Convergence criterion met
   21    -517.1942291346      5.48e-07  Convergence criterion met
 Total energy in the final basis set =     -517.1942291346
   21    -517.1942305528      1.42e-07  Convergence criterion met
 Total energy in the final basis set =     -517.1942305528
   21    -517.1942326728      6.30e-07  Convergence criterion met
 Total energy in the final basis set =     -517.1942326728
   21    -517.1942357072      1.99e-07  Convergence criterion met
 Total energy in the final basis set =     -517.1942357072
   21    -517.1942397801      6.81e-07  Convergence criterion met
 Total energy in the final basis set =     -517.1942397801
   21    -517.1942425574      9.74e-07  Convergence criterion met
 Total energy in the final basis set =     -517.1942425574

             Standard Nuclear Orientation (Angstroms)
    I     Atom           X                Y                Z
 ----------------------------------------------------------------
    1      S       3.9765718182     0.8297299128    -0.1267201296
    2      C      -0.9588958620     0.3082191244    -0.0079990807
    3      C      -0.0820996335    -0.8659213217    -0.0173960821
    4      C      -2.4615260035    -0.1236975801     0.1027227867
    5      H      -0.7286238522     0.9524467178     0.8475198557
    6      H      -0.8390117251     0.8895350810    -0.9280963779
    7      H       0.2490084745    -1.3279779647     0.9070089394
    8      H       0.1771391854    -1.3732531560    -0.9410479155
    9      H      -2.6430687671    -0.6855253238     1.0220831931
   10      H      -3.0825600414     0.7768680845     0.1145909741
   11      H      -2.7572132775    -0.7408607760    -0.7489846068
   12      H       3.8628836841     1.2642392018    -1.4006765566
 ----------------------------------------------------------------

   21    -517.1942433999      8.73e-07  Convergence criterion met
 Total energy in the final basis set =     -517.1942433999

                    Orbital Energies (a.u.)
 --------------------------------------------------------------

 Alpha MOs
 -- Occupied --
-88.830 -10.277 -10.236 -10.224  -7.889  -5.853  -5.852  -5.844
 -0.833  -0.719  -0.644  -0.627  -0.518  -0.479  -0.444  -0.418
 -0.400  -0.382  -0.337  -0.200  -0.196

 Beta MOs
 -- Occupied --
-88.830 -10.277 -10.236 -10.224  -7.889  -5.853  -5.852  -5.844
 -0.833  -0.719  -0.644  -0.627  -0.518  -0.479  -0.444  -0.418
 -0.400  -0.382  -0.337  -0.200  -0.196

          Ground-State Mulliken Net Atomic Charges

     Atom                 Charge (a.u.)    Spin (a.u.)
  --------------------------------------------------------
      1 S                    -0.384728       0.000104
      2 C                    -0.222532       0.000000
      3 C                    -0.134677      -0.000095
      4 C                    -0.326155      -0.000006
      5 H                     0.153864      -0.000001
      6 H                     0.146683      -0.000001
      7 H                     0.168630       0.000001
      8 H                     0.165951       0.000001
      9 H                     0.128685      -0.000000
     10 H                     0.135757      -0.000002
     11 H                     0.127901      -0.000000
     12 H                     0.040619      -0.000000
  --------------------------------------------------------
  Sum of atomic charges =     0.000000

                    Cartesian Multipole Moments
 -----------------------------------------------------------------
    Charge (ESU x 10^10)
                 0.0000
    Dipole Moment (Debye)
         X      -7.5210      Y      -1.7638      Z      -0.5993
       Tot       7.7483
    Quadrupole Moments (Debye-Ang)
        XX     -58.1445     XY      -4.1186     YY     -34.7597
        XZ      -2.2331     YZ      -1.6144     ZZ     -31.7277

 Final energy is   -517.194243399925
 **  OPTIMIZATION CONVERGED  **
 Total job time:  75.63s(wall), 890.70s(cpu)
        *  Thank you very much for using Q-Chem.  Have a nice day.  *
