 Q-Chem 5.1, Q-Chem, Inc., Pleasanton, CA (2018)
 Q-Chem 5.1.1 for Intel X86 EM64T Linux

User input:
--------------------------------------------------------------

$comment
potential surface scanner
$end

$rem
JOBTYPE  PES_SCAN
UNRESTRICTED TRUE
SYM_IGNORE  TRUE
GEOM_OPT_MAX_CYCLES 400
SCF_MAX_CYCLES 400
METHOD   B3LYP
BASIS   6-31G**
PDB_PRINT 2
SCF_CONVERGENCE 6
THRESH 14
SCF_PRINT 1
$end
$molecule
0 3
S 4.517793 1.062050 -0.157186
C -1.050562 0.241606 -0.012731
C -0.163260 -0.957835 -0.023724
C -2.553275 -0.101477 0.128096
H -0.769224 0.907463 0.814259
H -0.912325 0.816152 -0.938139
H 0.145095 -1.431340 0.903104
H 0.047000 -1.487111 -0.947885
H -2.746716 -0.642166 1.059990
H -3.160635 0.810501 0.131632
H -2.891046 -0.731469 -0.700827
H 4.249757 1.417427 -1.433584
$end
$scan
stre 1 3 5.000000 5.001000 0.100000
$end
--------------------------------------------------------------

   11    -517.2242662110      9.32e-07  Convergence criterion met
 Total energy in the final basis set =     -517.2242662110
   10    -517.2237406115      8.11e-07  Convergence criterion met
 Total energy in the final basis set =     -517.2237406115
   10    -517.2240648403      7.85e-07  Convergence criterion met
 Total energy in the final basis set =     -517.2240648403
   10    -517.2242075904      7.52e-07  Convergence criterion met
 Total energy in the final basis set =     -517.2242075904
   10    -517.2242125082      7.53e-07  Convergence criterion met
 Total energy in the final basis set =     -517.2242125082
   10    -517.2242228691      7.53e-07  Convergence criterion met
 Total energy in the final basis set =     -517.2242228691
   10    -517.2242253661      7.54e-07  Convergence criterion met
 Total energy in the final basis set =     -517.2242253661
   10    -517.2242318967      7.61e-07  Convergence criterion met
 Total energy in the final basis set =     -517.2242318967
   10    -517.2242356192      7.66e-07  Convergence criterion met
 Total energy in the final basis set =     -517.2242356192
   10    -517.2242395721      7.70e-07  Convergence criterion met
 Total energy in the final basis set =     -517.2242395721
   10    -517.2242415967      7.70e-07  Convergence criterion met
 Total energy in the final basis set =     -517.2242415967
   10    -517.2242426326      7.68e-07  Convergence criterion met
 Total energy in the final basis set =     -517.2242426326

             Standard Nuclear Orientation (Angstroms)
    I     Atom           X                Y                Z
 ----------------------------------------------------------------
    1      S       4.4413968738     1.0290489855    -0.1508039371
    2      C      -1.0417709866     0.2489344453    -0.0124054988
    3      C      -0.1497138771    -0.9472445230    -0.0244326575
    4      C      -2.5426831863    -0.1023597000     0.1250768083
    5      H      -0.7647839901     0.9133807070     0.8169605250
    6      H      -0.9038445602     0.8267029994    -0.9358434253
    7      H       0.1711751798    -1.4130597337     0.9019574684
    8      H       0.0560033792    -1.4803057978    -0.9474085294
    9      H      -2.7342714549    -0.6475795246     1.0547604840
   10      H      -3.1556782753     0.8058654924     0.1308104622
   11      H      -2.8760773516    -0.7321013589    -0.7059025535
   12      H       4.2128502492     1.4025190082    -1.4297641463
 ----------------------------------------------------------------

   10    -517.2242431850      7.66e-07  Convergence criterion met
 Total energy in the final basis set =     -517.2242431850

                    Orbital Energies (a.u.)
 --------------------------------------------------------------

 Alpha MOs
 -- Occupied --
-88.910 -10.183 -10.183 -10.175  -7.971  -5.942  -5.932  -5.923
 -0.776  -0.737  -0.670  -0.576  -0.459  -0.425  -0.412  -0.390
 -0.375  -0.346  -0.330  -0.320  -0.272  -0.195

 Beta MOs
 -- Occupied --
-88.904 -10.184 -10.173 -10.169  -7.966  -5.929  -5.925  -5.920
 -0.766  -0.697  -0.652  -0.562  -0.454  -0.419  -0.398  -0.385
 -0.364  -0.341  -0.327  -0.257

          Ground-State Mulliken Net Atomic Charges

     Atom                 Charge (a.u.)    Spin (a.u.)
  --------------------------------------------------------
      1 S                    -0.073180       1.027813
      2 C                    -0.188741      -0.074179
      3 C                    -0.216961       1.080659
      4 C                    -0.306957       0.049681
      5 H                     0.102704       0.014244
      6 H                     0.099274       0.012297
      7 H                     0.101903      -0.047830
      8 H                     0.099099      -0.047944
      9 H                     0.105403      -0.000577
     10 H                     0.099577       0.013647
     11 H                     0.104746      -0.000414
     12 H                     0.073132      -0.027398
  --------------------------------------------------------
  Sum of atomic charges =    -0.000000

                    Cartesian Multipole Moments
 -----------------------------------------------------------------
    Charge (ESU x 10^10)
                -0.0000
    Dipole Moment (Debye)
         X      -0.3676      Y       0.3471      Z      -0.9580
       Tot       1.0833
    Quadrupole Moments (Debye-Ang)
        XX     -37.7420     XY      -0.7139     YY     -33.7349
        XZ      -4.1354     YZ      -1.2850     ZZ     -31.5965

 Final energy is   -517.224243185018
 **  OPTIMIZATION CONVERGED  **
 Total job time:  38.75s(wall), 443.73s(cpu)
        *  Thank you very much for using Q-Chem.  Have a nice day.  *
