 Q-Chem 5.1, Q-Chem, Inc., Pleasanton, CA (2018)
 Q-Chem 5.1.1 for Intel X86 EM64T Linux

User input:
--------------------------------------------------------------

$comment
potential surface scanner
$end

$rem
JOBTYPE  PES_SCAN
UNRESTRICTED TRUE
SYM_IGNORE  TRUE
GEOM_OPT_MAX_CYCLES 400
SCF_MAX_CYCLES 400
METHOD   B3LYP
BASIS   6-31G**
PDB_PRINT 2
SCF_CONVERGENCE 6
THRESH 14
SCF_PRINT 1
$end
$molecule
0 1
S 2.126400 0.172600 -0.001000
C -0.602600 0.507000 0.001200
C 0.472000 -0.574500 0.001000
C -1.995800 -0.105100 -0.001200
H -0.500600 1.146800 0.886100
H -0.499900 1.148900 -0.882200
H 0.380400 -1.208800 0.888400
H 0.378500 -1.212800 -0.883500
H -2.152000 -0.728200 0.885200
H -2.755700 0.682700 -0.000800
H -2.150200 -0.725500 -0.889800
H 2.012100 0.800700 -1.180400
$end
$scan
stre 1 3 1.800000 1.801000 0.100000
$end
--------------------------------------------------------------

    9    -517.3385956811      3.60e-07  Convergence criterion met
 Total energy in the final basis set =     -517.3385956811
    9    -517.3397526109      3.82e-07  Convergence criterion met
 Total energy in the final basis set =     -517.3397526109
    9    -517.3399268767      3.87e-07  Convergence criterion met
 Total energy in the final basis set =     -517.3399268767
    9    -517.3399489073      3.89e-07  Convergence criterion met
 Total energy in the final basis set =     -517.3399489073
    9    -517.3399510250      3.89e-07  Convergence criterion met
 Total energy in the final basis set =     -517.3399510250
    9    -517.3399537637      3.89e-07  Convergence criterion met
 Total energy in the final basis set =     -517.3399537637
    9    -517.3399560721      3.90e-07  Convergence criterion met
 Total energy in the final basis set =     -517.3399560721
    9    -517.3399575270      3.91e-07  Convergence criterion met
 Total energy in the final basis set =     -517.3399575270

             Standard Nuclear Orientation (Angstroms)
    I     Atom           X                Y                Z
 ----------------------------------------------------------------
    1      S       2.1617397724     0.1073771625     0.0157237528
    2      C      -0.6257535781     0.5169389884    -0.0132513763
    3      C       0.4833127299    -0.5412066794    -0.0314232572
    4      C      -2.0232869685    -0.1120267810     0.0096480715
    5      H      -0.4862142815     1.1661463108     0.8584482949
    6      H      -0.5230623773     1.1597565425    -0.8970242573
    7      H       0.4083507604    -1.1740706946     0.8598677005
    8      H       0.3637683807    -1.2051490908    -0.8943112132
    9      H      -2.1627731005    -0.7355634110     0.8998952801
   10      H      -2.8022386431     0.6566909959     0.0169200855
   11      H      -2.1898163481    -0.7464642419    -0.8681839440
   12      H       2.1085736537     0.8113708985    -1.1333091374
 ----------------------------------------------------------------

    9    -517.3399578617      3.91e-07  Convergence criterion met
 Total energy in the final basis set =     -517.3399578617

                    Orbital Energies (a.u.)
 --------------------------------------------------------------

 Alpha MOs
 -- Occupied --
-88.870 -10.216 -10.192 -10.182  -7.933  -5.898  -5.895  -5.888
 -0.811  -0.742  -0.648  -0.592  -0.478  -0.440  -0.412  -0.403
 -0.374  -0.351  -0.340  -0.318  -0.234

 Beta MOs
 -- Occupied --
-88.870 -10.216 -10.192 -10.182  -7.933  -5.898  -5.895  -5.888
 -0.811  -0.742  -0.648  -0.592  -0.478  -0.440  -0.412  -0.403
 -0.374  -0.351  -0.340  -0.318  -0.234

          Ground-State Mulliken Net Atomic Charges

     Atom                 Charge (a.u.)    Spin (a.u.)
  --------------------------------------------------------
      1 S                    -0.041850      -0.000000
      2 C                    -0.166396       0.000000
      3 C                    -0.331690      -0.000000
      4 C                    -0.322443      -0.000000
      5 H                     0.115559      -0.000000
      6 H                     0.097958      -0.000000
      7 H                     0.137470      -0.000000
      8 H                     0.133256       0.000000
      9 H                     0.107056      -0.000000
     10 H                     0.109515      -0.000000
     11 H                     0.105526       0.000000
     12 H                     0.056040       0.000000
  --------------------------------------------------------
  Sum of atomic charges =     0.000000

                    Cartesian Multipole Moments
 -----------------------------------------------------------------
    Charge (ESU x 10^10)
                 0.0000
    Dipole Moment (Debye)
         X      -1.6717      Y      -0.0286      Z      -0.7385
       Tot       1.8278
    Quadrupole Moments (Debye-Ang)
        XX     -38.5997     XY       0.8517     YY     -34.0561
        XZ      -1.7859     YZ      -1.6153     ZZ     -32.8526

 Final energy is   -517.339957861661
 **  OPTIMIZATION CONVERGED  **
 Total job time:  26.42s(wall), 308.12s(cpu)
        *  Thank you very much for using Q-Chem.  Have a nice day.  *
