 Q-Chem 5.1, Q-Chem, Inc., Pleasanton, CA (2018)
 Q-Chem 5.1.1 for Intel X86 EM64T Linux

User input:
--------------------------------------------------------------

$comment
potential surface scanner
$end

$rem
JOBTYPE  PES_SCAN
UNRESTRICTED TRUE
SYM_IGNORE  TRUE
GEOM_OPT_MAX_CYCLES 400
SCF_MAX_CYCLES 400
METHOD   B3LYP
BASIS   6-31G**
PDB_PRINT 2
SCF_CONVERGENCE 6
THRESH 14
SCF_PRINT 1
$end
$molecule
0 3
S 2.914810 -1.088585 -0.775511
C -0.833847 0.668662 0.151811
C 0.558742 0.085738 -0.175583
C -1.965378 -0.342270 -0.040925
H -0.832788 1.034563 1.186155
H -1.008776 1.545960 -0.483978
H 0.758702 -0.769534 0.480620
H 0.570331 -0.259673 -1.215039
H -1.838563 -1.211750 0.614230
H -2.940347 0.102880 0.183446
H -1.996687 -0.709553 -1.073018
H 1.326405 0.847359 -0.029201
$end
$scan
stre 1 3 2.600000 2.601000 0.100000
$end
--------------------------------------------------------------

   10    -517.2508118124      4.54e-07  Convergence criterion met
 Total energy in the final basis set =     -517.2508118124
    9    -517.2463575610      9.90e-07  Convergence criterion met
 Total energy in the final basis set =     -517.2463575610
    9    -517.2464162545      9.93e-07  Convergence criterion met
 Total energy in the final basis set =     -517.2464162545
   10    -517.2464765667      4.23e-07  Convergence criterion met
 Total energy in the final basis set =     -517.2464765667
   10    -517.2464976148      4.14e-07  Convergence criterion met
 Total energy in the final basis set =     -517.2464976148

             Standard Nuclear Orientation (Angstroms)
    I     Atom           X                Y                Z
 ----------------------------------------------------------------
    1      S       2.8365148481    -1.0558598040    -0.7585292279
    2      C      -0.8250978848     0.6652969259     0.1500306914
    3      C       0.5707193991     0.0796527323    -0.1781990566
    4      C      -1.9572383130    -0.3443874429    -0.0426237383
    5      H      -0.8218169374     1.0310627041     1.1843435208
    6      H      -0.9973729192     1.5426533146    -0.4862881670
    7      H       0.7589896095    -0.7740059159     0.4826140652
    8      H       0.5699035693    -0.2641769093    -1.2177575632
    9      H      -1.8315357846    -1.2140499180     0.6124836674
   10      H      -2.9315436606     0.1020689539     0.1820593468
   11      H      -1.9894857700    -0.7114715243    -1.0747528491
   12      H       1.3305678436     0.8470138835    -0.0303736896
 ----------------------------------------------------------------

   10    -517.2465014396      4.09e-07  Convergence criterion met
 Total energy in the final basis set =     -517.2465014396

                    Orbital Energies (a.u.)
 --------------------------------------------------------------

 Alpha MOs
 -- Occupied --
-88.906 -10.192 -10.188 -10.178  -7.967  -5.936  -5.935  -5.917
 -0.789  -0.718  -0.679  -0.592  -0.466  -0.447  -0.413  -0.396
 -0.356  -0.350  -0.340  -0.306  -0.277  -0.263

 Beta MOs
 -- Occupied --
-88.896 -10.191 -10.187 -10.178  -7.956  -5.915  -5.915  -5.911
 -0.786  -0.694  -0.620  -0.581  -0.464  -0.444  -0.406  -0.392
 -0.349  -0.341  -0.337  -0.237

          Ground-State Mulliken Net Atomic Charges

     Atom                 Charge (a.u.)    Spin (a.u.)
  --------------------------------------------------------
      1 S                    -0.062740       1.906136
      2 C                    -0.187847       0.048093
      3 C                    -0.368924       0.034459
      4 C                    -0.311773      -0.001065
      5 H                     0.102978       0.001611
      6 H                     0.102965       0.001867
      7 H                     0.131629       0.002681
      8 H                     0.133227       0.002687
      9 H                     0.105659       0.000429
     10 H                     0.105242       0.001626
     11 H                     0.105599       0.000448
     12 H                     0.143985       0.001029
  --------------------------------------------------------
  Sum of atomic charges =    -0.000000

                    Cartesian Multipole Moments
 -----------------------------------------------------------------
    Charge (ESU x 10^10)
                 0.0000
    Dipole Moment (Debye)
         X      -1.1553      Y       0.5746      Z       0.2933
       Tot       1.3232
    Quadrupole Moments (Debye-Ang)
        XX     -37.9088     XY       0.5477     YY     -35.8382
        XZ       0.7746     YZ      -1.1420     ZZ     -33.4939

 Final energy is   -517.246501439613
 **  OPTIMIZATION CONVERGED  **
 Total job time:  19.12s(wall), 218.16s(cpu)
        *  Thank you very much for using Q-Chem.  Have a nice day.  *
