 Q-Chem 5.1, Q-Chem, Inc., Pleasanton, CA (2018)
 Q-Chem 5.1.1 for Intel X86 EM64T Linux

User input:
--------------------------------------------------------------

$comment
potential surface scanner
$end

$rem
JOBTYPE  PES_SCAN
UNRESTRICTED TRUE
SYM_IGNORE  TRUE
GEOM_OPT_MAX_CYCLES 400
SCF_MAX_CYCLES 400
METHOD   B3LYP
BASIS   6-31G**
PDB_PRINT 2
SCF_CONVERGENCE 6
THRESH 14
SCF_PRINT 1
$end
$molecule
0 3
S 4.672447 1.122810 -0.176113
C -1.069779 0.229489 -0.010859
C -0.191461 -0.976681 -0.019457
C -2.574938 -0.101182 0.130484
H -0.783033 0.894453 0.815083
H -0.926091 0.802420 -0.936347
H 0.105179 -1.456753 0.907841
H 0.028794 -1.499277 -0.945009
H -2.773082 -0.638418 1.063401
H -3.174712 0.815862 0.132872
H -2.918286 -0.729289 -0.697567
H 4.317567 1.440367 -1.441322
$end
$scan
stre 1 3 5.200000 5.201000 0.100000
$end
--------------------------------------------------------------

   30    -517.2242868697      9.83e-08  Convergence criterion met
 Total energy in the final basis set =     -517.2242868697
   30    -517.2237137099      5.24e-07  Convergence criterion met
 Total energy in the final basis set =     -517.2237137099
   31    -517.2240596769      5.95e-07  Convergence criterion met
 Total energy in the final basis set =     -517.2240596769
   30    -517.2242301594      2.24e-07  Convergence criterion met
 Total energy in the final basis set =     -517.2242301594
   30    -517.2242407776      2.35e-07  Convergence criterion met
 Total energy in the final basis set =     -517.2242407776
   30    -517.2242569964      2.97e-07  Convergence criterion met
 Total energy in the final basis set =     -517.2242569964

             Standard Nuclear Orientation (Angstroms)
    I     Atom           X                Y                Z
 ----------------------------------------------------------------
    1      S       4.5981659532     1.0951629099    -0.1661924089
    2      C      -1.0587292310     0.2387442345    -0.0140589795
    3      C      -0.1747796551    -0.9635616660    -0.0225018422
    4      C      -2.5611209407    -0.1027233602     0.1298481414
    5      H      -0.7751895392     0.9049712098     0.8119439975
    6      H      -0.9186591004     0.8143342252    -0.9383613764
    7      H       0.1069909781    -1.4499723551     0.9063857430
    8      H       0.0292091645    -1.4985370056    -0.9449525607
    9      H      -2.7531245783    -0.6426487716     1.0625594200
   10      H      -3.1682109345     0.8094882833     0.1343600473
   11      H      -2.9016310071    -0.7333523245    -0.6975393497
   12      H       4.2896838905     1.4318956203    -1.4384838320
 ----------------------------------------------------------------

   30    -517.2242577591      2.83e-07  Convergence criterion met
 Total energy in the final basis set =     -517.2242577591

                    Orbital Energies (a.u.)
 --------------------------------------------------------------

 Alpha MOs
 -- Occupied --
-88.910 -10.184 -10.183 -10.175  -7.971  -5.943  -5.933  -5.923
 -0.777  -0.737  -0.670  -0.577  -0.459  -0.425  -0.412  -0.390
 -0.376  -0.347  -0.330  -0.320  -0.272  -0.196

 Beta MOs
 -- Occupied --
-88.904 -10.184 -10.174 -10.169  -7.966  -5.929  -5.925  -5.920
 -0.767  -0.697  -0.652  -0.563  -0.455  -0.419  -0.398  -0.385
 -0.364  -0.341  -0.328  -0.257

          Ground-State Mulliken Net Atomic Charges

     Atom                 Charge (a.u.)    Spin (a.u.)
  --------------------------------------------------------
      1 S                    -0.073269       1.027616
      2 C                    -0.188957      -0.073799
      3 C                    -0.216749       1.079984
      4 C                    -0.307226       0.049748
      5 H                     0.103368       0.015203
      6 H                     0.099238       0.010948
      7 H                     0.101337      -0.047415
      8 H                     0.098903      -0.047569
      9 H                     0.105356      -0.000716
     10 H                     0.099903       0.013762
     11 H                     0.104848      -0.000371
     12 H                     0.073248      -0.027392
  --------------------------------------------------------
  Sum of atomic charges =    -0.000000

                    Cartesian Multipole Moments
 -----------------------------------------------------------------
    Charge (ESU x 10^10)
                 0.0000
    Dipole Moment (Debye)
         X      -0.4575      Y       0.3170      Z      -0.9529
       Tot       1.1035
    Quadrupole Moments (Debye-Ang)
        XX     -38.5960     XY      -0.6913     YY     -33.4513
        XZ      -3.9616     YZ      -1.1902     ZZ     -31.6054

 Final energy is   -517.224257759074
 **  OPTIMIZATION CONVERGED  **
 Total job time:  45.92s(wall), 534.88s(cpu)
        *  Thank you very much for using Q-Chem.  Have a nice day.  *
