 Q-Chem 5.1, Q-Chem, Inc., Pleasanton, CA (2018)
 Q-Chem 5.1.1 for Intel X86 EM64T Linux

User input:
--------------------------------------------------------------

$comment
potential surface scanner
$end

$rem
JOBTYPE  PES_SCAN
UNRESTRICTED TRUE
SYM_IGNORE  TRUE
GEOM_OPT_MAX_CYCLES 400
SCF_MAX_CYCLES 400
METHOD   B3LYP
BASIS   6-31G**
PDB_PRINT 2
SCF_CONVERGENCE 6
THRESH 14
SCF_PRINT 1
$end
$molecule
0 1
S 3.536775 0.665621 -0.087265
C -0.872322 0.360934 0.001500
C 0.030337 -0.796924 -0.010763
C -2.359543 -0.120941 0.069395
H -0.673946 0.993766 0.871998
H -0.744534 0.961684 -0.904236
H 0.338367 -1.278143 0.911545
H 0.285862 -1.304011 -0.935489
H -2.545160 -0.705444 0.974029
H -3.011625 0.757392 0.083401
H -2.618089 -0.731477 -0.799424
H 3.346479 1.101347 -1.351686
$end
$scan
stre 1 3 3.900000 3.901000 0.100000
$end
--------------------------------------------------------------

   13    -517.2102692036      7.20e-07  Convergence criterion met
 Total energy in the final basis set =     -517.2102692036
   12    -517.2067840578      3.92e-07  Convergence criterion met
 Total energy in the final basis set =     -517.2067840578
   12    -517.2068198829      4.98e-07  Convergence criterion met
 Total energy in the final basis set =     -517.2068198829
   14    -517.2069092546      6.59e-07  Convergence criterion met
 Total energy in the final basis set =     -517.2069092546
   14    -517.2069157905      7.74e-07  Convergence criterion met
 Total energy in the final basis set =     -517.2069157905
   14    -517.2069307371      8.45e-07  Convergence criterion met
 Total energy in the final basis set =     -517.2069307371
   14    -517.2069350975      7.19e-07  Convergence criterion met
 Total energy in the final basis set =     -517.2069350975
   13    -517.2069396956      9.18e-07  Convergence criterion met
   13    -517.2069431669      6.80e-07  Convergence criterion met
 Total energy in the final basis set =     -517.2069431669
   13    -517.2069465448      5.57e-07  Convergence criterion met
 Total energy in the final basis set =     -517.2069465448
   13    -517.2069490297      5.04e-07  Convergence criterion met
 Total energy in the final basis set =     -517.2069490297
   13    -517.2069515637      4.45e-07  Convergence criterion met
 Total energy in the final basis set =     -517.2069515637
   13    -517.2069541493      3.59e-07  Convergence criterion met
 Total energy in the final basis set =     -517.2069541493
   13    -517.2069560565      2.88e-07  Convergence criterion met
 Total energy in the final basis set =     -517.2069560565

             Standard Nuclear Orientation (Angstroms)
    I     Atom           X                Y                Z
 ----------------------------------------------------------------
    1      S       3.6131582829     0.6890447042    -0.0989074133
    2      C      -0.8870376292     0.3533602582     0.0036978749
    3      C       0.0123186107    -0.8062049862    -0.0084590467
    4      C      -2.3768412280    -0.1223870476     0.0722133037
    5      H      -0.6870802080     0.9863082704     0.8739173694
    6      H      -0.7585491542     0.9531003383    -0.9027937149
    7      H       0.3271179019    -1.2829305405     0.9139315005
    8      H       0.2687735774    -1.3126593970    -0.9333069117
    9      H      -2.5644020440    -0.7054105212     0.9773114472
   10      H      -3.0247927360     0.7589949427     0.0855456661
   11      H      -2.6375427961    -0.7324456750    -0.7962119265
   12      H       3.4274784227     1.1250336538    -1.3639331487
 ----------------------------------------------------------------

   13    -517.2069567680      2.66e-07  Convergence criterion met
 Total energy in the final basis set =     -517.2069567680

                    Orbital Energies (a.u.)
 --------------------------------------------------------------

 Alpha MOs
 -- Occupied --
-88.834 -10.278 -10.233 -10.222  -7.893  -5.857  -5.856  -5.848
 -0.832  -0.717  -0.647  -0.625  -0.516  -0.477  -0.441  -0.417
 -0.398  -0.379  -0.340  -0.207  -0.199

 Beta MOs
 -- Occupied --
-88.834 -10.278 -10.233 -10.222  -7.893  -5.857  -5.856  -5.848
 -0.832  -0.717  -0.647  -0.625  -0.516  -0.477  -0.441  -0.417
 -0.398  -0.379  -0.340  -0.207  -0.199

          Ground-State Mulliken Net Atomic Charges

     Atom                 Charge (a.u.)    Spin (a.u.)
  --------------------------------------------------------
      1 S                    -0.393729       0.000000
      2 C                    -0.221466       0.000000
      3 C                    -0.125915      -0.000000
      4 C                    -0.329485      -0.000000
      5 H                     0.154392      -0.000000
      6 H                     0.147150      -0.000000
      7 H                     0.170698       0.000000
      8 H                     0.167336       0.000000
      9 H                     0.127875      -0.000000
     10 H                     0.135808      -0.000000
     11 H                     0.126831      -0.000000
     12 H                     0.040505      -0.000000
  --------------------------------------------------------
  Sum of atomic charges =    -0.000000

                    Cartesian Multipole Moments
 -----------------------------------------------------------------
    Charge (ESU x 10^10)
                 0.0000
    Dipole Moment (Debye)
         X      -6.8787      Y      -1.5102      Z      -0.6285
       Tot       7.0705
    Quadrupole Moments (Debye-Ang)
        XX     -54.1014     XY      -2.9923     YY     -34.4594
        XZ      -2.0597     YZ      -1.6058     ZZ     -31.8197

 Final energy is   -517.206956767973
 **  OPTIMIZATION CONVERGED  **
 Total job time:  53.46s(wall), 622.46s(cpu)
        *  Thank you very much for using Q-Chem.  Have a nice day.  *
