 Q-Chem 5.1, Q-Chem, Inc., Pleasanton, CA (2018)
 Q-Chem 5.1.1 for Intel X86 EM64T Linux

User input:
--------------------------------------------------------------

$comment
potential surface scanner
$end

$rem
JOBTYPE  PES_SCAN
UNRESTRICTED TRUE
SYM_IGNORE  TRUE
GEOM_OPT_MAX_CYCLES 400
SCF_MAX_CYCLES 400
METHOD   B3LYP
BASIS   6-31G**
PDB_PRINT 2
SCF_CONVERGENCE 6
THRESH 14
SCF_PRINT 1
$end
$molecule
0 3
S 4.267432 0.947084 -0.134544
C -1.011685 0.273492 -0.023713
C -0.155653 -0.914537 -0.031213
C -2.521564 -0.122327 0.129257
H -0.751630 0.928674 0.815528
H -0.902037 0.836888 -0.956528
H 0.189372 -1.365846 0.893439
H 0.087342 -1.432572 -0.953292
H -2.693063 -0.662585 1.063225
H -3.121914 0.792161 0.137615
H -2.849172 -0.748999 -0.703466
H 4.175176 1.372368 -1.413301
$end
$scan
stre 1 3 5.400000 5.401000 0.100000
$end
--------------------------------------------------------------

   10    -517.2231454523      5.83e-07  Convergence criterion met
 Total energy in the final basis set =     -517.2231454523
   10    -517.2205298824      5.61e-07  Convergence criterion met
 Total energy in the final basis set =     -517.2205298824
   10    -517.2181098051      6.10e-07  Convergence criterion met
 Total energy in the final basis set =     -517.2181098051
   10    -517.2184213823      7.66e-07  Convergence criterion met
 Total energy in the final basis set =     -517.2184213823
   10    -517.2210773526      8.96e-07  Convergence criterion met
 Total energy in the final basis set =     -517.2210773526
   10    -517.2222450748      9.13e-07  Convergence criterion met
 Total energy in the final basis set =     -517.2222450748
   10    -517.2225332007      9.44e-07  Convergence criterion met
 Total energy in the final basis set =     -517.2225332007
   11    -517.2228561115      9.37e-07  Convergence criterion met
   32    -517.2242737034      4.23e-07  Convergence criterion met
 Total energy in the final basis set =     -517.2242737034
   32    -517.2242876000      2.75e-07  Convergence criterion met
 Total energy in the final basis set =     -517.2242876000
   32    -517.2242931130      2.79e-07  Convergence criterion met
 Total energy in the final basis set =     -517.2242931130
   32    -517.2242971649      2.25e-07  Convergence criterion met
 Total energy in the final basis set =     -517.2242971649
   32    -517.2243002184      9.32e-08  Convergence criterion met
 Total energy in the final basis set =     -517.2243002184
   32    -517.2243017143      5.54e-08  Convergence criterion met
 Total energy in the final basis set =     -517.2243017143

             Standard Nuclear Orientation (Angstroms)
    I     Atom           X                Y                Z
 ----------------------------------------------------------------
    1      S       4.7497911773     1.1542243308    -0.1862810749
    2      C      -1.0798861128     0.2235770142    -0.0114096030
    3      C      -0.2055957486    -0.9849592023    -0.0188548660
    4      C      -2.5857344427    -0.1016355085     0.1331159773
    5      H      -0.7904004388     0.8886293773     0.8144196634
    6      H      -0.9349440230     0.7971026009    -0.9365564956
    7      H       0.0723674734    -1.4730074528     0.9101497465
    8      H       0.0238579479    -1.5038945209    -0.9441399537
    9      H      -2.7847852228    -0.6361494197     1.0676061438
   10      H      -3.1821774412     0.8171859309     0.1339981283
   11      H      -2.9326802757    -0.7313748602    -0.6923768906
   12      H       4.3627911068     1.4541027103    -1.4466637755
 ----------------------------------------------------------------

   32    -517.2243024436      1.29e-07  Convergence criterion met
 Total energy in the final basis set =     -517.2243024436

                    Orbital Energies (a.u.)
 --------------------------------------------------------------

 Alpha MOs
 -- Occupied --
-88.910 -10.184 -10.183 -10.175  -7.971  -5.943  -5.933  -5.924
 -0.777  -0.737  -0.671  -0.577  -0.459  -0.425  -0.412  -0.391
 -0.376  -0.347  -0.330  -0.320  -0.272  -0.196

 Beta MOs
 -- Occupied --
-88.905 -10.185 -10.174 -10.170  -7.966  -5.930  -5.925  -5.920
 -0.767  -0.698  -0.652  -0.563  -0.455  -0.420  -0.398  -0.385
 -0.364  -0.342  -0.328  -0.257

          Ground-State Mulliken Net Atomic Charges

     Atom                 Charge (a.u.)    Spin (a.u.)
  --------------------------------------------------------
      1 S                    -0.073414       1.027517
      2 C                    -0.188690      -0.074294
      3 C                    -0.218018       1.080810
      4 C                    -0.307061       0.049696
      5 H                     0.103369       0.016475
      6 H                     0.099044       0.010460
      7 H                     0.101560      -0.047745
      8 H                     0.099480      -0.047970
      9 H                     0.105348      -0.000743
     10 H                     0.099981       0.013466
     11 H                     0.104996      -0.000267
     12 H                     0.073403      -0.027406
  --------------------------------------------------------
  Sum of atomic charges =     0.000000

                    Cartesian Multipole Moments
 -----------------------------------------------------------------
    Charge (ESU x 10^10)
                -0.0000
    Dipole Moment (Debye)
         X      -0.5007      Y       0.2996      Z      -0.9479
       Tot       1.1131
    Quadrupole Moments (Debye-Ang)
        XX     -39.1067     XY      -0.9174     YY     -33.5778
        XZ      -3.8803     YZ      -1.1324     ZZ     -31.6158

 Final energy is   -517.224302443564
 **  OPTIMIZATION CONVERGED  **
 Total job time:  171.14s(wall), 1942.79s(cpu)
        *  Thank you very much for using Q-Chem.  Have a nice day.  *
