 Q-Chem 5.1, Q-Chem, Inc., Pleasanton, CA (2018)
 Q-Chem 5.1.1 for Intel X86 EM64T Linux

User input:
--------------------------------------------------------------

$comment
potential surface scanner
$end

$rem
JOBTYPE  PES_SCAN
UNRESTRICTED TRUE
SYM_IGNORE  TRUE
GEOM_OPT_MAX_CYCLES 400
SCF_MAX_CYCLES 400
METHOD   B3LYP
BASIS   6-31G**
PDB_PRINT 2
SCF_CONVERGENCE 6
THRESH 14
SCF_PRINT 1
$end
$molecule
0 1
S 3.159333 0.545064 -0.036934
C -0.797775 0.398244 -0.008037
C 0.124598 -0.751111 -0.019163
C -2.270773 -0.112334 0.054107
H -0.607398 1.031550 0.863026
H -0.671632 1.004482 -0.909463
H 0.383728 -1.261000 0.902267
H 0.363137 -1.268856 -0.941800
H -2.449110 -0.702541 0.957058
H -2.944387 0.749714 0.068240
H -2.517164 -0.727153 -0.815796
H 2.940042 0.997740 -1.290503
$end
$scan
stre 1 3 3.400000 3.401000 0.100000
$end
--------------------------------------------------------------

   11    -517.2320834629      4.44e-07  Convergence criterion met
 Total energy in the final basis set =     -517.2320834629
   11    -517.2267764081      5.91e-07  Convergence criterion met
 Total energy in the final basis set =     -517.2267764081
   11    -517.2267502293      5.90e-07  Convergence criterion met
 Total energy in the final basis set =     -517.2267502293
   11    -517.2268952935      6.00e-07  Convergence criterion met
 Total energy in the final basis set =     -517.2268952935
   11    -517.2269004079      6.03e-07  Convergence criterion met
 Total energy in the final basis set =     -517.2269004079
   11    -517.2269197289      6.20e-07  Convergence criterion met
 Total energy in the final basis set =     -517.2269197289
   11    -517.2269314675      6.33e-07  Convergence criterion met
 Total energy in the final basis set =     -517.2269314675
   11    -517.2269383748      6.40e-07  Convergence criterion met
 Total energy in the final basis set =     -517.2269383748
   11    -517.2269402482      6.40e-07  Convergence criterion met
 Total energy in the final basis set =     -517.2269402482

             Standard Nuclear Orientation (Angstroms)
    I     Atom           X                Y                Z
 ----------------------------------------------------------------
    1      S       3.2326037519     0.5727561709    -0.0419983648
    2      C      -0.8119383725     0.3904956708    -0.0082955519
    3      C       0.1052867232    -0.7611829606    -0.0197782629
    4      C      -2.2881184923    -0.1136524371     0.0583809908
    5      H      -0.6182723579     1.0241374492     0.8619795428
    6      H      -0.6863850894     0.9946624034    -0.9112960460
    7      H       0.3737699618    -1.2655434611     0.9020685009
    8      H       0.3503311911    -1.2744047745    -0.9432912807
    9      H      -2.4663070651    -0.7019832017     0.9624614234
   10      H      -2.9567268279     0.7522408061     0.0734595229
   11      H      -2.5392086641    -0.7279427654    -0.8104060299
   12      H       3.0175642413     1.0142161000    -1.3002824445
 ----------------------------------------------------------------

   11    -517.2269410520      6.38e-07  Convergence criterion met
 Total energy in the final basis set =     -517.2269410520

                    Orbital Energies (a.u.)
 --------------------------------------------------------------

 Alpha MOs
 -- Occupied --
-88.839 -10.276 -10.228 -10.217  -7.898  -5.862  -5.861  -5.853
 -0.827  -0.712  -0.652  -0.621  -0.511  -0.471  -0.437  -0.413
 -0.393  -0.375  -0.344  -0.219  -0.204

 Beta MOs
 -- Occupied --
-88.839 -10.276 -10.228 -10.217  -7.898  -5.862  -5.861  -5.853
 -0.827  -0.712  -0.652  -0.621  -0.511  -0.471  -0.437  -0.413
 -0.393  -0.375  -0.344  -0.219  -0.204

          Ground-State Mulliken Net Atomic Charges

     Atom                 Charge (a.u.)    Spin (a.u.)
  --------------------------------------------------------
      1 S                    -0.389557      -0.000000
      2 C                    -0.216024       0.000000
      3 C                    -0.119035       0.000000
      4 C                    -0.332606      -0.000000
      5 H                     0.154352       0.000000
      6 H                     0.142833       0.000000
      7 H                     0.169171      -0.000000
      8 H                     0.165967      -0.000000
      9 H                     0.125449       0.000000
     10 H                     0.134040       0.000000
     11 H                     0.124135      -0.000000
     12 H                     0.041273       0.000000
  --------------------------------------------------------
  Sum of atomic charges =    -0.000000

                    Cartesian Multipole Moments
 -----------------------------------------------------------------
    Charge (ESU x 10^10)
                -0.0000
    Dipole Moment (Debye)
         X      -5.9534      Y      -1.2659      Z      -0.7238
       Tot       6.1294
    Quadrupole Moments (Debye-Ang)
        XX     -49.7785     XY      -1.9731     YY     -34.2213
        XZ      -2.0727     YZ      -1.5793     ZZ     -31.9705

 Final energy is   -517.226941051997
 **  OPTIMIZATION CONVERGED  **
 Total job time:  33.28s(wall), 378.60s(cpu)
        *  Thank you very much for using Q-Chem.  Have a nice day.  *
