 Q-Chem 5.1, Q-Chem, Inc., Pleasanton, CA (2018)
 Q-Chem 5.1.1 for Intel X86 EM64T Linux

User input:
--------------------------------------------------------------

$comment
potential surface scanner
$end

$rem
JOBTYPE  PES_SCAN
UNRESTRICTED TRUE
SYM_IGNORE  TRUE
GEOM_OPT_MAX_CYCLES 400
SCF_MAX_CYCLES 400
METHOD   B3LYP
BASIS   6-31G**
PDB_PRINT 2
SCF_CONVERGENCE 6
THRESH 14
SCF_PRINT 1
$end
$molecule
0 3
S 3.538335 1.058709 -0.384486
C -0.796628 0.390573 -0.041089
C 0.182021 -0.717823 -0.246307
C -2.254194 -0.111944 0.097430
H -0.538047 0.956795 0.863093
H -0.746865 1.096424 -0.879291
H 0.494158 -1.333274 0.593310
H 0.356501 -1.122657 -1.239420
H -2.354881 -0.795015 0.946752
H -2.938594 0.728590 0.254384
H -2.572856 -0.647007 -0.802545
H 2.343656 0.400431 -0.338826
$end
$scan
stre 1 3 3.700000 3.701000 0.100000
$end
--------------------------------------------------------------

   10    -517.2280912710      5.45e-07  Convergence criterion met
 Total energy in the final basis set =     -517.2280912710
   10    -517.2266198030      5.68e-07  Convergence criterion met
 Total energy in the final basis set =     -517.2266198030
   10    -517.2278904431      5.65e-07  Convergence criterion met
 Total energy in the final basis set =     -517.2278904431
   10    -517.2282998389      5.52e-07  Convergence criterion met
 Total energy in the final basis set =     -517.2282998389
   10    -517.2283134635      5.49e-07  Convergence criterion met
 Total energy in the final basis set =     -517.2283134635

             Standard Nuclear Orientation (Angstroms)
    I     Atom           X                Y                Z
 ----------------------------------------------------------------
    1      S       3.4474374088     1.0515239842    -0.3636775771
    2      C      -0.7777454221     0.3941587169    -0.0456648288
    3      C       0.1987782175    -0.7159511689    -0.2530199132
    4      C      -2.2352519372    -0.1071270526     0.0977096435
    5      H      -0.5153542187     0.9611400727     0.8567460003
    6      H      -0.7299268312     1.0986372053    -0.8851321472
    7      H       0.5170058393    -1.3272086515     0.5874532248
    8      H       0.3586447499    -1.1302819501    -1.2447711761
    9      H      -2.3341558714    -0.7892331520     0.9479907581
   10      H      -2.9181478327     0.7343606651     0.2558825057
   11      H      -2.5572418792    -0.6425434824    -0.8008681609
   12      H       2.2585637770     0.3763268132    -0.3296433292
 ----------------------------------------------------------------

   10    -517.2283139147      5.49e-07  Convergence criterion met
 Total energy in the final basis set =     -517.2283139147

                    Orbital Energies (a.u.)
 --------------------------------------------------------------

 Alpha MOs
 -- Occupied --
-88.897 -10.205 -10.196 -10.186  -7.958  -5.930  -5.920  -5.910
 -0.792  -0.724  -0.684  -0.592  -0.474  -0.438  -0.404  -0.403
 -0.386  -0.359  -0.343  -0.309  -0.261  -0.217

 Beta MOs
 -- Occupied --
-88.891 -10.197 -10.192 -10.184  -7.952  -5.915  -5.911  -5.907
 -0.781  -0.683  -0.665  -0.579  -0.469  -0.432  -0.399  -0.387
 -0.374  -0.354  -0.341  -0.246

          Ground-State Mulliken Net Atomic Charges

     Atom                 Charge (a.u.)    Spin (a.u.)
  --------------------------------------------------------
      1 S                    -0.093119       1.069992
      2 C                    -0.190013      -0.068178
      3 C                    -0.237896       1.018579
      4 C                    -0.311027       0.050854
      5 H                     0.111651       0.013926
      6 H                     0.110257       0.009936
      7 H                     0.115525      -0.042395
      8 H                     0.116432      -0.042434
      9 H                     0.108902      -0.000970
     10 H                     0.108230       0.013574
     11 H                     0.109229      -0.000678
     12 H                     0.051830      -0.022208
  --------------------------------------------------------
  Sum of atomic charges =    -0.000000

                    Cartesian Multipole Moments
 -----------------------------------------------------------------
    Charge (ESU x 10^10)
                 0.0000
    Dipole Moment (Debye)
         X      -1.9746      Y      -0.7525      Z       0.1021
       Tot       2.1155
    Quadrupole Moments (Debye-Ang)
        XX     -42.1249     XY      -2.3056     YY     -36.3746
        XZ       0.9770     YZ      -0.1418     ZZ     -32.8083

 Final energy is   -517.228313914708
 **  OPTIMIZATION CONVERGED  **
 Total job time:  19.21s(wall), 218.59s(cpu)
        *  Thank you very much for using Q-Chem.  Have a nice day.  *
