 Q-Chem 5.1, Q-Chem, Inc., Pleasanton, CA (2018)
 Q-Chem 5.1.1 for Intel X86 EM64T Linux

User input:
--------------------------------------------------------------

$comment
potential surface scanner
$end

$rem
JOBTYPE  PES_SCAN
UNRESTRICTED TRUE
SYM_IGNORE  TRUE
GEOM_OPT_MAX_CYCLES 400
SCF_MAX_CYCLES 400
METHOD   B3LYP
BASIS   6-31G**
PDB_PRINT 2
SCF_CONVERGENCE 6
THRESH 14
SCF_PRINT 1
$end
$molecule
0 3
S 4.363764 0.998171 -0.144557
C -1.031933 0.254511 -0.011404
C -0.135689 -0.938486 -0.025025
C -2.531921 -0.102330 0.122008
H -0.758586 0.917947 0.819814
H -0.894547 0.834787 -0.933464
H 0.199478 -1.396186 0.900253
H 0.063453 -1.475236 -0.947320
H -2.723640 -0.650400 1.049975
H -3.148165 0.803701 0.128370
H -2.861315 -0.731326 -0.711156
H 4.171704 1.388645 -1.424491
$end
$scan
stre 1 3 4.800000 4.801000 0.100000
$end
--------------------------------------------------------------

   10    -517.2242318150      6.33e-07  Convergence criterion met
 Total energy in the final basis set =     -517.2242318150
   10    -517.2235674704      6.16e-07  Convergence criterion met
 Total energy in the final basis set =     -517.2235674704
   10    -517.2240069627      6.02e-07  Convergence criterion met
 Total energy in the final basis set =     -517.2240069627
   10    -517.2241929307      5.79e-07  Convergence criterion met
 Total energy in the final basis set =     -517.2241929307
   10    -517.2241973454      5.80e-07  Convergence criterion met
 Total energy in the final basis set =     -517.2241973454
   10    -517.2242061039      5.80e-07  Convergence criterion met
 Total energy in the final basis set =     -517.2242061039
   10    -517.2242085657      5.81e-07  Convergence criterion met
 Total energy in the final basis set =     -517.2242085657
   10    -517.2242136927      5.83e-07  Convergence criterion met
 Total energy in the final basis set =     -517.2242136927
   10    -517.2242176453      5.86e-07  Convergence criterion met
 Total energy in the final basis set =     -517.2242176453
   10    -517.2242217396      5.90e-07  Convergence criterion met
 Total energy in the final basis set =     -517.2242217396
   10    -517.2242241148      5.91e-07  Convergence criterion met
 Total energy in the final basis set =     -517.2242241148
   10    -517.2242254876      5.90e-07  Convergence criterion met
 Total energy in the final basis set =     -517.2242254876

             Standard Nuclear Orientation (Angstroms)
    I     Atom           X                Y                Z
 ----------------------------------------------------------------
    1      S       4.2836333755     0.9689447374    -0.1374581087
    2      C      -1.0207718837     0.2587811534    -0.0120610228
    3      C      -0.1223047837    -0.9324928466    -0.0267844410
    4      C      -2.5203706973    -0.1009762363     0.1196673968
    5      H      -0.7490946294     0.9216258671     0.8200482447
    6      H      -0.8849164729     0.8410781262    -0.9332127569
    7      H       0.2261149966    -1.3809284775     0.8980647481
    8      H       0.0699820261    -1.4745222005    -0.9474606069
    9      H      -2.7118880327    -0.6508048116     1.0466263107
   10      H      -3.1382021397     0.8039576314     0.1267450761
   11      H      -2.8478828838    -0.7293374288    -0.7147373034
   12      H       4.1283041252     1.3784724858    -1.4164345366
 ----------------------------------------------------------------

   10    -517.2242262925      5.89e-07  Convergence criterion met
 Total energy in the final basis set =     -517.2242262925

                    Orbital Energies (a.u.)
 --------------------------------------------------------------

 Alpha MOs
 -- Occupied --
-88.910 -10.183 -10.182 -10.174  -7.971  -5.942  -5.932  -5.923
 -0.776  -0.737  -0.670  -0.576  -0.458  -0.424  -0.412  -0.389
 -0.375  -0.346  -0.329  -0.319  -0.271  -0.194

 Beta MOs
 -- Occupied --
-88.904 -10.184 -10.173 -10.168  -7.966  -5.929  -5.925  -5.920
 -0.766  -0.697  -0.651  -0.562  -0.454  -0.419  -0.398  -0.384
 -0.363  -0.341  -0.327  -0.257

          Ground-State Mulliken Net Atomic Charges

     Atom                 Charge (a.u.)    Spin (a.u.)
  --------------------------------------------------------
      1 S                    -0.073081       1.028172
      2 C                    -0.188575      -0.074280
      3 C                    -0.216008       1.080549
      4 C                    -0.306967       0.049640
      5 H                     0.102497       0.012942
      6 H                     0.099396       0.013709
      7 H                     0.102016      -0.047978
      8 H                     0.098548      -0.048001
      9 H                     0.105349      -0.000460
     10 H                     0.099341       0.013627
     11 H                     0.104475      -0.000501
     12 H                     0.073009      -0.027420
  --------------------------------------------------------
  Sum of atomic charges =     0.000000

                    Cartesian Multipole Moments
 -----------------------------------------------------------------
    Charge (ESU x 10^10)
                 0.0000
    Dipole Moment (Debye)
         X      -0.2974      Y       0.3782      Z      -0.9541
       Tot       1.0685
    Quadrupole Moments (Debye-Ang)
        XX     -37.4775     XY      -0.4330     YY     -33.4603
        XZ      -4.0828     YZ      -1.2709     ZZ     -31.6354

 Final energy is   -517.224226292510
 **  OPTIMIZATION CONVERGED  **
 Total job time:  39.13s(wall), 448.53s(cpu)
        *  Thank you very much for using Q-Chem.  Have a nice day.  *
