 Q-Chem 5.1, Q-Chem, Inc., Pleasanton, CA (2018)
 Q-Chem 5.1.1 for Intel X86 EM64T Linux

User input:
--------------------------------------------------------------

$comment
potential surface scanner
$end

$rem
JOBTYPE  PES_SCAN
UNRESTRICTED TRUE
SYM_IGNORE  TRUE
GEOM_OPT_MAX_CYCLES 400
SCF_MAX_CYCLES 400
METHOD   B3LYP
BASIS   6-31G**
PDB_PRINT 2
SCF_CONVERGENCE 6
THRESH 14
SCF_PRINT 1
$end
$molecule
0 3
S 3.632797 1.060104 -0.391428
C -0.817355 0.388218 -0.040779
C 0.164386 -0.717296 -0.245805
C -2.273743 -0.117942 0.100139
H -0.558915 0.955426 0.862895
H -0.770966 1.093817 -0.879586
H 0.481729 -1.329543 0.593910
H 0.348848 -1.115655 -1.239582
H -2.372250 -0.800437 0.950455
H -2.960917 0.720636 0.256070
H -2.591556 -0.654146 -0.799360
H 2.430547 0.420619 -0.343925
$end
$scan
stre 1 3 3.800000 3.801000 0.100000
$end
--------------------------------------------------------------

   10    -517.2278305227      5.39e-07  Convergence criterion met
 Total energy in the final basis set =     -517.2278305227
   10    -517.2257853931      5.57e-07  Convergence criterion met
 Total energy in the final basis set =     -517.2257853931
   10    -517.2275182121      5.57e-07  Convergence criterion met
 Total energy in the final basis set =     -517.2275182121
   10    -517.2280697610      5.48e-07  Convergence criterion met
 Total energy in the final basis set =     -517.2280697610
   10    -517.2280905757      5.46e-07  Convergence criterion met
 Total energy in the final basis set =     -517.2280905757

             Standard Nuclear Orientation (Angstroms)
    I     Atom           X                Y                Z
 ----------------------------------------------------------------
    1      S       3.5383346316     1.0587087278    -0.3844863709
    2      C      -0.7966282770     0.3905725829    -0.0410888280
    3      C       0.1820210367    -0.7178232307    -0.2463073716
    4      C      -2.2541937382    -0.1119439253     0.0974300158
    5      H      -0.5380467854     0.9567952244     0.8630929311
    6      H      -0.7468650919     1.0964239879    -0.8792913079
    7      H       0.4941580471    -1.3332739979     0.5933096659
    8      H       0.3565008314    -1.1226566898    -1.2394200647
    9      H      -2.3548813353    -0.7950153827     0.9467521637
   10      H      -2.9385941103     0.7285895375     0.2543843466
   11      H      -2.5728557998    -0.6470069327    -0.8025451939
   12      H       2.3436555911     0.4004310987    -0.3388259860
 ----------------------------------------------------------------

   10    -517.2280912718      5.45e-07  Convergence criterion met
 Total energy in the final basis set =     -517.2280912718

                    Orbital Energies (a.u.)
 --------------------------------------------------------------

 Alpha MOs
 -- Occupied --
-88.898 -10.203 -10.196 -10.185  -7.960  -5.931  -5.921  -5.912
 -0.791  -0.725  -0.684  -0.591  -0.473  -0.437  -0.404  -0.402
 -0.386  -0.358  -0.342  -0.310  -0.263  -0.216

 Beta MOs
 -- Occupied --
-88.892 -10.196 -10.190 -10.184  -7.954  -5.917  -5.913  -5.909
 -0.780  -0.684  -0.665  -0.578  -0.468  -0.431  -0.398  -0.387
 -0.375  -0.353  -0.340  -0.248

          Ground-State Mulliken Net Atomic Charges

     Atom                 Charge (a.u.)    Spin (a.u.)
  --------------------------------------------------------
      1 S                    -0.092593       1.060583
      2 C                    -0.191157      -0.068868
      3 C                    -0.235416       1.027699
      4 C                    -0.310668       0.051059
      5 H                     0.110801       0.014478
      6 H                     0.109381       0.009631
      7 H                     0.113451      -0.043051
      8 H                     0.114460      -0.043073
      9 H                     0.108628      -0.000979
     10 H                     0.107703       0.013555
     11 H                     0.109046      -0.000621
     12 H                     0.056365      -0.020412
  --------------------------------------------------------
  Sum of atomic charges =     0.000000

                    Cartesian Multipole Moments
 -----------------------------------------------------------------
    Charge (ESU x 10^10)
                 0.0000
    Dipole Moment (Debye)
         X      -1.9154      Y      -0.7099      Z       0.1079
       Tot       2.0455
    Quadrupole Moments (Debye-Ang)
        XX     -42.1424     XY      -2.2722     YY     -36.4096
        XZ       0.9723     YZ      -0.1127     ZZ     -32.8059

 Final energy is   -517.228091271846
 **  OPTIMIZATION CONVERGED  **
 Total job time:  19.66s(wall), 219.82s(cpu)
        *  Thank you very much for using Q-Chem.  Have a nice day.  *
