 Q-Chem 5.1, Q-Chem, Inc., Pleasanton, CA (2018)
 Q-Chem 5.1.1 for Intel X86 EM64T Linux

User input:
--------------------------------------------------------------

$comment
potential surface scanner
$end

$rem
JOBTYPE  PES_SCAN
UNRESTRICTED TRUE
SYM_IGNORE  TRUE
GEOM_OPT_MAX_CYCLES 400
SCF_MAX_CYCLES 400
METHOD   B3LYP
BASIS   6-31G**
PDB_PRINT 2
SCF_CONVERGENCE 6
THRESH 14
SCF_PRINT 1
$end
$molecule
0 3
S 3.592568 -1.033398 -0.826616
C -1.586630 0.919710 0.298137
C 1.766625 -0.319045 -0.432116
C -2.509119 -0.222614 0.051084
H -1.231285 1.138631 1.299814
H -1.422881 1.674402 -0.464166
H 1.388060 -0.951000 0.372940
H 1.160504 -0.422632 -1.329081
H -2.286649 -1.076155 0.701186
H -3.561591 0.048856 0.244526
H -2.466136 -0.565807 -0.988746
H 1.869141 0.712849 -0.103955
$end
$scan
stre 1 3 1.900000 1.901000 0.100000
$end
--------------------------------------------------------------

   10    -517.2213757336      7.50e-07  Convergence criterion met
 Total energy in the final basis set =     -517.2213757336
   10    -517.2273139544      6.27e-07  Convergence criterion met
 Total energy in the final basis set =     -517.2273139544
   10    -517.2274152187      6.26e-07  Convergence criterion met
 Total energy in the final basis set =     -517.2274152187
   10    -517.2276097315      6.22e-07  Convergence criterion met
 Total energy in the final basis set =     -517.2276097315
   10    -517.2276390291      6.21e-07  Convergence criterion met
 Total energy in the final basis set =     -517.2276390291
   10    -517.2276988122      6.20e-07  Convergence criterion met
 Total energy in the final basis set =     -517.2276988122
   10    -517.2277032710      6.20e-07  Convergence criterion met
 Total energy in the final basis set =     -517.2277032710

             Standard Nuclear Orientation (Angstroms)
    I     Atom           X                Y                Z
 ----------------------------------------------------------------
    1      S       3.5293999964    -1.0113362884    -0.8112329685
    2      C      -1.5813193548     0.9179454468     0.2968160010
    3      C       1.7951559720    -0.3292568507    -0.4408722096
    4      C      -2.5052407144    -0.2233145905     0.0504243656
    5      H      -1.2247437309     1.1365827937     1.2980803788
    6      H      -1.4169025372     1.6724020728    -0.4654797438
    7      H       1.3927213547    -0.9479580345     0.3667593954
    8      H       1.1611482261    -0.4221560894    -1.3221320460
    9      H      -2.2826886109    -1.0767905159     0.7005231625
   10      H      -3.5574713572     0.0488520175     0.2443901320
   11      H      -2.4626453578    -0.5662742776    -0.9894701118
   12      H       1.8651931141     0.7051013162    -0.1047993558
 ----------------------------------------------------------------

   10    -517.2277037499      6.20e-07  Convergence criterion met
 Total energy in the final basis set =     -517.2277037499

                    Orbital Energies (a.u.)
 --------------------------------------------------------------

 Alpha MOs
 -- Occupied --
-88.891 -10.222 -10.196 -10.188  -7.951  -5.922  -5.912  -5.903
 -0.763  -0.759  -0.634  -0.613  -0.454  -0.436  -0.431  -0.417
 -0.395  -0.361  -0.356  -0.285  -0.242  -0.206

 Beta MOs
 -- Occupied --
-88.886 -10.223 -10.189 -10.182  -7.945  -5.909  -5.904  -5.899
 -0.748  -0.743  -0.605  -0.589  -0.447  -0.430  -0.426  -0.402
 -0.387  -0.357  -0.346  -0.228

          Ground-State Mulliken Net Atomic Charges

     Atom                 Charge (a.u.)    Spin (a.u.)
  --------------------------------------------------------
      1 S                    -0.015512       0.997883
      2 C                    -0.226957       1.072941
      3 C                    -0.463442      -0.033395
      4 C                    -0.331797      -0.079602
      5 H                     0.105595      -0.046964
      6 H                     0.105812      -0.046934
      7 H                     0.159790       0.028324
      8 H                     0.157051       0.006580
      9 H                     0.115287       0.014450
     10 H                     0.121245       0.064680
     11 H                     0.116111       0.014738
     12 H                     0.156817       0.007298
  --------------------------------------------------------
  Sum of atomic charges =    -0.000000

                    Cartesian Multipole Moments
 -----------------------------------------------------------------
    Charge (ESU x 10^10)
                 0.0000
    Dipole Moment (Debye)
         X      -2.1369      Y       0.5735      Z       0.4359
       Tot       2.2551
    Quadrupole Moments (Debye-Ang)
        XX     -42.7337     XY       3.0161     YY     -35.0375
        XZ       1.7740     YZ      -2.0642     ZZ     -34.2396

 Final energy is   -517.227703749864
 **  OPTIMIZATION CONVERGED  **
 Total job time:  24.63s(wall), 279.89s(cpu)
        *  Thank you very much for using Q-Chem.  Have a nice day.  *
