 Q-Chem 5.1, Q-Chem, Inc., Pleasanton, CA (2018)
 Q-Chem 5.1.1 for Intel X86 EM64T Linux

User input:
--------------------------------------------------------------

$comment
potential surface scanner
$end

$rem
JOBTYPE  PES_SCAN
UNRESTRICTED TRUE
SYM_IGNORE  TRUE
GEOM_OPT_MAX_CYCLES 400
SCF_MAX_CYCLES 400
METHOD   B3LYP
BASIS   6-31G**
PDB_PRINT 2
SCF_CONVERGENCE 6
THRESH 14
SCF_PRINT 1
$end
$molecule
0 3
S 2.836515 -1.055860 -0.758529
C -0.825098 0.665297 0.150031
C 0.570719 0.079653 -0.178199
C -1.957238 -0.344387 -0.042624
H -0.821817 1.031063 1.184344
H -0.997373 1.542653 -0.486288
H 0.758990 -0.774006 0.482614
H 0.569904 -0.264177 -1.217758
H -1.831536 -1.214050 0.612484
H -2.931544 0.102069 0.182059
H -1.989486 -0.711472 -1.074753
H 1.330568 0.847014 -0.030374
$end
$scan
stre 1 3 2.500000 2.501000 0.100000
$end
--------------------------------------------------------------

   10    -517.2465014716      4.09e-07  Convergence criterion met
 Total energy in the final basis set =     -517.2465014716
    9    -517.2405712071      9.44e-07  Convergence criterion met
 Total energy in the final basis set =     -517.2405712071
    9    -517.2405654802      9.27e-07  Convergence criterion met
 Total energy in the final basis set =     -517.2405654802
    9    -517.2406010218      9.79e-07  Convergence criterion met
 Total energy in the final basis set =     -517.2406010218
   10    -517.2406164756      3.85e-07  Convergence criterion met
 Total energy in the final basis set =     -517.2406164756
   10    -517.2406193741      3.80e-07  Convergence criterion met
 Total energy in the final basis set =     -517.2406193741

             Standard Nuclear Orientation (Angstroms)
    I     Atom           X                Y                Z
 ----------------------------------------------------------------
    1      S       2.7598159479    -1.0232387043    -0.7421968181
    2      C      -0.8157237490     0.6617314085     0.1480613310
    3      C       0.5840260073     0.0727039757    -0.1810833079
    4      C      -1.9487645364    -0.3464828380    -0.0443323307
    5      H      -0.8103184201     1.0274613640     1.1823271635
    6      H      -0.9853346572     1.5391488166    -0.4887945631
    7      H       0.7571282715    -0.7787612070     0.4850126994
    8      H       0.5673977103    -0.2683780383    -1.2205063703
    9      H      -1.8244529215    -1.2161723053     0.6110099676
   10      H      -2.9223277153     0.1015396921     0.1804281142
   11      H      -1.9819437452    -0.7137201692    -1.0763868655
   12      H       1.3331018077     0.8479650053    -0.0305320201
 ----------------------------------------------------------------

   10    -517.2406197744      3.79e-07  Convergence criterion met
 Total energy in the final basis set =     -517.2406197744

                    Orbital Energies (a.u.)
 --------------------------------------------------------------

 Alpha MOs
 -- Occupied --
-88.901 -10.193 -10.191 -10.180  -7.961  -5.931  -5.930  -5.912
 -0.793  -0.721  -0.676  -0.593  -0.470  -0.450  -0.416  -0.400
 -0.358  -0.353  -0.343  -0.302  -0.266  -0.259

 Beta MOs
 -- Occupied --
-88.890 -10.192 -10.190 -10.180  -7.951  -5.910  -5.909  -5.906
 -0.788  -0.699  -0.621  -0.578  -0.467  -0.447  -0.408  -0.395
 -0.352  -0.342  -0.339  -0.233

          Ground-State Mulliken Net Atomic Charges

     Atom                 Charge (a.u.)    Spin (a.u.)
  --------------------------------------------------------
      1 S                    -0.073396       1.884945
      2 C                    -0.189627       0.059444
      3 C                    -0.382571       0.036874
      4 C                    -0.312112      -0.001352
      5 H                     0.104015       0.001953
      6 H                     0.103997       0.002156
      7 H                     0.138940       0.005199
      8 H                     0.140085       0.005204
      9 H                     0.106183       0.000522
     10 H                     0.106203       0.001865
     11 H                     0.106070       0.000553
     12 H                     0.152213       0.002637
  --------------------------------------------------------
  Sum of atomic charges =    -0.000000

                    Cartesian Multipole Moments
 -----------------------------------------------------------------
    Charge (ESU x 10^10)
                -0.0000
    Dipole Moment (Debye)
         X      -1.3555      Y       0.6698      Z       0.3448
       Tot       1.5508
    Quadrupole Moments (Debye-Ang)
        XX     -38.5777     XY       0.8741     YY     -35.9308
        XZ       1.0081     YZ      -1.1842     ZZ     -33.4690

 Final energy is   -517.240619774370
 **  OPTIMIZATION CONVERGED  **
 Total job time:  22.59s(wall), 256.66s(cpu)
        *  Thank you very much for using Q-Chem.  Have a nice day.  *
