 Q-Chem 5.1, Q-Chem, Inc., Pleasanton, CA (2018)
 Q-Chem 5.1.1 for Intel X86 EM64T Linux

User input:
--------------------------------------------------------------

$comment
potential surface scanner
$end

$rem
JOBTYPE  PES_SCAN
UNRESTRICTED TRUE
SYM_IGNORE  TRUE
GEOM_OPT_MAX_CYCLES 400
SCF_MAX_CYCLES 400
METHOD   B3LYP
BASIS   6-31G**
PDB_PRINT 2
SCF_CONVERGENCE 6
THRESH 14
SCF_PRINT 1
$end
$molecule
0 1
S 2.731130 0.386284 -0.017756
C -0.712855 0.445063 -0.002830
C 0.253324 -0.686293 -0.010085
C -2.162746 -0.104033 0.025905
H -0.543483 1.078354 0.872115
H -0.580132 1.066320 -0.893288
H 0.421328 -1.239536 0.908354
H 0.399605 -1.256331 -0.922118
H -2.341830 -0.712401 0.917611
H -2.871470 0.729734 0.036929
H -2.376092 -0.718234 -0.854316
H 2.495824 0.914872 -1.237518
$end
$scan
stre 1 3 2.800000 2.801000 0.100000
$end
--------------------------------------------------------------

    9    -517.2729274817      8.34e-07  Convergence criterion met
 Total energy in the final basis set =     -517.2729274817
    9    -517.2649497304      9.99e-07  Convergence criterion met
 Total energy in the final basis set =     -517.2649497304
   10    -517.2648368789      2.23e-07  Convergence criterion met
 Total energy in the final basis set =     -517.2648368789
   10    -517.2648592532      2.24e-07  Convergence criterion met
 Total energy in the final basis set =     -517.2648592532

             Standard Nuclear Orientation (Angstroms)
    I     Atom           X                Y                Z
 ----------------------------------------------------------------
    1      S       2.8000863901     0.4125274697    -0.0224749773
    2      C      -0.7249928319     0.4365725757    -0.0030906535
    3      C       0.2304741912    -0.6996532318    -0.0104227078
    4      C      -2.1799178113    -0.1046462491     0.0294502292
    5      H      -0.5523215728     1.0692571658     0.8715904117
    6      H      -0.5917953090     1.0549577441    -0.8953053342
    7      H       0.4191268573    -1.2432976678     0.9093967118
    8      H       0.3957891984    -1.2604024961    -0.9246814068
    9      H      -2.3610527055    -0.7094725765     0.9229393640
   10      H      -2.8812551236     0.7352956586     0.0401229166
   11      H      -2.3987017041    -0.7185976321    -0.8493772027
   12      H       2.5571634211     0.9312582395    -1.2451443510
 ----------------------------------------------------------------

   10    -517.2648600674      2.25e-07  Convergence criterion met
 Total energy in the final basis set =     -517.2648600674

                    Orbital Energies (a.u.)
 --------------------------------------------------------------

 Alpha MOs
 -- Occupied --
-88.851 -10.265 -10.216 -10.206  -7.910  -5.874  -5.873  -5.864
 -0.815  -0.703  -0.662  -0.611  -0.498  -0.458  -0.425  -0.406
 -0.382  -0.364  -0.355  -0.245  -0.215

 Beta MOs
 -- Occupied --
-88.851 -10.265 -10.216 -10.206  -7.910  -5.874  -5.873  -5.864
 -0.815  -0.703  -0.662  -0.611  -0.498  -0.458  -0.425  -0.406
 -0.382  -0.364  -0.355  -0.245  -0.215

          Ground-State Mulliken Net Atomic Charges

     Atom                 Charge (a.u.)    Spin (a.u.)
  --------------------------------------------------------
      1 S                    -0.332965      -0.000000
      2 C                    -0.196525       0.000000
      3 C                    -0.145561       0.000000
      4 C                    -0.332658       0.000000
      5 H                     0.144711      -0.000000
      6 H                     0.131079      -0.000000
      7 H                     0.161228       0.000000
      8 H                     0.159151       0.000000
      9 H                     0.119668       0.000000
     10 H                     0.127454      -0.000000
     11 H                     0.117943      -0.000000
     12 H                     0.046475       0.000000
  --------------------------------------------------------
  Sum of atomic charges =    -0.000000

                    Cartesian Multipole Moments
 -----------------------------------------------------------------
    Charge (ESU x 10^10)
                 0.0000
    Dipole Moment (Debye)
         X      -4.4268      Y      -0.8143      Z      -0.7197
       Tot       4.5582
    Quadrupole Moments (Debye-Ang)
        XX     -44.9050     XY      -0.7160     YY     -33.9893
        XZ      -1.7556     YZ      -1.6463     ZZ     -32.2910

 Final energy is   -517.264860067397
 **  OPTIMIZATION CONVERGED  **
 Total job time:  17.38s(wall), 179.74s(cpu)
        *  Thank you very much for using Q-Chem.  Have a nice day.  *
