 Q-Chem 5.1, Q-Chem, Inc., Pleasanton, CA (2018)
 Q-Chem 5.1.1 for Intel X86 EM64T Linux

User input:
--------------------------------------------------------------

$comment
potential surface scanner
$end

$rem
JOBTYPE  PES_SCAN
UNRESTRICTED TRUE
SYM_IGNORE  TRUE
GEOM_OPT_MAX_CYCLES 400
SCF_MAX_CYCLES 400
METHOD   B3LYP
BASIS   6-31G**
PDB_PRINT 2
SCF_CONVERGENCE 6
THRESH 14
SCF_PRINT 1
$end
$molecule
0 1
S 2.535453 0.291099 -0.007594
C -0.676903 0.467463 -0.008126
C 0.326580 -0.647428 -0.014379
C -2.111731 -0.102085 0.018842
H -0.514097 1.107122 0.864049
H -0.549787 1.093604 -0.897044
H 0.419162 -1.229957 0.898676
H 0.401062 -1.249415 -0.916155
H -2.282578 -0.711165 0.912349
H -2.841260 0.713725 0.023766
H -2.311672 -0.726408 -0.858099
H 2.318372 0.897244 -1.193283
$end
$scan
stre 1 3 2.500000 2.501000 0.100000
$end
--------------------------------------------------------------

    9    -517.2997748458      4.84e-07  Convergence criterion met
 Total energy in the final basis set =     -517.2997748458
    9    -517.2905189543      5.39e-07  Convergence criterion met
 Total energy in the final basis set =     -517.2905189543
    9    -517.2903164898      5.41e-07  Convergence criterion met
 Total energy in the final basis set =     -517.2903164898
    9    -517.2899799070      6.53e-07  Convergence criterion met
 Total energy in the final basis set =     -517.2899799070
    9    -517.2904582041      5.85e-07  Convergence criterion met
 Total energy in the final basis set =     -517.2904582041
    9    -517.2904607631      5.85e-07  Convergence criterion met
 Total energy in the final basis set =     -517.2904607631

             Standard Nuclear Orientation (Angstroms)
    I     Atom           X                Y                Z
 ----------------------------------------------------------------
    1      S       2.5975789261     0.3330072116    -0.0080251730
    2      C      -0.6907352011     0.4620194502    -0.0027062342
    3      C       0.3018269386    -0.6566978729    -0.0103089723
    4      C      -2.1294315904    -0.1037759984     0.0197205160
    5      H      -0.5285790130     1.0972535828     0.8725557527
    6      H      -0.5604811105     1.0895647056    -0.8897076063
    7      H       0.4220439872    -1.2307691907     0.9039989420
    8      H       0.4041915061    -1.2461322304    -0.9169445090
    9      H      -2.3027259465    -0.7193210696     0.9081091026
   10      H      -2.8537239886     0.7165641832     0.0319310399
   11      H      -2.3320152208    -0.7189463538    -0.8628410264
   12      H       2.3846517130     0.8810325824    -1.2227798321
 ----------------------------------------------------------------

    9    -517.2904610467      5.86e-07  Convergence criterion met
 Total energy in the final basis set =     -517.2904610467

                    Orbital Energies (a.u.)
 --------------------------------------------------------------

 Alpha MOs
 -- Occupied --
-88.859 -10.254 -10.208 -10.198  -7.918  -5.883  -5.881  -5.873
 -0.807  -0.702  -0.667  -0.604  -0.489  -0.448  -0.417  -0.402
 -0.373  -0.363  -0.356  -0.267  -0.223

 Beta MOs
 -- Occupied --
-88.859 -10.254 -10.208 -10.198  -7.918  -5.883  -5.881  -5.873
 -0.807  -0.702  -0.667  -0.604  -0.489  -0.448  -0.417  -0.402
 -0.373  -0.363  -0.356  -0.267  -0.223

          Ground-State Mulliken Net Atomic Charges

     Atom                 Charge (a.u.)    Spin (a.u.)
  --------------------------------------------------------
      1 S                    -0.265606       0.000000
      2 C                    -0.180669      -0.000000
      3 C                    -0.192456       0.000000
      4 C                    -0.329860       0.000000
      5 H                     0.136384       0.000000
      6 H                     0.121082      -0.000000
      7 H                     0.154341      -0.000000
      8 H                     0.153672      -0.000000
      9 H                     0.115488       0.000000
     10 H                     0.121955       0.000000
     11 H                     0.113677      -0.000000
     12 H                     0.051991      -0.000000
  --------------------------------------------------------
  Sum of atomic charges =    -0.000000

                    Cartesian Multipole Moments
 -----------------------------------------------------------------
    Charge (ESU x 10^10)
                -0.0000
    Dipole Moment (Debye)
         X      -3.4728      Y      -0.5514      Z      -0.7367
       Tot       3.5927
    Quadrupole Moments (Debye-Ang)
        XX     -42.5075     XY      -0.1473     YY     -34.0535
        XZ      -1.7467     YZ      -1.6452     ZZ     -32.4337

 Final energy is   -517.290461046741
 **  OPTIMIZATION CONVERGED  **
 Total job time:  21.06s(wall), 240.80s(cpu)
        *  Thank you very much for using Q-Chem.  Have a nice day.  *
