 Q-Chem 5.1, Q-Chem, Inc., Pleasanton, CA (2018)
 Q-Chem 5.1.1 for Intel X86 EM64T Linux

User input:
--------------------------------------------------------------

$comment
potential surface scanner
$end

$rem
JOBTYPE  PES_SCAN
UNRESTRICTED TRUE
SYM_IGNORE  TRUE
GEOM_OPT_MAX_CYCLES 400
SCF_MAX_CYCLES 400
METHOD   B3LYP
BASIS   6-31G**
PDB_PRINT 2
SCF_CONVERGENCE 6
THRESH 14
SCF_PRINT 1
$end
$molecule
0 3
S 2.473102 -0.948257 -0.681005
C -0.786666 0.654403 0.139443
C 0.680184 0.035597 -0.204060
C -1.909554 -0.358208 -0.052128
H -0.758094 1.013836 1.174671
H -0.937002 1.529651 -0.503420
H 0.713164 -0.781989 0.517457
H 0.529028 -0.260237 -1.243494
H -1.777170 -1.231617 0.597095
H -2.884682 0.081830 0.183032
H -1.950584 -0.719196 -1.086278
H 1.320880 0.887983 -0.018307
$end
$scan
stre 1 3 2.000000 2.001000 0.100000
$end
--------------------------------------------------------------

   10    -517.1931696173      6.21e-07  Convergence criterion met
 Total energy in the final basis set =     -517.1931696173
   10    -517.1739904949      7.67e-07  Convergence criterion met
 Total energy in the final basis set =     -517.1739904949
   10    -517.1742176006      8.48e-07  Convergence criterion met
 Total energy in the final basis set =     -517.1742176006
   10    -517.1754955217      9.57e-07  Convergence criterion met
 Total energy in the final basis set =     -517.1754955217
   11    -517.1759405470      3.51e-07  Convergence criterion met
 Total energy in the final basis set =     -517.1759405470
   11    -517.1777328258      3.90e-07  Convergence criterion met
 Total energy in the final basis set =     -517.1777328258
   11    -517.1822102631      3.68e-07  Convergence criterion met
 Total energy in the final basis set =     -517.1822102631
   11    -517.1895447168      4.78e-07  Convergence criterion met
   10    -517.2212329360      8.03e-07  Convergence criterion met
 Total energy in the final basis set =     -517.2212329360
   10    -517.2212621306      7.95e-07  Convergence criterion met
 Total energy in the final basis set =     -517.2212621306
   10    -517.2212970493      7.81e-07  Convergence criterion met
 Total energy in the final basis set =     -517.2212970493
   10    -517.2213250998      7.60e-07  Convergence criterion met
 Total energy in the final basis set =     -517.2213250998
   10    -517.2213473341      7.53e-07  Convergence criterion met
 Total energy in the final basis set =     -517.2213473341
   10    -517.2213752146      7.49e-07  Convergence criterion met
 Total energy in the final basis set =     -517.2213752146

             Standard Nuclear Orientation (Angstroms)
    I     Atom           X                Y                Z
 ----------------------------------------------------------------
    1      S       3.5925681672    -1.0333981287    -0.8266164368
    2      C      -1.5866301171     0.9197099743     0.2981368205
    3      C       1.7666245663    -0.3190450889    -0.4321160510
    4      C      -2.5091185729    -0.2226135757     0.0510843868
    5      H      -1.2312852817     1.1386310102     1.2998136118
    6      H      -1.4228811612     1.6744022239    -0.4641664864
    7      H       1.3880595083    -0.9510004553     0.3729397718
    8      H       1.1605037763    -0.4226323161    -1.3290810372
    9      H      -2.2866485277    -1.0761553349     0.7011864814
   10      H      -3.5615914165     0.0488558616     0.2445259632
   11      H      -2.4661363014    -0.5658073669    -0.9887459807
   12      H       1.8691413605     0.7128491965    -0.1039550434
 ----------------------------------------------------------------

   10    -517.2213756891      7.50e-07  Convergence criterion met
 Total energy in the final basis set =     -517.2213756891

                    Orbital Energies (a.u.)
 --------------------------------------------------------------

 Alpha MOs
 -- Occupied --
-88.893 -10.228 -10.196 -10.188  -7.951  -5.923  -5.914  -5.904
 -0.760  -0.748  -0.639  -0.613  -0.454  -0.434  -0.432  -0.417
 -0.395  -0.362  -0.344  -0.288  -0.244  -0.206

 Beta MOs
 -- Occupied --
-88.887 -10.228 -10.189 -10.183  -7.946  -5.910  -5.905  -5.900
 -0.743  -0.735  -0.607  -0.589  -0.448  -0.431  -0.428  -0.402
 -0.387  -0.357  -0.334  -0.230

          Ground-State Mulliken Net Atomic Charges

     Atom                 Charge (a.u.)    Spin (a.u.)
  --------------------------------------------------------
      1 S                    -0.038127       1.017855
      2 C                    -0.227012       1.071799
      3 C                    -0.447528      -0.039764
      4 C                    -0.331889      -0.079519
      5 H                     0.105870      -0.046910
      6 H                     0.105964      -0.046880
      7 H                     0.159803       0.019262
      8 H                     0.160057       0.004872
      9 H                     0.115482       0.014440
     10 H                     0.121444       0.064622
     11 H                     0.116143       0.014720
     12 H                     0.159791       0.005503
  --------------------------------------------------------
  Sum of atomic charges =    -0.000000

                    Cartesian Multipole Moments
 -----------------------------------------------------------------
    Charge (ESU x 10^10)
                -0.0000
    Dipole Moment (Debye)
         X      -2.2131      Y       0.6100      Z       0.4432
       Tot       2.3380
    Quadrupole Moments (Debye-Ang)
        XX     -43.0996     XY       3.1271     YY     -35.0791
        XZ       1.8408     YZ      -2.1042     ZZ     -34.3008

 Final energy is   -517.221375689085
 **  OPTIMIZATION CONVERGED  **
 Total job time:  78.17s(wall), 894.74s(cpu)
        *  Thank you very much for using Q-Chem.  Have a nice day.  *
