 Q-Chem 5.1, Q-Chem, Inc., Pleasanton, CA (2018)
 Q-Chem 5.1.1 for Intel X86 EM64T Linux

User input:
--------------------------------------------------------------

$comment
potential surface scanner
$end

$rem
JOBTYPE  PES_SCAN
UNRESTRICTED TRUE
SYM_IGNORE  TRUE
GEOM_OPT_MAX_CYCLES 400
SCF_MAX_CYCLES 400
METHOD   B3LYP
BASIS   6-31G**
PDB_PRINT 2
SCF_CONVERGENCE 6
THRESH 14
SCF_PRINT 1
$end
$molecule
0 1
S 2.126400 0.172600 -0.001000
C -0.602600 0.507000 0.001200
C 0.472000 -0.574500 0.001000
C -1.995800 -0.105100 -0.001200
H -0.500600 1.146800 0.886100
H -0.499900 1.148900 -0.882200
H 0.380400 -1.208800 0.888400
H 0.378500 -1.212800 -0.883500
H -2.152000 -0.728200 0.885200
H -2.755700 0.682700 -0.000800
H -2.150200 -0.725500 -0.889800
H 2.012100 0.800700 -1.180400
$end
$scan
stre 1 3 1.200000 1.201000 0.100000
$end
--------------------------------------------------------------

    9    -517.3385956811      3.60e-07  Convergence criterion met
 Total energy in the final basis set =     -517.3385956811
    9    -517.3254999689      3.81e-07  Convergence criterion met
 Total energy in the final basis set =     -517.3254999689
    9    -517.2819204334      3.99e-07  Convergence criterion met
 Total energy in the final basis set =     -517.2819204334
    8    -517.1998531820      8.37e-07  Convergence criterion met
 Total energy in the final basis set =     -517.1998531820
    8    -517.0739738609      8.89e-07  Convergence criterion met
 Total energy in the final basis set =     -517.0739738609
    9    -516.9119090570      6.31e-07  Convergence criterion met
 Total energy in the final basis set =     -516.9119090570
    9    -516.9033099373      6.59e-07  Convergence criterion met
 Total energy in the final basis set =     -516.9033099373
    9    -516.9026699266      6.70e-07  Convergence criterion met
    9    -516.9031211852      6.93e-07  Convergence criterion met
 Total energy in the final basis set =     -516.9031211852
    9    -516.9031236038      6.99e-07  Convergence criterion met
 Total energy in the final basis set =     -516.9031236038
    9    -516.9031262086      7.02e-07  Convergence criterion met
 Total energy in the final basis set =     -516.9031262086
    9    -516.9031282838      7.01e-07  Convergence criterion met
 Total energy in the final basis set =     -516.9031282838
    9    -516.9031295890      6.97e-07  Convergence criterion met
 Total energy in the final basis set =     -516.9031295890
    9    -516.9031305427      6.93e-07  Convergence criterion met
 Total energy in the final basis set =     -516.9031305427

             Standard Nuclear Orientation (Angstroms)
    I     Atom           X                Y                Z
 ----------------------------------------------------------------
    1      S       1.8060235535    -0.0684489898     0.0038385981
    2      C      -0.6090419294     0.5755955742     0.0078192368
    3      C       0.6650941808    -0.4349860200    -0.0588573987
    4      C      -1.9606907550    -0.1281470181     0.0009579598
    5      H      -0.4775672768     1.2017011783     0.8997587270
    6      H      -0.5047490580     1.2356236460    -0.8645733438
    7      H       0.4122218476    -1.0797231431     0.8056795933
    8      H       0.2745089167    -1.1579081599    -0.8579172978
    9      H      -2.0911692303    -0.7534723680     0.8923565733
   10      H      -2.7876473840     0.5885048900    -0.0205826430
   11      H      -2.0650837791    -0.7782626874    -0.8753909442
   12      H       2.0507009141     0.7033230977    -1.1100890607
 ----------------------------------------------------------------

    9    -516.9031313799      6.88e-07  Convergence criterion met
 Total energy in the final basis set =     -516.9031313799

                    Orbital Energies (a.u.)
 --------------------------------------------------------------

 Alpha MOs
 -- Occupied --
-88.834 -10.198 -10.185 -10.180  -7.934  -5.899  -5.890  -5.883
 -0.945  -0.758  -0.629  -0.600  -0.520  -0.460  -0.452  -0.425
 -0.388  -0.360  -0.345  -0.277  -0.193

 Beta MOs
 -- Occupied --
-88.834 -10.198 -10.185 -10.180  -7.934  -5.899  -5.890  -5.883
 -0.945  -0.758  -0.629  -0.600  -0.520  -0.460  -0.452  -0.425
 -0.388  -0.360  -0.345  -0.277  -0.193

          Ground-State Mulliken Net Atomic Charges

     Atom                 Charge (a.u.)    Spin (a.u.)
  --------------------------------------------------------
      1 S                     0.055707      -0.000000
      2 C                    -0.207355       0.000000
      3 C                    -0.275888      -0.000000
      4 C                    -0.325499       0.000000
      5 H                     0.102205      -0.000000
      6 H                     0.094250      -0.000000
      7 H                     0.164307      -0.000000
      8 H                     0.067023      -0.000000
      9 H                     0.102007       0.000000
     10 H                     0.110352      -0.000000
     11 H                     0.107702       0.000000
     12 H                     0.005190       0.000000
  --------------------------------------------------------
  Sum of atomic charges =     0.000000

                    Cartesian Multipole Moments
 -----------------------------------------------------------------
    Charge (ESU x 10^10)
                 0.0000
    Dipole Moment (Debye)
         X      -1.3934      Y      -0.2476      Z      -0.2905
       Tot       1.4448
    Quadrupole Moments (Debye-Ang)
        XX     -37.9781     XY       0.3952     YY     -33.6832
        XZ      -1.5081     YZ      -1.5291     ZZ     -32.7813

 Final energy is   -516.903131379912
 **  OPTIMIZATION CONVERGED  **
 Total job time:  83.59s(wall), 926.41s(cpu)
        *  Thank you very much for using Q-Chem.  Have a nice day.  *
