 Q-Chem 5.1, Q-Chem, Inc., Pleasanton, CA (2018)
 Q-Chem 5.1.1 for Intel X86 EM64T Linux

User input:
--------------------------------------------------------------

$comment
potential surface scanner
$end

$rem
JOBTYPE  PES_SCAN
UNRESTRICTED TRUE
SYM_IGNORE  TRUE
GEOM_OPT_MAX_CYCLES 400
SCF_MAX_CYCLES 400
METHOD   B3LYP
BASIS   6-31G**
PDB_PRINT 2
SCF_CONVERGENCE 6
THRESH 14
SCF_PRINT 1
$end
$molecule
0 3
S 4.122727 0.914016 -0.117024
C -0.998706 0.267079 -0.017999
C -0.095014 -0.920097 -0.035179
C -2.496379 -0.097951 0.118370
H -0.725963 0.931038 0.812632
H -0.868284 0.849824 -0.939860
H 0.280991 -1.350130 0.887430
H 0.078233 -1.475496 -0.951653
H -2.683417 -0.648215 1.045977
H -3.117408 0.804825 0.127057
H -2.824576 -0.727457 -0.714960
H 4.040399 1.356364 -1.391790
$end
$scan
stre 1 3 4.500000 4.501000 0.100000
$end
--------------------------------------------------------------

   10    -517.2242165386      5.28e-07  Convergence criterion met
 Total energy in the final basis set =     -517.2242165386
   10    -517.2237141301      5.16e-07  Convergence criterion met
 Total energy in the final basis set =     -517.2237141301
   10    -517.2240443780      5.10e-07  Convergence criterion met
 Total energy in the final basis set =     -517.2240443780
   10    -517.2241733195      5.03e-07  Convergence criterion met
 Total energy in the final basis set =     -517.2241733195
   10    -517.2241772278      5.03e-07  Convergence criterion met
 Total energy in the final basis set =     -517.2241772278
   10    -517.2241851686      5.02e-07  Convergence criterion met
 Total energy in the final basis set =     -517.2241851686
   10    -517.2241871254      5.02e-07  Convergence criterion met
 Total energy in the final basis set =     -517.2241871254
   10    -517.2241921454      5.03e-07  Convergence criterion met
 Total energy in the final basis set =     -517.2241921454
   10    -517.2241948874      5.03e-07  Convergence criterion met
 Total energy in the final basis set =     -517.2241948874
   10    -517.2241973748      5.04e-07  Convergence criterion met
 Total energy in the final basis set =     -517.2241973748
   10    -517.2241984768      5.03e-07  Convergence criterion met
 Total energy in the final basis set =     -517.2241984768

             Standard Nuclear Orientation (Angstroms)
    I     Atom           X                Y                Z
 ----------------------------------------------------------------
    1      S       4.0340958503     0.8939020287    -0.1133934356
    2      C      -0.9835617901     0.2686632505    -0.0178554511
    3      C      -0.0829969332    -0.9208653269    -0.0348434949
    4      C      -2.4823682632    -0.0931523807     0.1150650745
    5      H      -0.7106381683     0.9313351967     0.8136371212
    6      H      -0.8507485941     0.8523557367    -0.9388767061
    7      H       0.2987936425    -1.3464481757     0.8873741954
    8      H       0.0811753438    -1.4818909789    -0.9495651282
    9      H      -2.6727657930    -0.6432990825     1.0420651565
   10      H      -3.1015658402     0.8108986904     0.1225023428
   11      H      -2.8098813971    -0.7218317811    -0.7191676973
   12      H       3.9930649426     1.3541328227    -1.3839409772
 ----------------------------------------------------------------

   10    -517.2241990661      5.03e-07  Convergence criterion met
 Total energy in the final basis set =     -517.2241990661

                    Orbital Energies (a.u.)
 --------------------------------------------------------------

 Alpha MOs
 -- Occupied --
-88.909 -10.182 -10.181 -10.174  -7.971  -5.942  -5.932  -5.923
 -0.775  -0.737  -0.669  -0.575  -0.458  -0.424  -0.411  -0.389
 -0.374  -0.345  -0.328  -0.319  -0.271  -0.193

 Beta MOs
 -- Occupied --
-88.904 -10.183 -10.172 -10.168  -7.965  -5.929  -5.924  -5.920
 -0.765  -0.697  -0.651  -0.561  -0.453  -0.418  -0.398  -0.384
 -0.363  -0.340  -0.326  -0.257

          Ground-State Mulliken Net Atomic Charges

     Atom                 Charge (a.u.)    Spin (a.u.)
  --------------------------------------------------------
      1 S                    -0.072923       1.029099
      2 C                    -0.188421      -0.074220
      3 C                    -0.214067       1.079689
      4 C                    -0.307077       0.049391
      5 H                     0.102080       0.011276
      6 H                     0.099531       0.015586
      7 H                     0.101952      -0.048068
      8 H                     0.097742      -0.047959
      9 H                     0.105247      -0.000314
     10 H                     0.099028       0.013591
     11 H                     0.104125      -0.000618
     12 H                     0.072783      -0.027452
  --------------------------------------------------------
  Sum of atomic charges =     0.000000

                    Cartesian Multipole Moments
 -----------------------------------------------------------------
    Charge (ESU x 10^10)
                 0.0000
    Dipole Moment (Debye)
         X      -0.1935      Y       0.4189      Z      -0.9429
       Tot       1.0498
    Quadrupole Moments (Debye-Ang)
        XX     -36.8553     XY      -0.1023     YY     -33.2614
        XZ      -4.0450     YZ      -1.2746     ZZ     -31.7480

 Final energy is   -517.224199066092
 **  OPTIMIZATION CONVERGED  **
 Total job time:  36.33s(wall), 416.37s(cpu)
        *  Thank you very much for using Q-Chem.  Have a nice day.  *
