 Q-Chem 5.1, Q-Chem, Inc., Pleasanton, CA (2018)
 Q-Chem 5.1.1 for Intel X86 EM64T Linux

User input:
--------------------------------------------------------------

$comment
potential surface scanner
$end

$rem
JOBTYPE  PES_SCAN
UNRESTRICTED TRUE
SYM_IGNORE  TRUE
GEOM_OPT_MAX_CYCLES 400
SCF_MAX_CYCLES 400
METHOD   B3LYP
BASIS   6-31G**
PDB_PRINT 2
SCF_CONVERGENCE 6
THRESH 14
SCF_PRINT 1
$end
$molecule
0 1
S 2.161740 0.107377 0.015724
C -0.625754 0.516939 -0.013251
C 0.483313 -0.541207 -0.031423
C -2.023287 -0.112027 0.009648
H -0.486214 1.166146 0.858448
H -0.523062 1.159757 -0.897024
H 0.408351 -1.174071 0.859868
H 0.363768 -1.205149 -0.894311
H -2.162773 -0.735563 0.899895
H -2.802239 0.656691 0.016920
H -2.189816 -0.746464 -0.868184
H 2.108574 0.811371 -1.133309
$end
$scan
stre 1 3 1.900000 1.901000 0.100000
$end
--------------------------------------------------------------

    9    -517.3399578623      3.91e-07  Convergence criterion met
 Total energy in the final basis set =     -517.3399578623
    9    -517.3394190459      3.91e-07  Convergence criterion met
 Total energy in the final basis set =     -517.3394190459
    9    -517.3396556790      3.79e-07  Convergence criterion met
 Total energy in the final basis set =     -517.3396556790
    9    -517.3397093980      3.69e-07  Convergence criterion met
 Total energy in the final basis set =     -517.3397093980

             Standard Nuclear Orientation (Angstroms)
    I     Atom           X                Y                Z
 ----------------------------------------------------------------
    1      S       2.2238763006     0.1375858783     0.0116578002
    2      C      -0.6327305128     0.5095189168    -0.0119685263
    3      C       0.4567917963    -0.5594953478    -0.0269420066
    4      C      -2.0363418255    -0.1094355685     0.0104283474
    5      H      -0.4898617832     1.1570704770     0.8599225855
    6      H      -0.5254802245     1.1501077742    -0.8961552099
    7      H       0.4092045154    -1.1864944592     0.8680196263
    8      H       0.3723534352    -1.2141285544    -0.8981965838
    9      H      -2.1817352317    -0.7305691478     0.9012180634
   10      H      -2.8081333118     0.6665627860     0.0162921346
   11      H      -2.2072814276    -0.7427182839    -0.8672308303
   12      H       2.1319392697     0.8257955293    -1.1440444005
 ----------------------------------------------------------------

    9    -517.3397113466      3.70e-07  Convergence criterion met
 Total energy in the final basis set =     -517.3397113466

                    Orbital Energies (a.u.)
 --------------------------------------------------------------

 Alpha MOs
 -- Occupied --
-88.871 -10.222 -10.193 -10.184  -7.933  -5.898  -5.894  -5.887
 -0.804  -0.735  -0.652  -0.593  -0.477  -0.437  -0.411  -0.401
 -0.374  -0.352  -0.341  -0.315  -0.235

 Beta MOs
 -- Occupied --
-88.871 -10.222 -10.193 -10.184  -7.933  -5.898  -5.894  -5.887
 -0.804  -0.735  -0.652  -0.593  -0.477  -0.437  -0.411  -0.401
 -0.374  -0.352  -0.341  -0.315  -0.235

          Ground-State Mulliken Net Atomic Charges

     Atom                 Charge (a.u.)    Spin (a.u.)
  --------------------------------------------------------
      1 S                    -0.066855       0.000000
      2 C                    -0.164360       0.000000
      3 C                    -0.322231       0.000000
      4 C                    -0.322844      -0.000000
      5 H                     0.117954      -0.000000
      6 H                     0.100226      -0.000000
      7 H                     0.138652       0.000000
      8 H                     0.136881      -0.000000
      9 H                     0.107938       0.000000
     10 H                     0.110604       0.000000
     11 H                     0.106184      -0.000000
     12 H                     0.057851       0.000000
  --------------------------------------------------------
  Sum of atomic charges =    -0.000000

                    Cartesian Multipole Moments
 -----------------------------------------------------------------
    Charge (ESU x 10^10)
                -0.0000
    Dipole Moment (Debye)
         X      -1.8269      Y      -0.0590      Z      -0.7410
       Tot       1.9724
    Quadrupole Moments (Debye-Ang)
        XX     -38.9289     XY       0.7901     YY     -34.0639
        XZ      -1.7563     YZ      -1.6427     ZZ     -32.8279

 Final energy is   -517.339711346612
 **  OPTIMIZATION CONVERGED  **
 Total job time:  15.08s(wall), 171.69s(cpu)
        *  Thank you very much for using Q-Chem.  Have a nice day.  *
