 Q-Chem 5.1, Q-Chem, Inc., Pleasanton, CA (2018)
 Q-Chem 5.1.1 for Intel X86 EM64T Linux

User input:
--------------------------------------------------------------

$comment
potential surface scanner
$end

$rem
JOBTYPE  PES_SCAN
UNRESTRICTED TRUE
SYM_IGNORE  TRUE
GEOM_OPT_MAX_CYCLES 400
SCF_MAX_CYCLES 400
METHOD   B3LYP
BASIS   6-31G**
PDB_PRINT 2
SCF_CONVERGENCE 6
THRESH 14
SCF_PRINT 1
$end
$molecule
0 1
S 2.800086 0.412527 -0.022475
C -0.724993 0.436573 -0.003091
C 0.230474 -0.699653 -0.010423
C -2.179918 -0.104646 0.029450
H -0.552322 1.069257 0.871590
H -0.591795 1.054958 -0.895305
H 0.419127 -1.243298 0.909397
H 0.395789 -1.260402 -0.924681
H -2.361053 -0.709473 0.922939
H -2.881255 0.735296 0.040123
H -2.398702 -0.718598 -0.849377
H 2.557163 0.931258 -1.245144
$end
$scan
stre 1 3 2.900000 2.901000 0.100000
$end
--------------------------------------------------------------

   10    -517.2648601035      2.25e-07  Convergence criterion met
 Total energy in the final basis set =     -517.2648601035
   10    -517.2570790275      2.78e-07  Convergence criterion met
 Total energy in the final basis set =     -517.2570790275
   10    -517.2570859856      2.82e-07  Convergence criterion met
 Total energy in the final basis set =     -517.2570859856
   10    -517.2572772691      2.91e-07  Convergence criterion met
 Total energy in the final basis set =     -517.2572772691
   10    -517.2572848188      2.92e-07  Convergence criterion met
 Total energy in the final basis set =     -517.2572848188
   10    -517.2572957408      2.93e-07  Convergence criterion met
 Total energy in the final basis set =     -517.2572957408
   10    -517.2572983731      2.93e-07  Convergence criterion met
 Total energy in the final basis set =     -517.2572983731
   10    -517.2572996652      2.92e-07  Convergence criterion met
 Total energy in the final basis set =     -517.2572996652

             Standard Nuclear Orientation (Angstroms)
    I     Atom           X                Y                Z
 ----------------------------------------------------------------
    1      S       2.8700703362     0.4381726576    -0.0245613040
    2      C      -0.7393210439     0.4280209600    -0.0045320150
    3      C       0.2078435897    -0.7117866973    -0.0127410146
    4      C      -2.1985951958    -0.1056166746     0.0346264521
    5      H      -0.5620158757     1.0607089144     0.8692497330
    6      H      -0.6071685275     1.0432688525    -0.8989698362
    7      H       0.4153260683    -1.2467028880     0.9076894936
    8      H       0.3927353534    -1.2617733530    -0.9292785229
    9      H      -2.3800681410    -0.7062206700     0.9307148046
   10      H      -2.8930727669     0.7399405813     0.0451628112
   11      H      -2.4239419754    -0.7204129742    -0.8417460055
   12      H       2.6308091786     0.9462002914    -1.2526115962
 ----------------------------------------------------------------

   10    -517.2573002907      2.92e-07  Convergence criterion met
 Total energy in the final basis set =     -517.2573002907

                    Orbital Energies (a.u.)
 --------------------------------------------------------------

 Alpha MOs
 -- Occupied --
-88.849 -10.268 -10.218 -10.209  -7.907  -5.871  -5.870  -5.862
 -0.818  -0.704  -0.660  -0.613  -0.501  -0.461  -0.428  -0.407
 -0.384  -0.366  -0.353  -0.240  -0.212

 Beta MOs
 -- Occupied --
-88.849 -10.268 -10.218 -10.209  -7.907  -5.871  -5.870  -5.862
 -0.818  -0.704  -0.660  -0.613  -0.501  -0.461  -0.428  -0.407
 -0.384  -0.366  -0.353  -0.240  -0.212

          Ground-State Mulliken Net Atomic Charges

     Atom                 Charge (a.u.)    Spin (a.u.)
  --------------------------------------------------------
      1 S                    -0.348822      -0.000000
      2 C                    -0.201103      -0.000000
      3 C                    -0.135994       0.000000
      4 C                    -0.333047      -0.000000
      5 H                     0.147063       0.000000
      6 H                     0.133787       0.000000
      7 H                     0.163189      -0.000000
      8 H                     0.160787      -0.000000
      9 H                     0.120886       0.000000
     10 H                     0.128967       0.000000
     11 H                     0.119196       0.000000
     12 H                     0.045091       0.000000
  --------------------------------------------------------
  Sum of atomic charges =     0.000000

                    Cartesian Multipole Moments
 -----------------------------------------------------------------
    Charge (ESU x 10^10)
                -0.0000
    Dipole Moment (Debye)
         X      -4.7179      Y      -0.8963      Z      -0.7228
       Tot       4.8563
    Quadrupole Moments (Debye-Ang)
        XX     -45.7026     XY      -0.9078     YY     -33.9990
        XZ      -1.8047     YZ      -1.6386     ZZ     -32.2372

 Final energy is   -517.257300290741
 **  OPTIMIZATION CONVERGED  **
 Total job time:  27.65s(wall), 317.65s(cpu)
        *  Thank you very much for using Q-Chem.  Have a nice day.  *
