 Q-Chem 5.1, Q-Chem, Inc., Pleasanton, CA (2018)
 Q-Chem 5.1.1 for Intel X86 EM64T Linux

User input:
--------------------------------------------------------------

$comment
potential surface scanner
$end

$rem
JOBTYPE  PES_SCAN
UNRESTRICTED TRUE
SYM_IGNORE  TRUE
GEOM_OPT_MAX_CYCLES 400
SCF_MAX_CYCLES 400
METHOD   B3LYP
BASIS   6-31G**
PDB_PRINT 2
SCF_CONVERGENCE 6
THRESH 14
SCF_PRINT 1
$end
$molecule
0 1
S 2.126400 0.172600 -0.001000
C -0.602600 0.507000 0.001200
C 0.472000 -0.574500 0.001000
C -1.995800 -0.105100 -0.001200
H -0.500600 1.146800 0.886100
H -0.499900 1.148900 -0.882200
H 0.380400 -1.208800 0.888400
H 0.378500 -1.212800 -0.883500
H -2.152000 -0.728200 0.885200
H -2.755700 0.682700 -0.000800
H -2.150200 -0.725500 -0.889800
H 2.012100 0.800700 -1.180400
$end
$scan
stre 1 3 1.100000 1.101000 0.100000
$end
--------------------------------------------------------------

    9    -517.3385956811      3.60e-07  Convergence criterion met
 Total energy in the final basis set =     -517.3385956811
    9    -517.3254999689      3.81e-07  Convergence criterion met
 Total energy in the final basis set =     -517.3254999689
    9    -517.2819204334      3.99e-07  Convergence criterion met
 Total energy in the final basis set =     -517.2819204334
    8    -517.1998531820      8.37e-07  Convergence criterion met
 Total energy in the final basis set =     -517.1998531820
    8    -517.0739738609      8.89e-07  Convergence criterion met
 Total energy in the final basis set =     -517.0739738609
    9    -516.8564368624      7.66e-07  Convergence criterion met
 Total energy in the final basis set =     -516.8564368624
   10    -516.6733513000      1.94e-07  Convergence criterion met
 Total energy in the final basis set =     -516.6733513000
   10    -516.6100102609      2.14e-07  Convergence criterion met
   10    -516.6002162256      2.48e-07  Convergence criterion met
 Total energy in the final basis set =     -516.6002162256
   10    -516.6002201876      2.48e-07  Convergence criterion met
 Total energy in the final basis set =     -516.6002201876
   10    -516.6002235375      2.48e-07  Convergence criterion met
 Total energy in the final basis set =     -516.6002235375
   10    -516.6002259154      2.48e-07  Convergence criterion met
 Total energy in the final basis set =     -516.6002259154
   10    -516.6002275607      2.48e-07  Convergence criterion met
 Total energy in the final basis set =     -516.6002275607
   10    -516.6002287224      2.48e-07  Convergence criterion met
 Total energy in the final basis set =     -516.6002287224

             Standard Nuclear Orientation (Angstroms)
    I     Atom           X                Y                Z
 ----------------------------------------------------------------
    1      S       1.7608973656    -0.0942726619    -0.0148873611
    2      C      -0.6194164591     0.5916801008     0.0260124289
    3      C       0.7135581347    -0.4262802375    -0.0682886335
    4      C      -1.9576407821    -0.1284674796     0.0035705203
    5      H      -0.4793350182     1.1987825471     0.9299454771
    6      H      -0.5021774330     1.2572996893    -0.8399163399
    7      H       0.4088889874    -1.0677602380     0.7811936194
    8      H       0.2561961889    -1.1564486112    -0.8607574035
    9      H      -2.1089442764    -0.7254048058     0.9111193760
   10      H      -2.7966849015     0.5710404397    -0.0709113100
   11      H      -2.0221959483    -0.8098084286    -0.8536085962
   12      H       2.0594541420     0.6934396857    -1.1204717775
 ----------------------------------------------------------------

   10    -516.6002293917      2.48e-07  Convergence criterion met
 Total energy in the final basis set =     -516.6002293917

                    Orbital Energies (a.u.)
 --------------------------------------------------------------

 Alpha MOs
 -- Occupied --
-88.827 -10.211 -10.181 -10.178  -7.945  -5.913  -5.897  -5.891
 -0.963  -0.756  -0.625  -0.607  -0.531  -0.465  -0.460  -0.428
 -0.389  -0.361  -0.344  -0.265  -0.181

 Beta MOs
 -- Occupied --
-88.827 -10.211 -10.181 -10.178  -7.945  -5.913  -5.897  -5.891
 -0.963  -0.756  -0.625  -0.607  -0.531  -0.465  -0.460  -0.428
 -0.389  -0.361  -0.344  -0.265  -0.181

          Ground-State Mulliken Net Atomic Charges

     Atom                 Charge (a.u.)    Spin (a.u.)
  --------------------------------------------------------
      1 S                     0.169867       0.000000
      2 C                    -0.225576      -0.000000
      3 C                    -0.335193      -0.000000
      4 C                    -0.325312       0.000000
      5 H                     0.097807      -0.000000
      6 H                     0.093518      -0.000000
      7 H                     0.178431       0.000000
      8 H                     0.037599       0.000000
      9 H                     0.100418      -0.000000
     10 H                     0.111124      -0.000000
     11 H                     0.107872       0.000000
     12 H                    -0.010554       0.000000
  --------------------------------------------------------
  Sum of atomic charges =    -0.000000

                    Cartesian Multipole Moments
 -----------------------------------------------------------------
    Charge (ESU x 10^10)
                -0.0000
    Dipole Moment (Debye)
         X      -1.2489      Y      -0.3471      Z      -0.0703
       Tot       1.2981
    Quadrupole Moments (Debye-Ang)
        XX     -37.8777     XY       0.1675     YY     -33.5621
        XZ      -1.3009     YZ      -1.5675     ZZ     -32.7670

 Final energy is   -516.600229391738
 **  OPTIMIZATION CONVERGED  **
 Total job time:  109.67s(wall), 1285.41s(cpu)
        *  Thank you very much for using Q-Chem.  Have a nice day.  *
