 Q-Chem 5.1, Q-Chem, Inc., Pleasanton, CA (2018)
 Q-Chem 5.1.1 for Intel X86 EM64T Linux

User input:
--------------------------------------------------------------

$comment
potential surface scanner
$end

$rem
JOBTYPE  PES_SCAN
UNRESTRICTED TRUE
SYM_IGNORE  TRUE
GEOM_OPT_MAX_CYCLES 400
SCF_MAX_CYCLES 400
METHOD   B3LYP
BASIS   6-31G**
PDB_PRINT 2
SCF_CONVERGENCE 6
THRESH 14
SCF_PRINT 1
$end
$molecule
0 3
S 3.074208 -1.154639 -0.811981
C -0.850440 0.675469 0.155061
C 0.537837 0.096713 -0.170936
C -1.980428 -0.338326 -0.037609
H -0.853360 1.041127 1.189649
H -1.030796 1.552818 -0.479313
H 0.750539 -0.760637 0.478833
H 0.566393 -0.248872 -1.210173
H -1.852141 -1.206451 0.619121
H -2.956944 0.104552 0.184365
H -2.008765 -0.707634 -1.069102
H 1.316503 0.849678 -0.024909
$end
$scan
stre 1 3 2.800000 2.801000 0.100000
$end
--------------------------------------------------------------

   10    -517.2561476150      5.32e-07  Convergence criterion met
 Total energy in the final basis set =     -517.2561476150
   10    -517.2536267040      4.90e-07  Convergence criterion met
 Total energy in the final basis set =     -517.2536267040
   10    -517.2537789830      5.11e-07  Convergence criterion met
 Total energy in the final basis set =     -517.2537789830
   10    -517.2538912384      5.17e-07  Convergence criterion met
 Total energy in the final basis set =     -517.2538912384
   10    -517.2539198443      5.12e-07  Convergence criterion met
 Total energy in the final basis set =     -517.2539198443

             Standard Nuclear Orientation (Angstroms)
    I     Atom           X                Y                Z
 ----------------------------------------------------------------
    1      S       2.9945386460    -1.1211172857    -0.7932238016
    2      C      -0.8423736016     0.6719899184     0.1534573267
    3      C       0.5479316365     0.0911933305    -0.1732088000
    4      C      -1.9732170468    -0.3401788651    -0.0392374239
    5      H      -0.8431461399     1.0378808283     1.1878745533
    6      H      -1.0196733344     1.5492558417    -0.4818053892
    7      H       0.7558764809    -0.7653346095     0.4794441002
    8      H       0.5690449336    -0.2547227516    -1.2126625345
    9      H      -1.8455686631    -1.2091952387     0.6164059843
   10      H      -2.9488741639     0.1038195058     0.1844111630
   11      H      -2.0034326523    -0.7081287301    -1.0711354761
   12      H       1.3214999051     0.8483360559    -0.0273137021
 ----------------------------------------------------------------

   10    -517.2539250739      5.07e-07  Convergence criterion met
 Total energy in the final basis set =     -517.2539250739

                    Orbital Energies (a.u.)
 --------------------------------------------------------------

 Alpha MOs
 -- Occupied --
-88.916 -10.188 -10.183 -10.176  -7.975  -5.945  -5.944  -5.926
 -0.785  -0.715  -0.682  -0.590  -0.462  -0.442  -0.407  -0.389
 -0.352  -0.345  -0.336  -0.314  -0.294  -0.270

 Beta MOs
 -- Occupied --
-88.905 -10.188 -10.182 -10.176  -7.965  -5.924  -5.924  -5.919
 -0.783  -0.688  -0.621  -0.584  -0.460  -0.440  -0.403  -0.387
 -0.344  -0.340  -0.333  -0.243

          Ground-State Mulliken Net Atomic Charges

     Atom                 Charge (a.u.)    Spin (a.u.)
  --------------------------------------------------------
      1 S                    -0.044023       1.938915
      2 C                    -0.184859       0.031573
      3 C                    -0.346951       0.026427
      4 C                    -0.311278      -0.000626
      5 H                     0.100997       0.001013
      6 H                     0.100967       0.001326
      7 H                     0.119720      -0.000012
      8 H                     0.122442       0.000042
      9 H                     0.104582       0.000289
     10 H                     0.103663       0.001209
     11 H                     0.104666       0.000293
     12 H                     0.130075      -0.000450
  --------------------------------------------------------
  Sum of atomic charges =     0.000000

                    Cartesian Multipole Moments
 -----------------------------------------------------------------
    Charge (ESU x 10^10)
                 0.0000
    Dipole Moment (Debye)
         X      -0.8164      Y       0.4145      Z       0.2070
       Tot       0.9387
    Quadrupole Moments (Debye-Ang)
        XX     -36.7920     XY       0.0245     YY     -35.6120
        XZ       0.3476     YZ      -1.1358     ZZ     -33.5870

 Final energy is   -517.253925073896
 **  OPTIMIZATION CONVERGED  **
 Total job time:  19.06s(wall), 218.42s(cpu)
        *  Thank you very much for using Q-Chem.  Have a nice day.  *
