 Q-Chem 5.1, Q-Chem, Inc., Pleasanton, CA (2018)
 Q-Chem 5.1.1 for Intel X86 EM64T Linux

User input:
--------------------------------------------------------------

$comment
potential surface scanner
$end

$rem
JOBTYPE  PES_SCAN
UNRESTRICTED TRUE
SYM_IGNORE  TRUE
GEOM_OPT_MAX_CYCLES 400
SCF_MAX_CYCLES 400
METHOD   B3LYP
BASIS   6-31G**
PDB_PRINT 2
SCF_CONVERGENCE 6
THRESH 14
SCF_PRINT 1
$end
$molecule
0 3
S 2.524118 -0.973136 -0.693043
C -0.790851 0.655528 0.141125
C 0.643803 0.054534 -0.194734
C -1.917574 -0.356310 -0.050827
H -0.773725 1.017323 1.176245
H -0.951979 1.531881 -0.498474
H 0.735941 -0.777909 0.505451
H 0.548957 -0.262581 -1.235205
H -1.786105 -1.229758 0.598352
H -2.891963 0.085311 0.183351
H -1.957275 -0.717286 -1.084964
H 1.329258 0.876200 -0.024271
$end
$scan
stre 1 3 2.100000 2.101000 0.100000
$end
--------------------------------------------------------------

    9    -517.2092903493      8.89e-07  Convergence criterion met
 Total energy in the final basis set =     -517.2092903493
    9    -517.1928021426      8.70e-07  Convergence criterion met
 Total energy in the final basis set =     -517.1928021426
   10    -517.1927825060      4.35e-07  Convergence criterion met
 Total energy in the final basis set =     -517.1927825060
   10    -517.1931457232      6.14e-07  Convergence criterion met
 Total energy in the final basis set =     -517.1931457232
   10    -517.1931637954      6.19e-07  Convergence criterion met
 Total energy in the final basis set =     -517.1931637954
   10    -517.1931692606      6.21e-07  Convergence criterion met
 Total energy in the final basis set =     -517.1931692606

             Standard Nuclear Orientation (Angstroms)
    I     Atom           X                Y                Z
 ----------------------------------------------------------------
    1      S       2.4731016781    -0.9482566045    -0.6810054747
    2      C      -0.7866662482     0.6544033800     0.1394426484
    3      C       0.6801836467     0.0355968974    -0.2040597171
    4      C      -1.9095539792    -0.3582082663    -0.0521275839
    5      H      -0.7580936856     1.0138364678     1.1746710279
    6      H      -0.9370019530     1.5296512707    -0.5034195405
    7      H       0.7131637157    -0.7819892547     0.5174574469
    8      H       0.5290275171    -0.2602370815    -1.2434944722
    9      H      -1.7771696544    -1.2316171409     0.5970949933
   10      H      -2.8846816774     0.0818298987     0.1830319355
   11      H      -1.9505839801    -0.7191956919    -1.0862784983
   12      H       1.3208796201     0.8879831252    -0.0183067652
 ----------------------------------------------------------------

   10    -517.1931696114      6.21e-07  Convergence criterion met
 Total energy in the final basis set =     -517.1931696114

                    Orbital Energies (a.u.)
 --------------------------------------------------------------

 Alpha MOs
 -- Occupied --
-88.871 -10.211 -10.203 -10.186  -7.934  -5.903  -5.901  -5.885
 -0.809  -0.743  -0.661  -0.591  -0.490  -0.470  -0.425  -0.422
 -0.370  -0.360  -0.353  -0.279  -0.238  -0.203

 Beta MOs
 -- Occupied --
-88.861 -10.210 -10.199 -10.186  -7.924  -5.883  -5.883  -5.879
 -0.798  -0.724  -0.627  -0.560  -0.481  -0.464  -0.414  -0.413
 -0.366  -0.350  -0.338  -0.215

          Ground-State Mulliken Net Atomic Charges

     Atom                 Charge (a.u.)    Spin (a.u.)
  --------------------------------------------------------
      1 S                    -0.115398       1.719593
      2 C                    -0.203654       0.179348
      3 C                    -0.443997      -0.008817
      4 C                    -0.313287      -0.004790
      5 H                     0.108282       0.002369
      6 H                     0.108175       0.002510
      7 H                     0.173113       0.039847
      8 H                     0.172768       0.039280
      9 H                     0.108260       0.001721
     10 H                     0.111966       0.004153
     11 H                     0.108235       0.001752
     12 H                     0.185537       0.023034
  --------------------------------------------------------
  Sum of atomic charges =    -0.000000

                    Cartesian Multipole Moments
 -----------------------------------------------------------------
    Charge (ESU x 10^10)
                -0.0000
    Dipole Moment (Debye)
         X      -2.2990      Y       1.1745      Z       0.5903
       Tot       2.6482
    Quadrupole Moments (Debye-Ang)
        XX     -41.6738     XY       2.6286     YY     -36.3793
        XZ       2.0569     YZ      -1.5651     ZZ     -33.3267

 Final energy is   -517.193169611362
 **  OPTIMIZATION CONVERGED  **
 Total job time:  23.34s(wall), 264.95s(cpu)
        *  Thank you very much for using Q-Chem.  Have a nice day.  *
