 Q-Chem 5.1, Q-Chem, Inc., Pleasanton, CA (2018)
 Q-Chem 5.1.1 for Intel X86 EM64T Linux

User input:
--------------------------------------------------------------

$comment
potential surface scanner
$end

$rem
JOBTYPE  PES_SCAN
UNRESTRICTED TRUE
SYM_IGNORE  TRUE
GEOM_OPT_MAX_CYCLES 400
SCF_MAX_CYCLES 400
METHOD   B3LYP
BASIS   6-31G**
PDB_PRINT 2
SCF_CONVERGENCE 6
THRESH 14
SCF_PRINT 1
$end
$molecule
0 1
S 3.086628 0.517496 -0.032772
C -0.783473 0.405980 -0.007408
C 0.144548 -0.741055 -0.018101
C -2.253040 -0.110860 0.049525
H -0.596314 1.038997 0.864406
H -0.656182 1.014399 -0.907147
H 0.393007 -1.256870 0.902830
H 0.373823 -1.264703 -0.939584
H -2.431955 -0.703109 0.951175
H -2.931929 0.747106 0.062472
H -2.494366 -0.726171 -0.821625
H 2.861853 0.982588 -1.280770
$end
$scan
stre 1 3 3.300000 3.301000 0.100000
$end
--------------------------------------------------------------

   11    -517.2376609530      2.54e-07  Convergence criterion met
 Total energy in the final basis set =     -517.2376609530
   11    -517.2319003252      4.36e-07  Convergence criterion met
 Total energy in the final basis set =     -517.2319003252
   11    -517.2318753982      4.45e-07  Convergence criterion met
 Total energy in the final basis set =     -517.2318753982
   11    -517.2320362533      4.59e-07  Convergence criterion met
 Total energy in the final basis set =     -517.2320362533
   11    -517.2320419828      4.59e-07  Convergence criterion met
 Total energy in the final basis set =     -517.2320419828
   11    -517.2320631061      4.56e-07  Convergence criterion met
 Total energy in the final basis set =     -517.2320631061
   11    -517.2320753162      4.52e-07  Convergence criterion met
 Total energy in the final basis set =     -517.2320753162
   11    -517.2320814243      4.47e-07  Convergence criterion met
 Total energy in the final basis set =     -517.2320814243
   11    -517.2320828010      4.45e-07  Convergence criterion met
 Total energy in the final basis set =     -517.2320828010

             Standard Nuclear Orientation (Angstroms)
    I     Atom           X                Y                Z
 ----------------------------------------------------------------
    1      S       3.1593326732     0.5450638027    -0.0369344777
    2      C      -0.7977747730     0.3982443703    -0.0080372657
    3      C       0.1245981470    -0.7511111436    -0.0191626083
    4      C      -2.2707728323    -0.1123337075     0.0541066608
    5      H      -0.6073976878     1.0315497711     0.8630263156
    6      H      -0.6716321860     1.0044815072    -0.9094634478
    7      H       0.3837280306    -1.2610002939     0.9022665079
    8      H       0.3631374794    -1.2688558347    -0.9417996868
    9      H      -2.4491095864    -0.7025414351     0.9570577970
   10      H      -2.9443872498     0.7497135104     0.0682402691
   11      H      -2.5171642012    -0.7271527673    -0.8157955783
   12      H       2.9400421861     0.9977402206    -1.2905034857
 ----------------------------------------------------------------

   11    -517.2320834867      4.44e-07  Convergence criterion met
 Total energy in the final basis set =     -517.2320834867

                    Orbital Energies (a.u.)
 --------------------------------------------------------------

 Alpha MOs
 -- Occupied --
-88.841 -10.275 -10.226 -10.216  -7.900  -5.863  -5.863  -5.854
 -0.825  -0.711  -0.653  -0.620  -0.509  -0.470  -0.435  -0.412
 -0.392  -0.373  -0.346  -0.222  -0.205

 Beta MOs
 -- Occupied --
-88.841 -10.275 -10.226 -10.216  -7.900  -5.863  -5.863  -5.854
 -0.825  -0.711  -0.653  -0.620  -0.509  -0.470  -0.435  -0.412
 -0.392  -0.373  -0.346  -0.222  -0.205

          Ground-State Mulliken Net Atomic Charges

     Atom                 Charge (a.u.)    Spin (a.u.)
  --------------------------------------------------------
      1 S                    -0.385549       0.000000
      2 C                    -0.213996      -0.000000
      3 C                    -0.119413      -0.000000
      4 C                    -0.332995       0.000000
      5 H                     0.153499      -0.000000
      6 H                     0.141558      -0.000000
      7 H                     0.168410       0.000000
      8 H                     0.165322       0.000000
      9 H                     0.124757       0.000000
     10 H                     0.133338      -0.000000
     11 H                     0.123365       0.000000
     12 H                     0.041703      -0.000000
  --------------------------------------------------------
  Sum of atomic charges =    -0.000000

                    Cartesian Multipole Moments
 -----------------------------------------------------------------
    Charge (ESU x 10^10)
                -0.0000
    Dipole Moment (Debye)
         X      -5.7376      Y      -1.1981      Z      -0.7279
       Tot       5.9063
    Quadrupole Moments (Debye-Ang)
        XX     -48.9529     XY      -1.7517     YY     -34.1674
        XZ      -2.0304     YZ      -1.5876     ZZ     -32.0161

 Final energy is   -517.232083486692
 **  OPTIMIZATION CONVERGED  **
 Total job time:  31.84s(wall), 370.75s(cpu)
        *  Thank you very much for using Q-Chem.  Have a nice day.  *
