 Q-Chem 5.1, Q-Chem, Inc., Pleasanton, CA (2018)
 Q-Chem 5.1.1 for Intel X86 EM64T Linux

User input:
--------------------------------------------------------------

$comment
potential surface scanner
$end

$rem
JOBTYPE  PES_SCAN
UNRESTRICTED TRUE
SYM_IGNORE  TRUE
GEOM_OPT_MAX_CYCLES 400
SCF_MAX_CYCLES 400
METHOD   B3LYP
BASIS   6-31G**
PDB_PRINT 2
SCF_CONVERGENCE 6
THRESH 14
SCF_PRINT 1
$end
$molecule
0 1
S 3.017413 0.487154 -0.028027
C -0.770473 0.415271 -0.007380
C 0.165419 -0.727767 -0.018166
C -2.235409 -0.110756 0.045803
H -0.587006 1.048982 0.864622
H -0.644164 1.026134 -0.905628
H 0.399970 -1.251399 0.902424
H 0.379053 -1.260847 -0.938660
H -2.412749 -0.705224 0.946446
H -2.921326 0.741654 0.057868
H -2.471007 -0.727320 -0.826212
H 2.792879 0.967916 -1.270088
$end
$scan
stre 1 3 3.200000 3.201000 0.100000
$end
--------------------------------------------------------------

   11    -517.2437079670      2.31e-07  Convergence criterion met
 Total energy in the final basis set =     -517.2437079670
   11    -517.2374559368      2.51e-07  Convergence criterion met
 Total energy in the final basis set =     -517.2374559368
   11    -517.2374543800      2.50e-07  Convergence criterion met
 Total energy in the final basis set =     -517.2374543800
   11    -517.2376177582      2.50e-07  Convergence criterion met
 Total energy in the final basis set =     -517.2376177582
   11    -517.2376237112      2.50e-07  Convergence criterion met
 Total energy in the final basis set =     -517.2376237112
   11    -517.2376439802      2.51e-07  Convergence criterion met
 Total energy in the final basis set =     -517.2376439802
   11    -517.2376540426      2.53e-07  Convergence criterion met
 Total energy in the final basis set =     -517.2376540426
   11    -517.2376587478      2.54e-07  Convergence criterion met
 Total energy in the final basis set =     -517.2376587478
   11    -517.2376600119      2.54e-07  Convergence criterion met
 Total energy in the final basis set =     -517.2376600119

             Standard Nuclear Orientation (Angstroms)
    I     Atom           X                Y                Z
 ----------------------------------------------------------------
    1      S       3.0866276995     0.5174960865    -0.0327717327
    2      C      -0.7834730608     0.4059800928    -0.0074076801
    3      C       0.1445479470    -0.7410546808    -0.0181014455
    4      C      -2.2530397712    -0.1108602788     0.0495254707
    5      H      -0.5963140562     1.0389967508     0.8644058303
    6      H      -0.6561818245     1.0143992858    -0.9071469907
    7      H       0.3930070062    -1.2568703442     0.9028302102
    8      H       0.3738229848    -1.2647029726    -0.9395836053
    9      H      -2.4319545061    -0.7031085843     0.9511746991
   10      H      -2.9319292434     0.7471064069     0.0624719924
   11      H      -2.4943659268    -0.7261714163    -0.8216250379
   12      H       2.8618527514     0.9825876541    -1.2807697106
 ----------------------------------------------------------------

   11    -517.2376609719      2.54e-07  Convergence criterion met
 Total energy in the final basis set =     -517.2376609719

                    Orbital Energies (a.u.)
 --------------------------------------------------------------

 Alpha MOs
 -- Occupied --
-88.842 -10.274 -10.225 -10.214  -7.901  -5.865  -5.864  -5.856
 -0.824  -0.709  -0.654  -0.619  -0.507  -0.468  -0.434  -0.411
 -0.390  -0.372  -0.347  -0.226  -0.206

 Beta MOs
 -- Occupied --
-88.842 -10.274 -10.225 -10.214  -7.901  -5.865  -5.864  -5.856
 -0.824  -0.709  -0.654  -0.619  -0.507  -0.468  -0.434  -0.411
 -0.390  -0.372  -0.347  -0.226  -0.206

          Ground-State Mulliken Net Atomic Charges

     Atom                 Charge (a.u.)    Spin (a.u.)
  --------------------------------------------------------
      1 S                    -0.379674      -0.000000
      2 C                    -0.211544      -0.000000
      3 C                    -0.121011       0.000000
      4 C                    -0.333241       0.000000
      5 H                     0.152340      -0.000000
      6 H                     0.140032       0.000000
      7 H                     0.167438       0.000000
      8 H                     0.164479       0.000000
      9 H                     0.123958      -0.000000
     10 H                     0.132485      -0.000000
     11 H                     0.122479      -0.000000
     12 H                     0.042260      -0.000000
  --------------------------------------------------------
  Sum of atomic charges =     0.000000

                    Cartesian Multipole Moments
 -----------------------------------------------------------------
    Charge (ESU x 10^10)
                -0.0000
    Dipole Moment (Debye)
         X      -5.5062      Y      -1.1267      Z      -0.7296
       Tot       5.6674
    Quadrupole Moments (Debye-Ang)
        XX     -48.1332     XY      -1.5335     YY     -34.1173
        XZ      -1.9796     YZ      -1.5979     ZZ     -32.0667

 Final energy is   -517.237660971893
 **  OPTIMIZATION CONVERGED  **
 Total job time:  33.46s(wall), 385.03s(cpu)
        *  Thank you very much for using Q-Chem.  Have a nice day.  *
