 Q-Chem 5.1, Q-Chem, Inc., Pleasanton, CA (2018)
 Q-Chem 5.1.1 for Intel X86 EM64T Linux

User input:
--------------------------------------------------------------

$comment
potential surface scanner
$end

$rem
JOBTYPE  PES_SCAN
UNRESTRICTED TRUE
SYM_IGNORE  TRUE
GEOM_OPT_MAX_CYCLES 400
SCF_MAX_CYCLES 400
METHOD   B3LYP
BASIS   6-31G**
PDB_PRINT 2
SCF_CONVERGENCE 6
THRESH 14
SCF_PRINT 1
$end
$molecule
0 3
S 3.857994 0.855615 -0.113999
C -0.952744 0.272321 -0.013998
C -0.056969 -0.920872 -0.029360
C -2.453905 -0.083541 0.105690
H -0.683325 0.930533 0.822015
H -0.810022 0.859210 -0.931588
H 0.324135 -1.346532 0.893066
H 0.098751 -1.487173 -0.942319
H -2.654218 -0.635358 1.029617
H -3.069509 0.823025 0.110564
H -2.777517 -0.708557 -0.732851
H 3.889931 1.345131 -1.373837
$end
$scan
stre 1 3 4.200000 4.201000 0.100000
$end
--------------------------------------------------------------

   10    -517.2241304411      5.01e-07  Convergence criterion met
 Total energy in the final basis set =     -517.2241304411
   10    -517.2236635735      5.14e-07  Convergence criterion met
 Total energy in the final basis set =     -517.2236635735
   10    -517.2239450123      5.13e-07  Convergence criterion met
 Total energy in the final basis set =     -517.2239450123
   10    -517.2240552614      5.11e-07  Convergence criterion met
 Total energy in the final basis set =     -517.2240552614
   10    -517.2240613526      5.11e-07  Convergence criterion met
 Total energy in the final basis set =     -517.2240613526
   10    -517.2240703888      5.12e-07  Convergence criterion met
 Total energy in the final basis set =     -517.2240703888
   10    -517.2240725882      5.11e-07  Convergence criterion met
 Total energy in the final basis set =     -517.2240725882
   10    -517.2240786639      5.08e-07  Convergence criterion met
 Total energy in the final basis set =     -517.2240786639
   10    -517.2240809261      5.07e-07  Convergence criterion met
 Total energy in the final basis set =     -517.2240809261
   10    -517.2240820523      5.06e-07  Convergence criterion met
 Total energy in the final basis set =     -517.2240820523

             Standard Nuclear Orientation (Angstroms)
    I     Atom           X                Y                Z
 ----------------------------------------------------------------
    1      S       3.7774899984     0.8362312599    -0.1110589664
    2      C      -0.9346351462     0.2772651893    -0.0081099636
    3      C      -0.0386457179    -0.9157648249    -0.0237606802
    4      C      -2.4367115983    -0.0793961559     0.0968085733
    5      H      -0.6721010428     0.9305137842     0.8338855413
    6      H      -0.7846614415     0.8697957919    -0.9209859052
    7      H       0.3396774706    -1.3438489722     0.8986169268
    8      H       0.1179968857    -1.4802483867    -0.9377090268
    9      H      -2.6448412834    -0.6362625066     1.0159674203
   10      H      -3.0525253995     0.8270363647     0.1012948077
   11      H      -2.7530033815    -0.6999035082    -0.7478644922
   12      H       3.7945626564     1.3183839646    -1.3740842350
 ----------------------------------------------------------------

   10    -517.2240824162      5.06e-07  Convergence criterion met
 Total energy in the final basis set =     -517.2240824162

                    Orbital Energies (a.u.)
 --------------------------------------------------------------

 Alpha MOs
 -- Occupied --
-88.909 -10.182 -10.181 -10.174  -7.970  -5.942  -5.932  -5.923
 -0.775  -0.737  -0.668  -0.575  -0.457  -0.423  -0.411  -0.388
 -0.374  -0.345  -0.328  -0.319  -0.271  -0.192

 Beta MOs
 -- Occupied --
-88.904 -10.183 -10.172 -10.167  -7.965  -5.929  -5.924  -5.919
 -0.765  -0.697  -0.650  -0.560  -0.453  -0.418  -0.397  -0.383
 -0.362  -0.340  -0.326  -0.256

          Ground-State Mulliken Net Atomic Charges

     Atom                 Charge (a.u.)    Spin (a.u.)
  --------------------------------------------------------
      1 S                    -0.072553       1.030780
      2 C                    -0.188393      -0.074044
      3 C                    -0.210688       1.077836
      4 C                    -0.307340       0.049107
      5 H                     0.101670       0.010396
      6 H                     0.099365       0.016570
      7 H                     0.101191      -0.048007
      8 H                     0.096749      -0.047837
      9 H                     0.105094      -0.000239
     10 H                     0.098737       0.013623
     11 H                     0.103800      -0.000687
     12 H                     0.072369      -0.027498
  --------------------------------------------------------
  Sum of atomic charges =     0.000000

                    Cartesian Multipole Moments
 -----------------------------------------------------------------
    Charge (ESU x 10^10)
                 0.0000
    Dipole Moment (Debye)
         X      -0.1376      Y       0.4326      Z      -0.9352
       Tot       1.0396
    Quadrupole Moments (Debye-Ang)
        XX     -36.5452     XY      -0.0145     YY     -33.2167
        XZ      -3.9239     YZ      -1.2665     ZZ     -31.8055

 Final energy is   -517.224082416248
 **  OPTIMIZATION CONVERGED  **
 Total job time:  33.58s(wall), 380.38s(cpu)
        *  Thank you very much for using Q-Chem.  Have a nice day.  *
