 Q-Chem 5.1, Q-Chem, Inc., Pleasanton, CA (2018)
 Q-Chem 5.1.1 for Intel X86 EM64T Linux

User input:
--------------------------------------------------------------

$comment
potential surface scanner
$end

$rem
JOBTYPE  PES_SCAN
UNRESTRICTED TRUE
SYM_IGNORE  TRUE
GEOM_OPT_MAX_CYCLES 400
SCF_MAX_CYCLES 400
METHOD   B3LYP
BASIS   6-31G**
PDB_PRINT 2
SCF_CONVERGENCE 6
THRESH 14
SCF_PRINT 1
$end
$molecule
0 3
S 3.447437 1.051524 -0.363678
C -0.777745 0.394159 -0.045665
C 0.198778 -0.715951 -0.253020
C -2.235252 -0.107127 0.097710
H -0.515354 0.961140 0.856746
H -0.729927 1.098637 -0.885132
H 0.517006 -1.327209 0.587453
H 0.358645 -1.130282 -1.244771
H -2.334156 -0.789233 0.947991
H -2.918148 0.734361 0.255883
H -2.557242 -0.642543 -0.800868
H 2.258564 0.376327 -0.329643
$end
$scan
stre 1 3 3.600000 3.601000 0.100000
$end
--------------------------------------------------------------

   10    -517.2283139150      5.49e-07  Convergence criterion met
 Total energy in the final basis set =     -517.2283139150
   10    -517.2272676844      5.75e-07  Convergence criterion met
 Total energy in the final basis set =     -517.2272676844
   10    -517.2281618882      5.66e-07  Convergence criterion met
 Total energy in the final basis set =     -517.2281618882
   10    -517.2284559444      5.49e-07  Convergence criterion met
 Total energy in the final basis set =     -517.2284559444
   10    -517.2284658096      5.45e-07  Convergence criterion met
 Total energy in the final basis set =     -517.2284658096
   10    -517.2284670514      5.45e-07  Convergence criterion met
 Total energy in the final basis set =     -517.2284670514
   10    -517.2284689186      5.47e-07  Convergence criterion met
 Total energy in the final basis set =     -517.2284689186
   10    -517.2284699580      5.50e-07  Convergence criterion met
 Total energy in the final basis set =     -517.2284699580

             Standard Nuclear Orientation (Angstroms)
    I     Atom           X                Y                Z
 ----------------------------------------------------------------
    1      S       3.3730746351     1.0298522497    -0.3658203127
    2      C      -0.7630668139     0.4034781706    -0.0422476082
    3      C       0.2191315188    -0.7019709673    -0.2499272674
    4      C      -2.2180785414    -0.1069467503     0.0931153625
    5      H      -0.5066879928     0.9683755461     0.8629722142
    6      H      -0.7155458909     1.1108449773    -0.8792894506
    7      H       0.5331566307    -1.3153434080     0.5909103342
    8      H       0.3624989712    -1.1278778280    -1.2396394656
    9      H      -2.3168492937    -0.7925842108     0.9405494240
   10      H      -2.9061239638     0.7302640160     0.2514720427
   11      H      -2.5335195618    -0.6406021634    -0.8088349723
   12      H       2.1846163025     0.3463133680    -0.3302543008
 ----------------------------------------------------------------

   10    -517.2284705500      5.51e-07  Convergence criterion met
 Total energy in the final basis set =     -517.2284705500

                    Orbital Energies (a.u.)
 --------------------------------------------------------------

 Alpha MOs
 -- Occupied --
-88.895 -10.206 -10.197 -10.187  -7.956  -5.928  -5.918  -5.909
 -0.793  -0.723  -0.685  -0.593  -0.474  -0.439  -0.405  -0.404
 -0.385  -0.360  -0.344  -0.308  -0.260  -0.218

 Beta MOs
 -- Occupied --
-88.889 -10.198 -10.193 -10.185  -7.951  -5.913  -5.910  -5.905
 -0.782  -0.681  -0.666  -0.581  -0.470  -0.433  -0.399  -0.387
 -0.374  -0.355  -0.342  -0.245

          Ground-State Mulliken Net Atomic Charges

     Atom                 Charge (a.u.)    Spin (a.u.)
  --------------------------------------------------------
      1 S                    -0.093924       1.082574
      2 C                    -0.188636      -0.066858
      3 C                    -0.240662       1.006113
      4 C                    -0.311525       0.050491
      5 H                     0.112453       0.013059
      6 H                     0.111333       0.010181
      7 H                     0.117819      -0.041193
      8 H                     0.118492      -0.041220
      9 H                     0.109210      -0.000973
     10 H                     0.108899       0.013684
     11 H                     0.109448      -0.000763
     12 H                     0.047095      -0.025096
  --------------------------------------------------------
  Sum of atomic charges =    -0.000000

                    Cartesian Multipole Moments
 -----------------------------------------------------------------
    Charge (ESU x 10^10)
                 0.0000
    Dipole Moment (Debye)
         X      -2.0593      Y      -0.7937      Z       0.1114
       Tot       2.2098
    Quadrupole Moments (Debye-Ang)
        XX     -42.1808     XY      -2.3193     YY     -36.3390
        XZ       1.0075     YZ      -0.1041     ZZ     -32.8059

 Final energy is   -517.228470550040
 **  OPTIMIZATION CONVERGED  **
 Total job time:  29.45s(wall), 332.65s(cpu)
        *  Thank you very much for using Q-Chem.  Have a nice day.  *
