 Q-Chem 5.1, Q-Chem, Inc., Pleasanton, CA (2018)
 Q-Chem 5.1.1 for Intel X86 EM64T Linux

User input:
--------------------------------------------------------------

$comment
potential surface scanner
$end

$rem
JOBTYPE  PES_SCAN
UNRESTRICTED TRUE
SYM_IGNORE  TRUE
GEOM_OPT_MAX_CYCLES 400
SCF_MAX_CYCLES 400
METHOD   B3LYP
BASIS   6-31G**
PDB_PRINT 2
SCF_CONVERGENCE 6
THRESH 14
SCF_PRINT 1
$end
$molecule
0 3
S 3.319911 -0.656564 -0.983477
C -0.828747 0.643450 0.146030
C 0.509429 -0.065640 -0.116290
C -2.035527 -0.279717 -0.040190
H -0.827894 1.052353 1.164247
H -0.917495 1.505627 -0.526960
H 0.657859 -0.902598 0.573840
H 0.535046 -0.469172 -1.135067
H -1.988730 -1.135074 0.643322
H -2.976226 0.247289 0.150143
H -2.074575 -0.674302 -1.061843
H 1.339556 0.638147 0.009251
$end
$scan
stre 1 3 2.900000 2.901000 0.100000
$end
--------------------------------------------------------------

   13    -517.2574267163      9.29e-07  Convergence criterion met
 Total energy in the final basis set =     -517.2574267163
   12    -517.2557560196      9.26e-07  Convergence criterion met
 Total energy in the final basis set =     -517.2557560196
   12    -517.2558310450      8.58e-07  Convergence criterion met
 Total energy in the final basis set =     -517.2558310450
   12    -517.2558470969      8.48e-07  Convergence criterion met
 Total energy in the final basis set =     -517.2558470969
   12    -517.2558568988      8.48e-07  Convergence criterion met
 Total energy in the final basis set =     -517.2558568988
   12    -517.2558785935      8.49e-07  Convergence criterion met
 Total energy in the final basis set =     -517.2558785935
   12    -517.2559028593      8.19e-07  Convergence criterion met
 Total energy in the final basis set =     -517.2559028593
   10    -517.2559054208      9.04e-07  Convergence criterion met
   10    -517.2559619295      5.80e-07  Convergence criterion met
 Total energy in the final basis set =     -517.2559619295
   10    -517.2559767689      4.04e-07  Convergence criterion met
 Total energy in the final basis set =     -517.2559767689
   10    -517.2560512312      3.02e-07  Convergence criterion met
 Total energy in the final basis set =     -517.2560512312
   10    -517.2561015522      2.88e-07  Convergence criterion met
 Total energy in the final basis set =     -517.2561015522
   10    -517.2561428510      6.41e-07  Convergence criterion met
 Total energy in the final basis set =     -517.2561428510
   10    -517.2561474296      5.17e-07  Convergence criterion met
 Total energy in the final basis set =     -517.2561474296

             Standard Nuclear Orientation (Angstroms)
    I     Atom           X                Y                Z
 ----------------------------------------------------------------
    1      S       3.0742083714    -1.1546386318    -0.8119812377
    2      C      -0.8504402722     0.6754690135     0.1550614207
    3      C       0.5378367049     0.0967133272    -0.1709364117
    4      C      -1.9804279187    -0.3383260834    -0.0376092932
    5      H      -0.8533598472     1.0411273445     1.1896494837
    6      H      -1.0307958746     1.5528184619    -0.4793125373
    7      H       0.7505393616    -0.7606371057     0.4788327692
    8      H       0.5663925562    -0.2488722556    -1.2101732679
    9      H      -1.8521410352    -1.2064508624     0.6191214067
   10      H      -2.9569435554     0.1045515197     0.1843654278
   11      H      -2.0087646785    -0.7076339046    -1.0691023355
   12      H       1.3165031878     0.8496781766    -0.0249094249
 ----------------------------------------------------------------

   10    -517.2561476295      5.32e-07  Convergence criterion met
 Total energy in the final basis set =     -517.2561476295

                    Orbital Energies (a.u.)
 --------------------------------------------------------------

 Alpha MOs
 -- Occupied --
-88.919 -10.187 -10.181 -10.175  -7.979  -5.948  -5.948  -5.929
 -0.783  -0.715  -0.682  -0.588  -0.460  -0.440  -0.405  -0.387
 -0.350  -0.343  -0.335  -0.317  -0.300  -0.272

 Beta MOs
 -- Occupied --
-88.908 -10.186 -10.180 -10.175  -7.968  -5.927  -5.927  -5.923
 -0.782  -0.686  -0.621  -0.584  -0.459  -0.439  -0.401  -0.385
 -0.342  -0.339  -0.331  -0.246

          Ground-State Mulliken Net Atomic Charges

     Atom                 Charge (a.u.)    Spin (a.u.)
  --------------------------------------------------------
      1 S                    -0.036217       1.951375
      2 C                    -0.183560       0.025505
      3 C                    -0.338829       0.022082
      4 C                    -0.311125      -0.000467
      5 H                     0.100111       0.000786
      6 H                     0.100048       0.001087
      7 H                     0.115302      -0.000615
      8 H                     0.118401      -0.000537
      9 H                     0.104079       0.000234
     10 H                     0.103037       0.001024
     11 H                     0.104232       0.000237
     12 H                     0.124522      -0.000710
  --------------------------------------------------------
  Sum of atomic charges =     0.000000

                    Cartesian Multipole Moments
 -----------------------------------------------------------------
    Charge (ESU x 10^10)
                -0.0000
    Dipole Moment (Debye)
         X      -0.6784      Y       0.3499      Z       0.1728
       Tot       0.7826
    Quadrupole Moments (Debye-Ang)
        XX     -36.3381     XY      -0.1741     YY     -35.4945
        XZ       0.1644     YZ      -1.1506     ZZ     -33.6481

 Final energy is   -517.256147629500
 **  OPTIMIZATION CONVERGED  **
 Total job time:  63.91s(wall), 640.67s(cpu)
        *  Thank you very much for using Q-Chem.  Have a nice day.  *
