 Q-Chem 5.1, Q-Chem, Inc., Pleasanton, CA (2018)
 Q-Chem 5.1.1 for Intel X86 EM64T Linux

User input:
--------------------------------------------------------------

$comment
potential surface scanner
$end

$rem
JOBTYPE  PES_SCAN
UNRESTRICTED TRUE
SYM_IGNORE  TRUE
GEOM_OPT_MAX_CYCLES 400
SCF_MAX_CYCLES 400
METHOD   B3LYP
BASIS   6-31G**
PDB_PRINT 2
SCF_CONVERGENCE 6
THRESH 14
SCF_PRINT 1
$end
$molecule
0 3
S 3.373075 1.029852 -0.365820
C -0.763067 0.403478 -0.042248
C 0.219132 -0.701971 -0.249927
C -2.218079 -0.106947 0.093115
H -0.506688 0.968376 0.862972
H -0.715546 1.110845 -0.879289
H 0.533157 -1.315343 0.590910
H 0.362499 -1.127878 -1.239639
H -2.316849 -0.792584 0.940549
H -2.906124 0.730264 0.251472
H -2.533520 -0.640602 -0.808835
H 2.184616 0.346313 -0.330254
$end
$scan
stre 1 3 3.500000 3.501000 0.100000
$end
--------------------------------------------------------------

   10    -517.2284705502      5.51e-07  Convergence criterion met
 Total energy in the final basis set =     -517.2284705502
   10    -517.2273533509      5.87e-07  Convergence criterion met
 Total energy in the final basis set =     -517.2273533509
   10    -517.2282185417      5.70e-07  Convergence criterion met
 Total energy in the final basis set =     -517.2282185417
   10    -517.2285208007      5.36e-07  Convergence criterion met
 Total energy in the final basis set =     -517.2285208007
   10    -517.2285323772      5.27e-07  Convergence criterion met
 Total energy in the final basis set =     -517.2285323772
   10    -517.2285336831      5.27e-07  Convergence criterion met
 Total energy in the final basis set =     -517.2285336831
   10    -517.2285352105      5.29e-07  Convergence criterion met
 Total energy in the final basis set =     -517.2285352105

             Standard Nuclear Orientation (Angstroms)
    I     Atom           X                Y                Z
 ----------------------------------------------------------------
    1      S       3.2979465851     1.0075384223    -0.3656998284
    2      C      -0.7487104008     0.4122874653    -0.0401238283
    3      C       0.2388045241    -0.6888703188    -0.2480253763
    4      C      -2.2011226456    -0.1064881426     0.0895703057
    5      H      -0.4970642726     0.9759844089     0.8669949552
    6      H      -0.7020406760     1.1217310476    -0.8754094928
    7      H       0.5490466692    -1.3043544595     0.5929440764
    8      H       0.3716578194    -1.1221686114    -1.2362595087
    9      H      -2.2989827495    -0.7945147159     0.9351637296
   10      H      -2.8938354577     0.7268454781     0.2477769394
   11      H      -2.5112260887    -0.6395068180    -0.8146108576
   12      H       2.1081326930     0.3153192439    -0.3293151141
 ----------------------------------------------------------------

   10    -517.2285359888      5.31e-07  Convergence criterion met
 Total energy in the final basis set =     -517.2285359888

                    Orbital Energies (a.u.)
 --------------------------------------------------------------

 Alpha MOs
 -- Occupied --
-88.893 -10.208 -10.198 -10.187  -7.955  -5.926  -5.916  -5.907
 -0.794  -0.721  -0.686  -0.594  -0.475  -0.440  -0.406  -0.405
 -0.384  -0.360  -0.344  -0.306  -0.259  -0.220

 Beta MOs
 -- Occupied --
-88.887 -10.199 -10.195 -10.186  -7.949  -5.911  -5.908  -5.904
 -0.783  -0.680  -0.666  -0.582  -0.471  -0.433  -0.400  -0.387
 -0.372  -0.356  -0.342  -0.243

          Ground-State Mulliken Net Atomic Charges

     Atom                 Charge (a.u.)    Spin (a.u.)
  --------------------------------------------------------
      1 S                    -0.094824       1.099384
      2 C                    -0.186755      -0.065376
      3 C                    -0.244600       0.990900
      4 C                    -0.311986       0.049829
      5 H                     0.113370       0.012463
      6 H                     0.112399       0.010244
      7 H                     0.120536      -0.039925
      8 H                     0.121057      -0.039946
      9 H                     0.109508      -0.000981
     10 H                     0.109538       0.013730
     11 H                     0.109693      -0.000821
     12 H                     0.042066      -0.029503
  --------------------------------------------------------
  Sum of atomic charges =     0.000000

                    Cartesian Multipole Moments
 -----------------------------------------------------------------
    Charge (ESU x 10^10)
                -0.0000
    Dipole Moment (Debye)
         X      -2.1421      Y      -0.8345      Z       0.1190
       Tot       2.3019
    Quadrupole Moments (Debye-Ang)
        XX     -42.2411     XY      -2.3416     YY     -36.3079
        XZ       1.0325     YZ      -0.0759     ZZ     -32.8030

 Final energy is   -517.228535988784
 **  OPTIMIZATION CONVERGED  **
 Total job time:  25.05s(wall), 288.83s(cpu)
        *  Thank you very much for using Q-Chem.  Have a nice day.  *
