 Q-Chem 5.1, Q-Chem, Inc., Pleasanton, CA (2018)
 Q-Chem 5.1.1 for Intel X86 EM64T Linux

User input:
--------------------------------------------------------------

$comment
potential surface scanner
$end

$rem
JOBTYPE  PES_SCAN
UNRESTRICTED TRUE
SYM_IGNORE  TRUE
GEOM_OPT_MAX_CYCLES 400
SCF_MAX_CYCLES 400
METHOD   B3LYP
BASIS   6-31G**
PDB_PRINT 2
SCF_CONVERGENCE 6
THRESH 14
SCF_PRINT 1
$end
$molecule
0 1
S 3.380847 0.623830 -0.061496
C -0.840493 0.374213 -0.004622
C 0.067021 -0.782061 -0.016463
C -2.323345 -0.115966 0.064391
H -0.642497 1.007650 0.865165
H -0.713557 0.975674 -0.909615
H 0.357632 -1.273896 0.905810
H 0.318095 -1.292300 -0.940589
H -2.505675 -0.701280 0.969361
H -2.981672 0.757719 0.078782
H -2.580110 -0.728451 -0.803772
H 3.176355 1.058668 -1.323947
$end
$scan
stre 1 3 3.700000 3.701000 0.100000
$end
--------------------------------------------------------------

   12    -517.2178642366      9.07e-07  Convergence criterion met
 Total energy in the final basis set =     -517.2178642366
   13    -517.2137056232      5.24e-07  Convergence criterion met
 Total energy in the final basis set =     -517.2137056232
   13    -517.2137324780      4.81e-07  Convergence criterion met
 Total energy in the final basis set =     -517.2137324780
   13    -517.2138434204      3.46e-07  Convergence criterion met
 Total energy in the final basis set =     -517.2138434204
   13    -517.2138498332      3.38e-07  Convergence criterion met
 Total energy in the final basis set =     -517.2138498332
   13    -517.2138653720      3.27e-07  Convergence criterion met
 Total energy in the final basis set =     -517.2138653720
   13    -517.2138704472      3.30e-07  Convergence criterion met
 Total energy in the final basis set =     -517.2138704472
   13    -517.2138760118      3.37e-07  Convergence criterion met
   13    -517.2138802066      3.45e-07  Convergence criterion met
 Total energy in the final basis set =     -517.2138802066
   13    -517.2138841521      3.59e-07  Convergence criterion met
 Total energy in the final basis set =     -517.2138841521
   13    -517.2138868473      3.75e-07  Convergence criterion met
 Total energy in the final basis set =     -517.2138868473
   13    -517.2138892665      4.00e-07  Convergence criterion met
 Total energy in the final basis set =     -517.2138892665
   13    -517.2138915167      4.33e-07  Convergence criterion met
 Total energy in the final basis set =     -517.2138915167
   13    -517.2138930810      4.65e-07  Convergence criterion met
 Total energy in the final basis set =     -517.2138930810

             Standard Nuclear Orientation (Angstroms)
    I     Atom           X                Y                Z
 ----------------------------------------------------------------
    1      S       3.4585062535     0.6449625268    -0.0740532358
    2      C      -0.8564105540     0.3675035474    -0.0017565373
    3      C       0.0484806084    -0.7896431887    -0.0138005094
    4      C      -2.3415159646    -0.1184362305     0.0670335109
    5      H      -0.6580939250     1.0006596770     0.8683500790
    6      H      -0.7291087024     0.9685001787    -0.9071964558
    7      H       0.3479795191    -1.2760733264     0.9085492344
    8      H       0.3023310310    -1.2980035137    -0.9382514201
    9      H      -2.5253365245    -0.7032670731     0.9719191584
   10      H      -2.9966107916     0.7576615746     0.0813147021
   11      H      -2.5993907768    -0.7299752931    -0.8013714452
   12      H       3.2617708269     1.0799111209    -1.3377320813
 ----------------------------------------------------------------

   13    -517.2138936655      4.79e-07  Convergence criterion met
 Total energy in the final basis set =     -517.2138936655

                    Orbital Energies (a.u.)
 --------------------------------------------------------------

 Alpha MOs
 -- Occupied --
-88.836 -10.278 -10.231 -10.221  -7.895  -5.858  -5.858  -5.849
 -0.830  -0.715  -0.648  -0.624  -0.514  -0.475  -0.440  -0.415
 -0.397  -0.378  -0.341  -0.211  -0.200

 Beta MOs
 -- Occupied --
-88.836 -10.278 -10.231 -10.221  -7.895  -5.858  -5.858  -5.849
 -0.830  -0.715  -0.648  -0.624  -0.514  -0.475  -0.440  -0.415
 -0.397  -0.378  -0.341  -0.211  -0.200

          Ground-State Mulliken Net Atomic Charges

     Atom                 Charge (a.u.)    Spin (a.u.)
  --------------------------------------------------------
      1 S                    -0.394584      -0.000000
      2 C                    -0.220074      -0.000000
      3 C                    -0.122229       0.000000
      4 C                    -0.330896       0.000000
      5 H                     0.154895       0.000000
      6 H                     0.146000       0.000000
      7 H                     0.170584      -0.000000
      8 H                     0.167148      -0.000000
      9 H                     0.127115       0.000000
     10 H                     0.135395       0.000000
     11 H                     0.125975       0.000000
     12 H                     0.040672       0.000000
  --------------------------------------------------------
  Sum of atomic charges =    -0.000000

                    Cartesian Multipole Moments
 -----------------------------------------------------------------
    Charge (ESU x 10^10)
                 0.0000
    Dipole Moment (Debye)
         X      -6.5361      Y      -1.4246      Z      -0.6717
       Tot       6.7232
    Quadrupole Moments (Debye-Ang)
        XX     -52.3286     XY      -2.5881     YY     -34.3566
        XZ      -2.0859     YZ      -1.5938     ZZ     -31.8709

 Final energy is   -517.213893665515
 **  OPTIMIZATION CONVERGED  **
 Total job time:  53.43s(wall), 621.38s(cpu)
        *  Thank you very much for using Q-Chem.  Have a nice day.  *
