 Q-Chem 5.1, Q-Chem, Inc., Pleasanton, CA (2018)
 Q-Chem 5.1.1 for Intel X86 EM64T Linux

User input:
--------------------------------------------------------------

$comment
potential surface scanner
$end

$rem
JOBTYPE  PES_SCAN
UNRESTRICTED TRUE
SYM_IGNORE  TRUE
GEOM_OPT_MAX_CYCLES 400
SCF_MAX_CYCLES 400
METHOD   B3LYP
BASIS   6-31G**
PDB_PRINT 2
SCF_CONVERGENCE 6
THRESH 14
SCF_PRINT 1
$end
$molecule
0 3
S 3.628906 0.780813 -0.099033
C -0.910002 0.291672 -0.003072
C -0.003172 -0.893104 -0.021478
C -2.409735 -0.078193 0.086554
H -0.659385 0.940077 0.846174
H -0.757497 0.892705 -0.910055
H 0.381375 -1.319162 0.899104
H 0.161481 -1.451724 -0.937600
H -2.620652 -0.644679 0.999177
H -3.033205 0.822998 0.093696
H -2.714131 -0.693982 -0.765946
H 3.648621 1.256381 -1.364518
$end
$scan
stre 1 3 3.900000 3.901000 0.100000
$end
--------------------------------------------------------------

   10    -517.2239260005      5.11e-07  Convergence criterion met
 Total energy in the final basis set =     -517.2239260005
   10    -517.2236491789      5.30e-07  Convergence criterion met
 Total energy in the final basis set =     -517.2236491789
   10    -517.2237517824      5.25e-07  Convergence criterion met
 Total energy in the final basis set =     -517.2237517824
   10    -517.2237846911      5.24e-07  Convergence criterion met
 Total energy in the final basis set =     -517.2237846911
   10    -517.2237858184      5.24e-07  Convergence criterion met
 Total energy in the final basis set =     -517.2237858184
   10    -517.2237908505      5.26e-07  Convergence criterion met
 Total energy in the final basis set =     -517.2237908505
   10    -517.2237926961      5.27e-07  Convergence criterion met
 Total energy in the final basis set =     -517.2237926961
   10    -517.2237984461      5.28e-07  Convergence criterion met
   10    -517.2277974912      5.38e-07  Convergence criterion met
 Total energy in the final basis set =     -517.2277974912
   10    -517.2277862163      5.37e-07  Convergence criterion met
 Total energy in the final basis set =     -517.2277862163
   10    -517.2278237895      5.37e-07  Convergence criterion met
 Total energy in the final basis set =     -517.2278237895
   10    -517.2278258826      5.38e-07  Convergence criterion met
 Total energy in the final basis set =     -517.2278258826
   10    -517.2278280418      5.38e-07  Convergence criterion met
 Total energy in the final basis set =     -517.2278280418
   10    -517.2278297289      5.39e-07  Convergence criterion met
 Total energy in the final basis set =     -517.2278297289

             Standard Nuclear Orientation (Angstroms)
    I     Atom           X                Y                Z
 ----------------------------------------------------------------
    1      S       3.6327965220     1.0601039845    -0.3914281469
    2      C      -0.8173549229     0.3882182097    -0.0407791680
    3      C       0.1643860718    -0.7172955493    -0.2458049447
    4      C      -2.2737433370    -0.1179420037     0.1001385930
    5      H      -0.5589150241     0.9554263932     0.8628953088
    6      H      -0.7709663038     1.0938168595    -0.8795860530
    7      H       0.4817294193    -1.3295427774     0.5939098082
    8      H       0.3488481470    -1.1156547146    -1.2395821627
    9      H      -2.3722500704    -0.8004370833     0.9504546651
   10      H      -2.9609168592     0.7206357759     0.2560703418
   11      H      -2.5915563142    -0.6541462786    -0.7993599883
   12      H       2.4305466716     0.4206191840    -0.3439252534
 ----------------------------------------------------------------

   10    -517.2278305298      5.39e-07  Convergence criterion met
 Total energy in the final basis set =     -517.2278305298

                    Orbital Energies (a.u.)
 --------------------------------------------------------------

 Alpha MOs
 -- Occupied --
-88.900 -10.202 -10.195 -10.185  -7.961  -5.932  -5.922  -5.913
 -0.790  -0.727  -0.683  -0.590  -0.472  -0.436  -0.404  -0.402
 -0.386  -0.358  -0.341  -0.311  -0.264  -0.215

 Beta MOs
 -- Occupied --
-88.894 -10.196 -10.189 -10.183  -7.955  -5.919  -5.914  -5.910
 -0.779  -0.686  -0.664  -0.577  -0.467  -0.430  -0.397  -0.388
 -0.375  -0.353  -0.339  -0.249

          Ground-State Mulliken Net Atomic Charges

     Atom                 Charge (a.u.)    Spin (a.u.)
  --------------------------------------------------------
      1 S                    -0.091995       1.053259
      2 C                    -0.191916      -0.069568
      3 C                    -0.233782       1.035599
      4 C                    -0.310300       0.051186
      5 H                     0.110051       0.014827
      6 H                     0.108530       0.009562
      7 H                     0.111796      -0.043688
      8 H                     0.112774      -0.043733
      9 H                     0.108375      -0.000972
     10 H                     0.107137       0.013518
     11 H                     0.108869      -0.000575
     12 H                     0.060463      -0.019415
  --------------------------------------------------------
  Sum of atomic charges =    -0.000000

                    Cartesian Multipole Moments
 -----------------------------------------------------------------
    Charge (ESU x 10^10)
                 0.0000
    Dipole Moment (Debye)
         X      -1.8559      Y      -0.6659      Z       0.1049
       Tot       1.9745
    Quadrupole Moments (Debye-Ang)
        XX     -42.1677     XY      -2.2498     YY     -36.4362
        XZ       0.9691     YZ      -0.1434     ZZ     -32.8120

 Final energy is   -517.227830529762
 **  OPTIMIZATION CONVERGED  **
 Total job time:  191.41s(wall), 2224.78s(cpu)
        *  Thank you very much for using Q-Chem.  Have a nice day.  *
