 Q-Chem 5.1, Q-Chem, Inc., Pleasanton, CA (2018)
 Q-Chem 5.1.1 for Intel X86 EM64T Linux

User input:
--------------------------------------------------------------

$comment
potential surface scanner
$end

$rem
JOBTYPE  PES_SCAN
UNRESTRICTED TRUE
SYM_IGNORE  TRUE
GEOM_OPT_MAX_CYCLES 400
SCF_MAX_CYCLES 400
METHOD   B3LYP
BASIS   6-31G**
PDB_PRINT 2
SCF_CONVERGENCE 6
THRESH 14
SCF_PRINT 1
$end
$molecule
0 3
S 2.994539 -1.121117 -0.793224
C -0.842374 0.671990 0.153457
C 0.547932 0.091193 -0.173209
C -1.973217 -0.340179 -0.039237
H -0.843146 1.037881 1.187875
H -1.019673 1.549256 -0.481805
H 0.755876 -0.765335 0.479444
H 0.569045 -0.254723 -1.212663
H -1.845569 -1.209195 0.616406
H -2.948874 0.103820 0.184411
H -2.003433 -0.708129 -1.071135
H 1.321500 0.848336 -0.027314
$end
$scan
stre 1 3 2.700000 2.701000 0.100000
$end
--------------------------------------------------------------

   10    -517.2539250664      5.07e-07  Convergence criterion met
 Total energy in the final basis set =     -517.2539250664
   10    -517.2505823173      4.53e-07  Convergence criterion met
 Total energy in the final basis set =     -517.2505823173
   10    -517.2506934848      4.69e-07  Convergence criterion met
 Total energy in the final basis set =     -517.2506934848
   10    -517.2507817781      4.68e-07  Convergence criterion met
 Total energy in the final basis set =     -517.2507817781
   10    -517.2508071652      4.59e-07  Convergence criterion met
 Total energy in the final basis set =     -517.2508071652

             Standard Nuclear Orientation (Angstroms)
    I     Atom           X                Y                Z
 ----------------------------------------------------------------
    1      S       2.9148100778    -1.0885846576    -0.7755109970
    2      C      -0.8338470048     0.6686622638     0.1518107330
    3      C       0.5587424069     0.0857377064    -0.1755832715
    4      C      -1.9653780146    -0.3422695806    -0.0409248075
    5      H      -0.8327875009     1.0345627198     1.1861546587
    6      H      -1.0087758284     1.5459603512    -0.4839782596
    7      H       0.7587018835    -0.7695340716     0.4806203685
    8      H       0.5703312526    -0.2596728258    -1.2150391740
    9      H      -1.8385626592    -1.2117499846     0.6142301928
   10      H      -2.9403467558     0.1028801498     0.1834456395
   11      H      -1.9966868428    -0.7095528574    -1.0730177498
   12      H       1.3264049858     0.8473587866    -0.0292013330
 ----------------------------------------------------------------

   10    -517.2508117892      4.54e-07  Convergence criterion met
 Total energy in the final basis set =     -517.2508117892

                    Orbital Energies (a.u.)
 --------------------------------------------------------------

 Alpha MOs
 -- Occupied --
-88.911 -10.190 -10.185 -10.177  -7.971  -5.941  -5.940  -5.922
 -0.787  -0.716  -0.681  -0.591  -0.464  -0.444  -0.410  -0.392
 -0.354  -0.347  -0.338  -0.311  -0.286  -0.267

 Beta MOs
 -- Occupied --
-88.901 -10.189 -10.184 -10.177  -7.961  -5.920  -5.920  -5.915
 -0.784  -0.691  -0.620  -0.583  -0.462  -0.442  -0.405  -0.389
 -0.346  -0.341  -0.335  -0.240

          Ground-State Mulliken Net Atomic Charges

     Atom                 Charge (a.u.)    Spin (a.u.)
  --------------------------------------------------------
      1 S                    -0.052871       1.923978
      2 C                    -0.186274       0.038952
      3 C                    -0.356977       0.030741
      4 C                    -0.311506      -0.000824
      5 H                     0.101954       0.001294
      6 H                     0.101941       0.001590
      7 H                     0.125195       0.001023
      8 H                     0.127349       0.001052
      9 H                     0.105114       0.000352
     10 H                     0.104393       0.001407
     11 H                     0.105118       0.000362
     12 H                     0.136566       0.000073
  --------------------------------------------------------
  Sum of atomic charges =    -0.000000

                    Cartesian Multipole Moments
 -----------------------------------------------------------------
    Charge (ESU x 10^10)
                -0.0000
    Dipole Moment (Debye)
         X      -0.9749      Y       0.4893      Z       0.2472
       Tot       1.1184
    Quadrupole Moments (Debye-Ang)
        XX     -37.3129     XY       0.2631     YY     -35.7314
        XZ       0.5538     YZ      -1.1269     ZZ     -33.5322

 Final energy is   -517.250811789216
 **  OPTIMIZATION CONVERGED  **
 Total job time:  19.89s(wall), 225.57s(cpu)
        *  Thank you very much for using Q-Chem.  Have a nice day.  *
