 Q-Chem 5.1, Q-Chem, Inc., Pleasanton, CA (2018)
 Q-Chem 5.1.1 for Intel X86 EM64T Linux

User input:
--------------------------------------------------------------

$comment
potential surface scanner
$end

$rem
JOBTYPE  PES_SCAN
UNRESTRICTED TRUE
SYM_IGNORE  TRUE
GEOM_OPT_MAX_CYCLES 400
SCF_MAX_CYCLES 400
METHOD   B3LYP
BASIS   6-31G**
PDB_PRINT 2
SCF_CONVERGENCE 6
THRESH 14
SCF_PRINT 1
$end
$molecule
0 1
S 3.613158 0.689045 -0.098907
C -0.887038 0.353360 0.003698
C 0.012319 -0.806205 -0.008459
C -2.376841 -0.122387 0.072213
H -0.687080 0.986308 0.873917
H -0.758549 0.953100 -0.902794
H 0.327118 -1.282931 0.913932
H 0.268774 -1.312659 -0.933307
H -2.564402 -0.705411 0.977311
H -3.024793 0.758995 0.085546
H -2.637543 -0.732446 -0.796212
H 3.427478 1.125034 -1.363933
$end
$scan
stre 1 3 4.000000 4.001000 0.100000
$end
--------------------------------------------------------------

   13    -517.2069567840      2.66e-07  Convergence criterion met
 Total energy in the final basis set =     -517.2069567840
   14    -517.2037562443      2.97e-07  Convergence criterion met
 Total energy in the final basis set =     -517.2037562443
   14    -517.2037972861      8.05e-07  Convergence criterion met
 Total energy in the final basis set =     -517.2037972861
   15    -517.2038786252      5.73e-07  Convergence criterion met
 Total energy in the final basis set =     -517.2038786252
   15    -517.2038852048      5.42e-07  Convergence criterion met
 Total energy in the final basis set =     -517.2038852048
   15    -517.2039001393      4.94e-07  Convergence criterion met
 Total energy in the final basis set =     -517.2039001393
   15    -517.2039041225      4.89e-07  Convergence criterion met
 Total energy in the final basis set =     -517.2039041225
   13    -517.2039084074      9.88e-07  Convergence criterion met
   13    -517.2039115465      8.59e-07  Convergence criterion met
 Total energy in the final basis set =     -517.2039115465
   13    -517.2039146318      7.30e-07  Convergence criterion met
 Total energy in the final basis set =     -517.2039146318
   13    -517.2039170606      6.08e-07  Convergence criterion met
 Total energy in the final basis set =     -517.2039170606
   13    -517.2039197235      4.46e-07  Convergence criterion met
 Total energy in the final basis set =     -517.2039197235
   13    -517.2039226615      2.94e-07  Convergence criterion met
 Total energy in the final basis set =     -517.2039226615
   13    -517.2039249255      2.53e-07  Convergence criterion met
 Total energy in the final basis set =     -517.2039249255

             Standard Nuclear Orientation (Angstroms)
    I     Atom           X                Y                Z
 ----------------------------------------------------------------
    1      S       3.6888059611     0.7134012335    -0.1089288863
    2      C      -0.9015660476     0.3453507638     0.0045376830
    3      C      -0.0057643410    -0.8162445703    -0.0072781084
    4      C      -2.3939780154    -0.1234459190     0.0759805543
    5      H      -0.6986882658     0.9791718943     0.8736414078
    6      H      -0.7730659624     0.9432316281    -0.9033400718
    7      H       0.3141008786    -1.2893858599     0.9152665860
    8      H       0.2518766171    -1.3220934383    -0.9321683746
    9      H      -2.5826695419    -0.7040223507     0.9823402041
   10      H      -3.0374239910     0.7612341111     0.0885797801
   11      H      -2.6582369606    -0.7337456564    -0.7911198475
   12      H       3.5092106689     1.1503511639    -1.3745059267
 ----------------------------------------------------------------

   13    -517.2039257824      2.50e-07  Convergence criterion met
 Total energy in the final basis set =     -517.2039257824

                    Orbital Energies (a.u.)
 --------------------------------------------------------------

 Alpha MOs
 -- Occupied --
-88.833 -10.278 -10.234 -10.223  -7.892  -5.856  -5.855  -5.847
 -0.832  -0.718  -0.646  -0.626  -0.517  -0.478  -0.442  -0.417
 -0.399  -0.380  -0.339  -0.206  -0.198

 Beta MOs
 -- Occupied --
-88.833 -10.278 -10.234 -10.223  -7.892  -5.856  -5.855  -5.847
 -0.832  -0.718  -0.646  -0.626  -0.517  -0.478  -0.442  -0.417
 -0.399  -0.380  -0.339  -0.206  -0.198

          Ground-State Mulliken Net Atomic Charges

     Atom                 Charge (a.u.)    Spin (a.u.)
  --------------------------------------------------------
      1 S                    -0.392408       0.000000
      2 C                    -0.221876       0.000000
      3 C                    -0.127882      -0.000000
      4 C                    -0.328767      -0.000000
      5 H                     0.154182      -0.000000
      6 H                     0.147381      -0.000000
      7 H                     0.170499       0.000000
      8 H                     0.167245       0.000000
      9 H                     0.128147      -0.000000
     10 H                     0.135895      -0.000000
     11 H                     0.127145      -0.000000
     12 H                     0.040439      -0.000000
  --------------------------------------------------------
  Sum of atomic charges =    -0.000000

                    Cartesian Multipole Moments
 -----------------------------------------------------------------
    Charge (ESU x 10^10)
                -0.0000
    Dipole Moment (Debye)
         X      -7.0313      Y      -1.5552      Z      -0.6120
       Tot       7.2272
    Quadrupole Moments (Debye-Ang)
        XX     -54.9760     XY      -3.2047     YY     -34.5108
        XZ      -2.0559     YZ      -1.6120     ZZ     -31.8009

 Final energy is   -517.203925782440
 **  OPTIMIZATION CONVERGED  **
 Total job time:  52.84s(wall), 616.60s(cpu)
        *  Thank you very much for using Q-Chem.  Have a nice day.  *
