 Q-Chem 5.1, Q-Chem, Inc., Pleasanton, CA (2018)
 Q-Chem 5.1.1 for Intel X86 EM64T Linux

User input:
--------------------------------------------------------------

$comment
potential surface scanner
$end

$rem
JOBTYPE  PES_SCAN
UNRESTRICTED TRUE
SYM_IGNORE  TRUE
GEOM_OPT_MAX_CYCLES 400
SCF_MAX_CYCLES 400
METHOD   B3LYP
BASIS   6-31G**
PDB_PRINT 2
SCF_CONVERGENCE 6
THRESH 14
SCF_PRINT 1
$end
$molecule
0 1
S 2.471742 0.262092 -0.002592
C -0.666902 0.475772 -0.009004
C 0.352339 -0.631188 -0.016160
C -2.095794 -0.102668 0.016820
H -0.507731 1.117067 0.862968
H -0.542873 1.104804 -0.896810
H 0.417315 -1.224244 0.893609
H 0.399106 -1.243520 -0.913776
H -2.262428 -0.713788 0.909957
H -2.833480 0.705817 0.021450
H -2.290386 -0.729103 -0.860036
H 2.271693 0.882758 -1.183424
$end
$scan
stre 1 3 2.400000 2.401000 0.100000
$end
--------------------------------------------------------------

    9    -517.3092765014      4.07e-07  Convergence criterion met
 Total energy in the final basis set =     -517.3092765014
    9    -517.2998154306      4.49e-07  Convergence criterion met
 Total energy in the final basis set =     -517.2998154306
    9    -517.2996869958      4.60e-07  Convergence criterion met
 Total energy in the final basis set =     -517.2996869958
    9    -517.2997731086      4.85e-07  Convergence criterion met
 Total energy in the final basis set =     -517.2997731086
    9    -517.2997745422      4.85e-07  Convergence criterion met
 Total energy in the final basis set =     -517.2997745422

             Standard Nuclear Orientation (Angstroms)
    I     Atom           X                Y                Z
 ----------------------------------------------------------------
    1      S       2.5354526213     0.2910992621    -0.0075935730
    2      C      -0.6769033566     0.4674627060    -0.0081260802
    3      C       0.3265796059    -0.6474280419    -0.0143792286
    4      C      -2.1117309569    -0.1020848258     0.0188416501
    5      H      -0.5140968327     1.1071219129     0.8640491944
    6      H      -0.5497866364     1.0936035417    -0.8970442653
    7      H       0.4191617581    -1.2299566749     0.8986755479
    8      H       0.4010622043    -1.2494151712    -0.9161551930
    9      H      -2.2825775548    -0.7111645163     0.9123490076
   10      H      -2.8412596796     0.7137248613     0.0237663158
   11      H      -2.3116724838    -0.7264080609    -0.8580987675
   12      H       2.3183723113     0.8972440069    -1.1932826083
 ----------------------------------------------------------------

    9    -517.2997748331      4.84e-07  Convergence criterion met
 Total energy in the final basis set =     -517.2997748331

                    Orbital Energies (a.u.)
 --------------------------------------------------------------

 Alpha MOs
 -- Occupied --
-88.862 -10.250 -10.206 -10.196  -7.921  -5.886  -5.884  -5.876
 -0.805  -0.704  -0.667  -0.602  -0.486  -0.445  -0.414  -0.401
 -0.371  -0.365  -0.353  -0.275  -0.226

 Beta MOs
 -- Occupied --
-88.862 -10.250 -10.206 -10.196  -7.921  -5.886  -5.884  -5.876
 -0.805  -0.704  -0.667  -0.602  -0.486  -0.445  -0.414  -0.401
 -0.371  -0.365  -0.353  -0.275  -0.226

          Ground-State Mulliken Net Atomic Charges

     Atom                 Charge (a.u.)    Spin (a.u.)
  --------------------------------------------------------
      1 S                    -0.235911       0.000000
      2 C                    -0.176121      -0.000000
      3 C                    -0.213716      -0.000000
      4 C                    -0.328516      -0.000000
      5 H                     0.133454      -0.000000
      6 H                     0.117058       0.000000
      7 H                     0.151670      -0.000000
      8 H                     0.151894      -0.000000
      9 H                     0.114192       0.000000
     10 H                     0.119879       0.000000
     11 H                     0.112239       0.000000
     12 H                     0.053879       0.000000
  --------------------------------------------------------
  Sum of atomic charges =    -0.000000

                    Cartesian Multipole Moments
 -----------------------------------------------------------------
    Charge (ESU x 10^10)
                -0.0000
    Dipole Moment (Debye)
         X      -3.1642      Y      -0.4231      Z      -0.7236
       Tot       3.2734
    Quadrupole Moments (Debye-Ang)
        XX     -41.8209     XY       0.1106     YY     -33.9524
        XZ      -1.6604     YZ      -1.7008     ZZ     -32.5995

 Final energy is   -517.299774833138
 **  OPTIMIZATION CONVERGED  **
 Total job time:  18.06s(wall), 201.15s(cpu)
        *  Thank you very much for using Q-Chem.  Have a nice day.  *
