 Q-Chem 5.1, Q-Chem, Inc., Pleasanton, CA (2018)
 Q-Chem 5.1.1 for Intel X86 EM64T Linux

User input:
--------------------------------------------------------------

$comment
potential surface scanner
$end

$rem
JOBTYPE  PES_SCAN
UNRESTRICTED TRUE
SYM_IGNORE  TRUE
GEOM_OPT_MAX_CYCLES 400
SCF_MAX_CYCLES 400
METHOD   B3LYP
BASIS   6-31G**
PDB_PRINT 2
SCF_CONVERGENCE 6
THRESH 14
SCF_PRINT 1
$end
$molecule
0 3
S 3.092831 0.935749 -0.355249
C -0.705642 0.447452 -0.037927
C 0.306935 -0.634966 -0.247360
C -2.142884 -0.109857 0.081236
H -0.468021 1.011372 0.872188
H -0.668762 1.161216 -0.869630
H 0.571561 -1.276095 0.591976
H 0.384485 -1.102390 -1.227545
H -2.229162 -0.802371 0.924521
H -2.856888 0.705421 0.237881
H -2.435339 -0.647128 -0.826409
H 1.863493 0.215395 -0.320676
$end
$scan
stre 1 3 3.100000 3.101000 0.100000
$end
--------------------------------------------------------------

   10    -517.2282831757      6.86e-07  Convergence criterion met
 Total energy in the final basis set =     -517.2282831757
   10    -517.2271993883      7.12e-07  Convergence criterion met
 Total energy in the final basis set =     -517.2271993883
   10    -517.2277887445      7.16e-07  Convergence criterion met
 Total energy in the final basis set =     -517.2277887445
   10    -517.2286188060      7.15e-07  Convergence criterion met
 Total energy in the final basis set =     -517.2286188060
   10    -517.2291198786      7.26e-07  Convergence criterion met
 Total energy in the final basis set =     -517.2291198786
   10    -517.2310434991      7.96e-07  Convergence criterion met
 Total energy in the final basis set =     -517.2310434991
   10    -517.2363593277      8.99e-07  Convergence criterion met
 Total energy in the final basis set =     -517.2363593277
   10    -517.2447171922      8.22e-07  Convergence criterion met
 Total energy in the final basis set =     -517.2447171922
   10    -517.2524852524      5.90e-07  Convergence criterion met
 Total energy in the final basis set =     -517.2524852524
   10    -517.2546266213      3.94e-07  Convergence criterion met
 Total energy in the final basis set =     -517.2546266213
   10    -517.2551882647      4.47e-07  Convergence criterion met
 Total energy in the final basis set =     -517.2551882647
   10    -517.2552520593      4.19e-07  Convergence criterion met
 Total energy in the final basis set =     -517.2552520593
   10    -517.2552582685      4.09e-07  Convergence criterion met
 Total energy in the final basis set =     -517.2552582685

             Standard Nuclear Orientation (Angstroms)
    I     Atom           X                Y                Z
 ----------------------------------------------------------------
    1      S       3.1981942513     0.8971781021    -0.3849159869
    2      C      -0.6785977514     0.5161744150    -0.0280971368
    3      C       0.4367879705    -0.5043667638    -0.2424021079
    4      C      -2.0635829715    -0.1346394305     0.0672513158
    5      H      -0.4794870193     1.0894857088     0.8857406983
    6      H      -0.6720447146     1.2422626415    -0.8506105959
    7      H       0.5019999076    -1.2266918706     0.5792139499
    8      H       0.3151363273    -1.0605942675    -1.1786246521
    9      H      -2.1145172517    -0.8413020946     0.9031600585
   10      H      -2.8435322117     0.6184916445     0.2194546895
   11      H      -2.3067494100    -0.6862148835    -0.8477792112
   12      H       1.4189998734    -0.0059852016    -0.2993850214
 ----------------------------------------------------------------

   10    -517.2552588540      4.08e-07  Convergence criterion met
 Total energy in the final basis set =     -517.2552588540

                    Orbital Energies (a.u.)
 --------------------------------------------------------------

 Alpha MOs
 -- Occupied --
-88.915 -10.188 -10.187 -10.178  -7.975  -5.945  -5.944  -5.926
 -0.788  -0.717  -0.686  -0.591  -0.462  -0.453  -0.409  -0.388
 -0.361  -0.344  -0.334  -0.320  -0.284  -0.272

 Beta MOs
 -- Occupied --
-88.904 -10.188 -10.185 -10.178  -7.965  -5.924  -5.924  -5.920
 -0.785  -0.689  -0.625  -0.588  -0.461  -0.441  -0.404  -0.387
 -0.346  -0.343  -0.333  -0.246

          Ground-State Mulliken Net Atomic Charges

     Atom                 Charge (a.u.)    Spin (a.u.)
  --------------------------------------------------------
      1 S                    -0.036511       1.879303
      2 C                    -0.173064      -0.002099
      3 C                    -0.268475       0.140293
      4 C                    -0.312510       0.006702
      5 H                     0.103906       0.000862
      6 H                     0.103841       0.000790
      7 H                     0.114982      -0.000623
      8 H                     0.114986      -0.000489
      9 H                     0.104502      -0.000265
     10 H                     0.105238       0.003271
     11 H                     0.104442      -0.000263
     12 H                     0.038664      -0.027482
  --------------------------------------------------------
  Sum of atomic charges =    -0.000000

                    Cartesian Multipole Moments
 -----------------------------------------------------------------
    Charge (ESU x 10^10)
                -0.0000
    Dipole Moment (Debye)
         X      -1.0549      Y      -0.3389      Z       0.0732
       Tot       1.1104
    Quadrupole Moments (Debye-Ang)
        XX     -37.6998     XY      -0.1528     YY     -35.7867
        XZ       0.6072     YZ      -0.1760     ZZ     -33.0939

 Final energy is   -517.255258854010
 **  OPTIMIZATION CONVERGED  **
 Total job time:  47.89s(wall), 517.15s(cpu)
        *  Thank you very much for using Q-Chem.  Have a nice day.  *
