 Q-Chem 5.1, Q-Chem, Inc., Pleasanton, CA (2018)
 Q-Chem 5.1.1 for Intel X86 EM64T Linux

User input:
--------------------------------------------------------------
$comment
Length-scal DFT calculation for PE - thioketone
$end

$molecule
0  1
S -1.38098 -0.00022 -0.00097
C 0.25794 -0.00002 -0.00047
C 1.06915 1.26908 0.00015
C 1.06941 -1.26894 0.00017
H 1.72543 1.29489 0.88022
H 1.73192 1.29229 -0.87506
H 0.43429 2.15444 -0.00332
H 0.43469 -2.15442 -0.00192
H 1.72689 -1.29395 0.87935
H 1.73099 -1.29258 -0.87594
$end

$rem
JOBTYPE  PES_SCAN
UNRESTRICTED TRUE
SYM_IGNORE  TRUE
GEOM_OPT_MAX_CYCLES 400
SCF_MAX_CYCLES 400
METHOD   B3LYP
BASIS   6-31G**
PDB_PRINT 2
SCF_CONVERGENCE 6
THRESH 14
SCF_PRINT 1
$end

$scan
stre 1 2 1.25 2.5 0.05
$end
--------------------------------------------------------------

    8    -516.1187786328      7.35e-07  Convergence criterion met
 Total energy in the final basis set =     -516.1187786328
    8    -516.1010817517      6.17e-07  Convergence criterion met
 Total energy in the final basis set =     -516.1010817517
    8    -516.0167384816      8.30e-07  Convergence criterion met
 Total energy in the final basis set =     -516.0167384816
    9    -515.9196485213      2.85e-07  Convergence criterion met
 Total energy in the final basis set =     -515.9196485213
    9    -515.9008504227      2.96e-07  Convergence criterion met
 Total energy in the final basis set =     -515.9008504227
    9    -515.8995339930      3.03e-07  Convergence criterion met
 Total energy in the final basis set =     -515.8995339930
    9    -515.8997249707      3.08e-07  Convergence criterion met
 Total energy in the final basis set =     -515.8997249707
    9    -515.8997425322      3.09e-07  Convergence criterion met
 **  OPTIMIZATION CONVERGED  **
 **  OPTIMIZATION CONVERGED  **
 **  OPTIMIZATION CONVERGED  **
 Total energy in the final basis set =     -515.9817900706
   12    -515.9816343981      1.40e-07  Convergence criterion met
 Total energy in the final basis set =     -515.9816343981
   12    -515.9816348910      1.40e-07  Convergence criterion met
 Total energy in the final basis set =     -515.9816348910
 Final energy is   -515.981634891030
   12    -515.9816348884      1.40e-07  Convergence criterion met
 Total energy in the final basis set =     -515.9816348884
   12    -515.9734106155      4.37e-08  Convergence criterion met
 Total energy in the final basis set =     -515.9734106155
   12    -515.9732699982      4.37e-08  Convergence criterion met
 Total energy in the final basis set =     -515.9732699982

             Standard Nuclear Orientation (Angstroms)
    I     Atom           X                Y                Z
 ----------------------------------------------------------------
    1      S      -2.0274105318    -0.0002343836    -0.0055162477
    2      C       0.4725842894     0.0000123931    -0.0004743336
    3      C       1.1394692973     1.3017148973     0.0006945971
    4      C       1.1397445928    -1.3015492266     0.0008458610
    5      H       1.8001635651     1.3787067064     0.8808201830
    6      H       1.8034672591     1.3785819935    -0.8769545268
    7      H       0.4335202952     2.1309627863    -0.0007019206
    8      H       0.4339741480    -2.1309511222     0.0000768705
    9      H       1.8009819545    -1.3781161404     0.8805975079
   10      H       1.8032351305    -1.3785579037    -0.8771779909
 ----------------------------------------------------------------

   12    -515.9732702568      4.36e-08  Convergence criterion met
 Total energy in the final basis set =     -515.9732702568

                    Orbital Energies (a.u.)
 --------------------------------------------------------------

 Alpha MOs
 -- Occupied --
-88.854 -10.310 -10.230 -10.229  -7.908  -5.877  -5.868  -5.863
 -0.836  -0.746  -0.610  -0.568  -0.477  -0.473  -0.461  -0.433
 -0.413  -0.277  -0.210  -0.199

 Beta MOs
 -- Occupied --
-88.854 -10.310 -10.230 -10.229  -7.908  -5.877  -5.868  -5.863
 -0.836  -0.746  -0.610  -0.568  -0.477  -0.473  -0.461  -0.433
 -0.413  -0.277  -0.210  -0.199

          Ground-State Mulliken Net Atomic Charges

     Atom                 Charge (a.u.)    Spin (a.u.)
  --------------------------------------------------------
      1 S                    -0.336906      -0.000000
      2 C                     0.086233       0.000000
      3 C                    -0.369217      -0.000000
      4 C                    -0.369219       0.000000
      5 H                     0.153014       0.000000
      6 H                     0.153022      -0.000000
      7 H                     0.188518      -0.000000
      8 H                     0.188518      -0.000000
      9 H                     0.152988      -0.000000
     10 H                     0.153048      -0.000000
  --------------------------------------------------------
  Sum of atomic charges =    -0.000000

                    Cartesian Multipole Moments
 -----------------------------------------------------------------
    Charge (ESU x 10^10)
                -0.0000
    Dipole Moment (Debye)
         X       6.0008      Y       0.0006      Z       0.0115
       Tot       6.0008
    Quadrupole Moments (Debye-Ang)
        XX     -35.1117     XY      -0.0007     YY     -30.7741
        XZ      -0.0127     YZ       0.0002     ZZ     -33.4034

 Final energy is   -515.973270256771
 **  OPTIMIZATION CONVERGED  **
 Total job time:  241.46s(wall), 3722.81s(cpu)
        *  Thank you very much for using Q-Chem.  Have a nice day.  *
