 Q-Chem 5.1, Q-Chem, Inc., Pleasanton, CA (2018)
 Q-Chem 5.1.1 for Intel X86 EM64T Linux

User input:
--------------------------------------------------------------

$comment
potential surface scanner
$end

$rem
JOBTYPE  PES_SCAN
UNRESTRICTED TRUE
SYM_IGNORE  TRUE
GEOM_OPT_MAX_CYCLES 400
SCF_MAX_CYCLES 400
METHOD   B3LYP
BASIS   6-31G**
PDB_PRINT 2
SCF_CONVERGENCE 6
THRESH 14
SCF_PRINT 1
$end
$molecule
0 3
Cl 2.318905 -2.778189 -0.533248
C -0.992079 0.828045 -0.252510
C 0.244231 1.331746 0.412352
C -1.367270 -0.601822 0.160702
H -0.877226 0.883055 -1.344036
H -1.843165 1.497039 -0.024430
H 0.497135 1.012630 1.419316
H 0.815904 2.149837 -0.013429
H -1.533455 -0.663911 1.242071
H -2.282472 -0.935117 -0.338581
H -0.564909 -1.301713 -0.093504
$end
$scan
stre 1 3 4.600000 4.601000 0.100000
$end
--------------------------------------------------------------

   24    -578.6177443931      8.51e-07  Convergence criterion met
 Total energy in the final basis set =     -578.6177443931
   29    -578.6175851754      8.26e-07  Convergence criterion met
 Total energy in the final basis set =     -578.6175851754
   30    -578.6176127242      4.12e-07  Convergence criterion met
 Total energy in the final basis set =     -578.6176127242
   25    -578.6176583719      3.76e-07  Convergence criterion met
 Total energy in the final basis set =     -578.6176583719
   24    -578.6176613811      6.54e-07  Convergence criterion met
 Total energy in the final basis set =     -578.6176613811
   24    -578.6176660834      3.54e-07  Convergence criterion met
 Total energy in the final basis set =     -578.6176660834
   24    -578.6176671627      3.86e-07  Convergence criterion met
 Total energy in the final basis set =     -578.6176671627
   24    -578.6176695237      2.52e-07  Convergence criterion met
   29    -578.6176720421      1.19e-07  Convergence criterion met
 Total energy in the final basis set =     -578.6176720421
   31    -578.6176758609      5.97e-07  Convergence criterion met
 Total energy in the final basis set =     -578.6176758609
   28    -578.6176800592      1.19e-07  Convergence criterion met
 Total energy in the final basis set =     -578.6176800592
   28    -578.6176844200      3.09e-07  Convergence criterion met
 Total energy in the final basis set =     -578.6176844200
   29    -578.6176873474      9.19e-07  Convergence criterion met
 Total energy in the final basis set =     -578.6176873474
   34    -578.6176883962      2.35e-07  Convergence criterion met
 Total energy in the final basis set =     -578.6176883962

             Standard Nuclear Orientation (Angstroms)
    I     Atom           X                Y                Z
 ----------------------------------------------------------------
    1      Cl      2.3459491260    -2.6786004741    -0.5367187332
    2      C      -0.9850923853     0.8181712676    -0.2565713919
    3      C       0.2551128547     1.3075020426     0.4116435042
    4      C      -1.3882352811    -0.6008443382     0.1666880376
    5      H      -0.8625122668     0.8611995652    -1.3477902943
    6      H      -1.8263128443     1.5031960477    -0.0398439194
    7      H       0.4986382571     0.9910138701     1.4216954841
    8      H       0.8439642922     2.1106851285    -0.0189586541
    9      H      -1.5449920246    -0.6552809514     1.2498702317
   10      H      -2.3156914843    -0.9148928882    -0.3224047292
   11      H      -0.6052292438    -1.3205492697    -0.0929065356
 ----------------------------------------------------------------

   30    -578.6176889206      9.27e-07  Convergence criterion met
 Total energy in the final basis set =     -578.6176889206

                    Orbital Energies (a.u.)
 --------------------------------------------------------------

 Alpha MOs
 -- Occupied --
******* -10.185 -10.183 -10.173  -9.510  -7.285  -7.261  -7.261
 -0.844  -0.778  -0.670  -0.578  -0.450  -0.436  -0.406  -0.402
 -0.357  -0.351  -0.351  -0.346  -0.338  -0.195

 Beta MOs
 -- Occupied --
******* -10.186 -10.172 -10.169  -9.503  -7.263  -7.257  -7.257
 -0.790  -0.769  -0.653  -0.563  -0.444  -0.429  -0.396  -0.349
 -0.343  -0.336  -0.335  -0.332

          Ground-State Mulliken Net Atomic Charges

     Atom                 Charge (a.u.)    Spin (a.u.)
  --------------------------------------------------------
      1 Cl                    0.001082       0.999595
      2 C                    -0.182841      -0.075900
      3 C                    -0.218386       1.080257
      4 C                    -0.319689       0.012699
      5 H                     0.103139       0.017230
      6 H                     0.106326       0.060398
      7 H                     0.098287      -0.047796
      8 H                     0.096364      -0.048072
      9 H                     0.103034      -0.000832
     10 H                     0.099348       0.001411
     11 H                     0.113336       0.001010
  --------------------------------------------------------
  Sum of atomic charges =    -0.000000

                    Cartesian Multipole Moments
 -----------------------------------------------------------------
    Charge (ESU x 10^10)
                 0.0000
    Dipole Moment (Debye)
         X      -0.2067      Y       0.0340      Z      -0.0777
       Tot       0.2235
    Quadrupole Moments (Debye-Ang)
        XX     -32.8634     XY       0.5717     YY     -33.4835
        XZ      -0.6932     YZ      -1.0131     ZZ     -32.1820

 Final energy is   -578.617688920599
 **  OPTIMIZATION CONVERGED  **
 Total job time:  94.13s(wall), 1037.77s(cpu)
        *  Thank you very much for using Q-Chem.  Have a nice day.  *
