 Q-Chem 5.1, Q-Chem, Inc., Pleasanton, CA (2018)
 Q-Chem 5.1.1 for Intel X86 EM64T Linux

User input:
--------------------------------------------------------------

$comment
potential surface scanner
$end

$rem
JOBTYPE  PES_SCAN
UNRESTRICTED TRUE
SYM_IGNORE  TRUE
GEOM_OPT_MAX_CYCLES 400
SCF_MAX_CYCLES 400
METHOD   B3LYP
BASIS   6-31G**
PDB_PRINT 2
SCF_CONVERGENCE 6
THRESH 14
SCF_PRINT 1
$end
$molecule
0 3
Cl 2.479630 -1.157359 -0.448116
C -0.897831 0.664626 -0.298308
C 0.435078 0.895106 0.331112
C -1.620016 -0.582228 0.229197
H -0.787095 0.594981 -1.389941
H -1.549248 1.544253 -0.137689
H 0.621218 0.581736 1.354331
H 1.144689 1.588022 -0.109552
H -1.767513 -0.519358 1.313252
H -2.604405 -0.700456 -0.234873
H -1.038905 -1.487725 0.025278
$end
$scan
stre 1 3 2.900000 2.901000 0.100000
$end
--------------------------------------------------------------

   19    -578.6131233952      4.78e-07  Convergence criterion met
 Total energy in the final basis set =     -578.6131233952
   21    -578.6113610614      8.47e-07  Convergence criterion met
 Total energy in the final basis set =     -578.6113610614
   23    -578.6114264688      4.98e-07  Convergence criterion met
 Total energy in the final basis set =     -578.6114264688
   22    -578.6114437625      2.40e-07  Convergence criterion met
 Total energy in the final basis set =     -578.6114437625
   22    -578.6114491636      5.37e-07  Convergence criterion met
 Total energy in the final basis set =     -578.6114491636
   15    -578.6114609586      9.18e-07  Convergence criterion met
 Total energy in the final basis set =     -578.6114609586
   11    -578.6114660479      9.56e-07  Convergence criterion met
 Total energy in the final basis set =     -578.6114660479
   11    -578.6114721084      6.73e-07  Convergence criterion met
 Total energy in the final basis set =     -578.6114721084
   11    -578.6114784018      5.62e-07  Convergence criterion met
 Total energy in the final basis set =     -578.6114784018
   11    -578.6114802261      7.20e-07  Convergence criterion met
 Total energy in the final basis set =     -578.6114802261

             Standard Nuclear Orientation (Angstroms)
    I     Atom           X                Y                Z
 ----------------------------------------------------------------
    1      Cl      2.3889512494    -1.1509594941    -0.3650616261
    2      C      -0.8941626846     0.6657225290    -0.3004334014
    3      C       0.4471124172     0.8935254551     0.3126879362
    4      C      -1.6049992906    -0.5908115743     0.2198636161
    5      H      -0.7996495807     0.6121995238    -1.3944205879
    6      H      -1.5468129845     1.5402241178    -0.1173934510
    7      H       0.6376026703     0.5945072098     1.3394676244
    8      H       1.1456110924     1.5967123937    -0.1299476589
    9      H      -1.7183461949    -0.5526565372     1.3092228402
   10      H      -2.6041929300    -0.6931746613    -0.2154695380
   11      H      -1.0355117640    -1.4936909622    -0.0238247538
 ----------------------------------------------------------------

   11    -578.6114812199      7.87e-07  Convergence criterion met
 Total energy in the final basis set =     -578.6114812199

                    Orbital Energies (a.u.)
 --------------------------------------------------------------

 Alpha MOs
 -- Occupied --
******* -10.184 -10.179 -10.173  -9.504  -7.279  -7.256  -7.255
 -0.840  -0.776  -0.670  -0.577  -0.448  -0.436  -0.405  -0.398
 -0.359  -0.349  -0.348  -0.342  -0.337  -0.184

 Beta MOs
 -- Occupied --
******* -10.184 -10.172 -10.164  -9.497  -7.257  -7.251  -7.251
 -0.786  -0.767  -0.652  -0.562  -0.442  -0.429  -0.396  -0.348
 -0.342  -0.335  -0.330  -0.325

          Ground-State Mulliken Net Atomic Charges

     Atom                 Charge (a.u.)    Spin (a.u.)
  --------------------------------------------------------
      1 Cl                    0.007169       1.015867
      2 C                    -0.179024      -0.073455
      3 C                    -0.215060       1.056153
      4 C                    -0.317714       0.010100
      5 H                     0.100941       0.019556
      6 H                     0.103293       0.059729
      7 H                     0.095182      -0.044107
      8 H                     0.093279      -0.044468
      9 H                     0.102743      -0.000668
     10 H                     0.099490       0.000182
     11 H                     0.109700       0.001112
  --------------------------------------------------------
  Sum of atomic charges =     0.000000

                    Cartesian Multipole Moments
 -----------------------------------------------------------------
    Charge (ESU x 10^10)
                 0.0000
    Dipole Moment (Debye)
         X      -0.2019      Y       0.1156      Z      -0.0425
       Tot       0.2365
    Quadrupole Moments (Debye-Ang)
        XX     -33.6331     XY       0.5659     YY     -33.4992
        XZ      -0.2541     YZ      -1.2609     ZZ     -31.9040

 Final energy is   -578.611481219876
 **  OPTIMIZATION CONVERGED  **
 Total job time:  48.16s(wall), 529.28s(cpu)
        *  Thank you very much for using Q-Chem.  Have a nice day.  *
