 Q-Chem 5.1, Q-Chem, Inc., Pleasanton, CA (2018)
 Q-Chem 5.1.1 for Intel X86 EM64T Linux

User input:
--------------------------------------------------------------

$comment
potential surface scanner
$end

$rem
JOBTYPE  PES_SCAN
UNRESTRICTED TRUE
SYM_IGNORE  TRUE
GEOM_OPT_MAX_CYCLES 400
SCF_MAX_CYCLES 400
METHOD   B3LYP
BASIS   6-31G**
PDB_PRINT 2
SCF_CONVERGENCE 6
THRESH 14
SCF_PRINT 1
$end
$molecule
0 3
Cl 2.468263 -3.104028 -0.778053
C -0.987527 0.835720 -0.262702
C 0.189313 1.404240 0.455605
C -1.366369 -0.576639 0.202991
H -0.796292 0.833210 -1.345040
H -1.865283 1.495796 -0.132332
H 0.389799 1.134209 1.488357
H 0.770154 2.213806 0.026096
H -1.594047 -0.585885 1.274947
H -2.247440 -0.948656 -0.329355
H -0.544974 -1.280173 0.034188
$end
$scan
stre 1 3 5.100000 5.101000 0.100000
$end
--------------------------------------------------------------

   11    -578.6179119730      6.76e-07  Convergence criterion met
 Total energy in the final basis set =     -578.6179119730
   11    -578.6177733035      5.58e-07  Convergence criterion met
 Total energy in the final basis set =     -578.6177733035
   11    -578.6178020480      5.35e-07  Convergence criterion met
 Total energy in the final basis set =     -578.6178020480
   11    -578.6178589262      4.60e-07  Convergence criterion met
 Total energy in the final basis set =     -578.6178589262
   11    -578.6178631466      4.52e-07  Convergence criterion met
 Total energy in the final basis set =     -578.6178631466
   11    -578.6178704814      4.38e-07  Convergence criterion met
 Total energy in the final basis set =     -578.6178704814
   11    -578.6178717152      4.39e-07  Convergence criterion met
 Total energy in the final basis set =     -578.6178717152
   11    -578.6178730197      4.42e-07  Convergence criterion met
   11    -578.6178929911      4.13e-07  Convergence criterion met
 Total energy in the final basis set =     -578.6178929911
   11    -578.6179058748      4.28e-07  Convergence criterion met
 Total energy in the final basis set =     -578.6179058748
   11    -578.6179200004      4.81e-07  Convergence criterion met
 Total energy in the final basis set =     -578.6179200004
   11    -578.6179286617      5.37e-07  Convergence criterion met
 Total energy in the final basis set =     -578.6179286617
   11    -578.6179312504      5.61e-07  Convergence criterion met
 Total energy in the final basis set =     -578.6179312504
   11    -578.6179322683      5.71e-07  Convergence criterion met
 Total energy in the final basis set =     -578.6179322683

             Standard Nuclear Orientation (Angstroms)
    I     Atom           X                Y                Z
 ----------------------------------------------------------------
    1      Cl      2.3273881368    -3.1009664930    -0.6130837289
    2      C      -1.0002232091     0.8483392592    -0.2517257717
    3      C       0.1959629348     1.4114428196     0.4381961195
    4      C      -1.3238088526    -0.5940368590     0.1616879898
    5      H      -0.8614838047     0.9028096164    -1.3405456539
    6      H      -1.8855654503     1.4795702604    -0.0480803210
    7      H       0.4397109028     1.1104666046     1.4529709297
    8      H       0.7389722421     2.2530662848     0.0205922610
    9      H      -1.4925984604    -0.6615352037     1.2424030438
   10      H      -2.2250947633    -0.9604071338    -0.3401917348
   11      H      -0.4976626762    -1.2671491555    -0.0875211334
 ----------------------------------------------------------------

   11    -578.6179330820      5.76e-07  Convergence criterion met
 Total energy in the final basis set =     -578.6179330820

                    Orbital Energies (a.u.)
 --------------------------------------------------------------

 Alpha MOs
 -- Occupied --
******* -10.184 -10.183 -10.172  -9.511  -7.286  -7.262  -7.262
 -0.845  -0.778  -0.670  -0.578  -0.450  -0.435  -0.407  -0.402
 -0.357  -0.352  -0.351  -0.346  -0.338  -0.195

 Beta MOs
 -- Occupied --
******* -10.185 -10.172 -10.169  -9.504  -7.263  -7.259  -7.258
 -0.791  -0.768  -0.652  -0.563  -0.444  -0.428  -0.396  -0.349
 -0.342  -0.336  -0.336  -0.333

          Ground-State Mulliken Net Atomic Charges

     Atom                 Charge (a.u.)    Spin (a.u.)
  --------------------------------------------------------
      1 Cl                    0.002378       1.000522
      2 C                    -0.183020      -0.075917
      3 C                    -0.218794       1.080269
      4 C                    -0.320885       0.011102
      5 H                     0.102429       0.017184
      6 H                     0.106201       0.060405
      7 H                     0.097619      -0.047719
      8 H                     0.096531      -0.047988
      9 H                     0.102756      -0.000822
     10 H                     0.098834       0.001326
     11 H                     0.115949       0.001639
  --------------------------------------------------------
  Sum of atomic charges =    -0.000000

                    Cartesian Multipole Moments
 -----------------------------------------------------------------
    Charge (ESU x 10^10)
                 0.0000
    Dipole Moment (Debye)
         X      -0.1903      Y      -0.0181      Z      -0.0818
       Tot       0.2079
    Quadrupole Moments (Debye-Ang)
        XX     -33.5920     XY      -0.0330     YY     -33.7273
        XZ       0.2429     YZ      -0.5378     ZZ     -31.0936

 Final energy is   -578.617933081965
 **  OPTIMIZATION CONVERGED  **
 Total job time:  59.75s(wall), 657.66s(cpu)
        *  Thank you very much for using Q-Chem.  Have a nice day.  *
