 Q-Chem 5.1, Q-Chem, Inc., Pleasanton, CA (2018)
 Q-Chem 5.1.1 for Intel X86 EM64T Linux

User input:
--------------------------------------------------------------

$comment
potential surface scanner
$end

$rem
JOBTYPE  PES_SCAN
UNRESTRICTED TRUE
SYM_IGNORE  TRUE
GEOM_OPT_MAX_CYCLES 400
SCF_MAX_CYCLES 400
METHOD   B3LYP
BASIS   6-31G**
PDB_PRINT 2
SCF_CONVERGENCE 6
THRESH 14
SCF_PRINT 1
$end
$molecule
0 1
Cl 1.759445 -0.576646 -0.207865
C -0.787170 0.556755 -0.324447
C 0.595837 0.741625 0.285548
C -1.534253 -0.685854 0.163299
H -0.697481 0.544007 -1.416574
H -1.360732 1.459349 -0.069835
H 0.565226 0.717231 1.377000
H 1.057152 1.675548 -0.038205
H -1.660479 -0.669448 1.251751
H -2.529632 -0.742170 -0.287655
H -0.992314 -1.598796 -0.098317
$end
$scan
stre 1 3 1.400000 1.401000 0.100000
$end
--------------------------------------------------------------

    9    -578.7495578000      3.58e-07  Convergence criterion met
 Total energy in the final basis set =     -578.7495578000
    9    -578.7399653932      3.39e-07  Convergence criterion met
 Total energy in the final basis set =     -578.7399653932
    9    -578.7011100352      3.56e-07  Convergence criterion met
 Total energy in the final basis set =     -578.7011100352
    8    -578.6341459059      9.10e-07  Convergence criterion met
 Total energy in the final basis set =     -578.6341459059
    8    -578.6295476470      8.95e-07  Convergence criterion met
 Total energy in the final basis set =     -578.6295476470
    8    -578.6300913337      9.17e-07  Convergence criterion met
 Total energy in the final basis set =     -578.6300913337
    8    -578.6301361275      9.22e-07  Convergence criterion met
 Total energy in the final basis set =     -578.6301361275
    8    -578.6301634142      9.31e-07  Convergence criterion met
    8    -578.6301654190      9.32e-07  Convergence criterion met
 Total energy in the final basis set =     -578.6301654190
    8    -578.6301695512      9.36e-07  Convergence criterion met
 Total energy in the final basis set =     -578.6301695512
    8    -578.6301709262      9.35e-07  Convergence criterion met
 Total energy in the final basis set =     -578.6301709262
    8    -578.6301740866      9.33e-07  Convergence criterion met
 Total energy in the final basis set =     -578.6301740866
    8    -578.6301763997      9.29e-07  Convergence criterion met
 Total energy in the final basis set =     -578.6301763997
    8    -578.6301783759      9.26e-07  Convergence criterion met
 Total energy in the final basis set =     -578.6301783759

             Standard Nuclear Orientation (Angstroms)
    I     Atom           X                Y                Z
 ----------------------------------------------------------------
    1      Cl      1.5950241700    -0.3976252297    -0.1127795941
    2      C      -0.7580247916     0.5381352733    -0.3252855002
    3      C       0.7052722978     0.6238259539     0.2407442726
    4      C      -1.5282916533    -0.6926956673     0.1568178465
    5      H      -0.6985018314     0.5352093580    -1.4221113572
    6      H      -1.2855606449     1.4528443489    -0.0319246173
    7      H       0.5478147996     0.7495708066     1.3336318880
    8      H       1.0276703832     1.6451158825    -0.0500836868
    9      H      -1.6353474310    -0.6889336914     1.2479758053
   10      H      -2.5328376465    -0.7225245352    -0.2765673956
   11      H      -1.0216186519    -1.6213214996    -0.1257176611
 ----------------------------------------------------------------

    8    -578.6301792780      9.26e-07  Convergence criterion met
 Total energy in the final basis set =     -578.6301792780

                    Orbital Energies (a.u.)
 --------------------------------------------------------------

 Alpha MOs
 -- Occupied --
******* -10.218 -10.187 -10.175  -9.462  -7.225  -7.215  -7.215
 -0.975  -0.762  -0.658  -0.582  -0.492  -0.489  -0.450  -0.422
 -0.377  -0.359  -0.342  -0.267  -0.266

 Beta MOs
 -- Occupied --
******* -10.218 -10.187 -10.175  -9.462  -7.225  -7.215  -7.215
 -0.975  -0.762  -0.658  -0.582  -0.492  -0.489  -0.450  -0.422
 -0.377  -0.359  -0.342  -0.267  -0.266

          Ground-State Mulliken Net Atomic Charges

     Atom                 Charge (a.u.)    Spin (a.u.)
  --------------------------------------------------------
      1 Cl                    0.053793      -0.000000
      2 C                    -0.188976      -0.000000
      3 C                    -0.301176       0.000000
      4 C                    -0.320979      -0.000000
      5 H                     0.101837       0.000000
      6 H                     0.096798       0.000000
      7 H                     0.114203      -0.000000
      8 H                     0.116587       0.000000
      9 H                     0.102705       0.000000
     10 H                     0.107370       0.000000
     11 H                     0.117837       0.000000
  --------------------------------------------------------
  Sum of atomic charges =    -0.000000

                    Cartesian Multipole Moments
 -----------------------------------------------------------------
    Charge (ESU x 10^10)
                -0.0000
    Dipole Moment (Debye)
         X      -0.7357      Y       0.7119      Z       0.2266
       Tot       1.0485
    Quadrupole Moments (Debye-Ang)
        XX     -34.0790     XY       0.6499     YY     -32.4417
        XZ       0.2582     YZ       0.1777     ZZ     -32.6010

 Final energy is   -578.630179277982
 **  OPTIMIZATION CONVERGED  **
 Total job time:  53.61s(wall), 546.88s(cpu)
        *  Thank you very much for using Q-Chem.  Have a nice day.  *
