 Q-Chem 5.1, Q-Chem, Inc., Pleasanton, CA (2018)
 Q-Chem 5.1.1 for Intel X86 EM64T Linux

User input:
--------------------------------------------------------------

$comment
potential surface scanner
$end

$rem
JOBTYPE  PES_SCAN
UNRESTRICTED TRUE
SYM_IGNORE  TRUE
GEOM_OPT_MAX_CYCLES 400
SCF_MAX_CYCLES 400
METHOD   B3LYP
BASIS   6-31G**
PDB_PRINT 2
SCF_CONVERGENCE 6
THRESH 14
SCF_PRINT 1
$end
$molecule
0 1
Cl 1.759445 -0.576646 -0.207865
C -0.787170 0.556755 -0.324447
C 0.595837 0.741625 0.285548
C -1.534253 -0.685854 0.163299
H -0.697481 0.544007 -1.416574
H -1.360732 1.459349 -0.069835
H 0.565226 0.717231 1.377000
H 1.057152 1.675548 -0.038205
H -1.660479 -0.669448 1.251751
H -2.529632 -0.742170 -0.287655
H -0.992314 -1.598796 -0.098317
$end
$scan
stre 1 3 1.700000 1.701000 0.100000
$end
--------------------------------------------------------------

    9    -578.7495578000      3.58e-07  Convergence criterion met
 Total energy in the final basis set =     -578.7495578000
    9    -578.7433548540      3.40e-07  Convergence criterion met
 Total energy in the final basis set =     -578.7433548540
    9    -578.7437405320      3.52e-07  Convergence criterion met
 Total energy in the final basis set =     -578.7437405320
    9    -578.7438292343      3.58e-07  Convergence criterion met
 Total energy in the final basis set =     -578.7438292343
    9    -578.7438313589      3.57e-07  Convergence criterion met
 Total energy in the final basis set =     -578.7438313589

             Standard Nuclear Orientation (Angstroms)
    I     Atom           X                Y                Z
 ----------------------------------------------------------------
    1      Cl      1.7105771299    -0.5214820465    -0.1792532100
    2      C      -0.7770078132     0.5504377134    -0.3257960511
    3      C       0.6267707836     0.7080932728     0.2718664094
    4      C      -1.5323529284    -0.6877809408     0.1614620634
    5      H      -0.6969570672     0.5379249778    -1.4193208752
    6      H      -1.3387321975     1.4565452166    -0.0628398596
    7      H       0.5600153032     0.7248810301     1.3652292753
    8      H       1.0488835112     1.6687990659    -0.0379087134
    9      H      -1.6482878945    -0.6769306569     1.2512979692
   10      H      -2.5326421916    -0.7322779428    -0.2800768862
   11      H      -1.0046676356    -1.6066086895    -0.1099601217
 ----------------------------------------------------------------

    9    -578.7438318991      3.57e-07  Convergence criterion met
 Total energy in the final basis set =     -578.7438318991

                    Orbital Energies (a.u.)
 --------------------------------------------------------------

 Alpha MOs
 -- Occupied --
******* -10.237 -10.196 -10.179  -9.450  -7.213  -7.204  -7.204
 -0.878  -0.769  -0.673  -0.589  -0.474  -0.467  -0.427  -0.408
 -0.368  -0.358  -0.345  -0.290  -0.288

 Beta MOs
 -- Occupied --
******* -10.237 -10.196 -10.179  -9.450  -7.213  -7.204  -7.204
 -0.878  -0.769  -0.673  -0.589  -0.474  -0.467  -0.427  -0.408
 -0.368  -0.358  -0.345  -0.290  -0.288

          Ground-State Mulliken Net Atomic Charges

     Atom                 Charge (a.u.)    Spin (a.u.)
  --------------------------------------------------------
      1 Cl                   -0.054035       0.000000
      2 C                    -0.178132      -0.000000
      3 C                    -0.292992       0.000000
      4 C                    -0.317970      -0.000000
      5 H                     0.114666      -0.000000
      6 H                     0.103911       0.000000
      7 H                     0.142680      -0.000000
      8 H                     0.144201      -0.000000
      9 H                     0.103497       0.000000
     10 H                     0.107216       0.000000
     11 H                     0.126958      -0.000000
  --------------------------------------------------------
  Sum of atomic charges =     0.000000

                    Cartesian Multipole Moments
 -----------------------------------------------------------------
    Charge (ESU x 10^10)
                -0.0000
    Dipole Moment (Debye)
         X      -1.3346      Y       1.2059      Z       0.3828
       Tot       1.8390
    Quadrupole Moments (Debye-Ang)
        XX     -35.1844     XY       1.0415     YY     -32.1649
        XZ       0.4421     YZ       0.2752     ZZ     -32.6213

 Final energy is   -578.743831899121
 **  OPTIMIZATION CONVERGED  **
 Total job time:  22.70s(wall), 239.51s(cpu)
        *  Thank you very much for using Q-Chem.  Have a nice day.  *
