 Q-Chem 5.1, Q-Chem, Inc., Pleasanton, CA (2018)
 Q-Chem 5.1.1 for Intel X86 EM64T Linux

User input:
--------------------------------------------------------------

$comment
potential surface scanner
$end

$rem
JOBTYPE  PES_SCAN
UNRESTRICTED TRUE
SYM_IGNORE  TRUE
GEOM_OPT_MAX_CYCLES 400
SCF_MAX_CYCLES 400
METHOD   B3LYP
BASIS   6-31G**
PDB_PRINT 2
SCF_CONVERGENCE 6
THRESH 14
SCF_PRINT 1
$end
$molecule
0 3
Cl 2.457723 -2.095290 -0.556552
C -0.947162 0.759358 -0.273463
C 0.326168 1.152625 0.396086
C -1.498707 -0.593548 0.197828
H -0.805991 0.745880 -1.363134
H -1.718669 1.532417 -0.097839
H 0.515234 0.871726 1.428091
H 1.003957 1.865172 -0.062201
H -1.653602 -0.594690 1.282717
H -2.459547 -0.816627 -0.276876
H -0.803804 -1.405421 -0.039958
$end
$scan
stre 1 3 3.900000 3.901000 0.100000
$end
--------------------------------------------------------------

   11    -578.6177027273      4.29e-07  Convergence criterion met
 Total energy in the final basis set =     -578.6177027273
   11    -578.6176288194      6.72e-07  Convergence criterion met
 Total energy in the final basis set =     -578.6176288194
   11    -578.6176371659      6.78e-07  Convergence criterion met
 Total energy in the final basis set =     -578.6176371659
   11    -578.6176546019      6.90e-07  Convergence criterion met
 Total energy in the final basis set =     -578.6176546019
   11    -578.6176555210      6.91e-07  Convergence criterion met
 Total energy in the final basis set =     -578.6176555210
   11    -578.6176577400      6.95e-07  Convergence criterion met
 Total energy in the final basis set =     -578.6176577400

             Standard Nuclear Orientation (Angstroms)
    I     Atom           X                Y                Z
 ----------------------------------------------------------------
    1      Cl      2.4373638601    -2.0174969529    -0.5424328017
    2      C      -0.9422687143     0.7526276877    -0.2749079033
    3      C       0.3370452818     1.1334191822     0.3905141130
    4      C      -1.5056657582    -0.5943287272     0.1991644913
    5      H      -0.8044060286     0.7368578144    -1.3649741526
    6      H      -1.7055793524     1.5334526327    -0.0977738837
    7      H       0.5266552853     0.8503354689     1.4218161161
    8      H       1.0189051736     1.8414164054    -0.0687937561
    9      H      -1.6619077839    -0.5915385944     1.2838645148
   10      H      -2.4676782889    -0.8110283139    -0.2761277433
   11      H      -0.8168636746    -1.4121146030    -0.0356499946
 ----------------------------------------------------------------

   11    -578.6176580521      6.96e-07  Convergence criterion met
 Total energy in the final basis set =     -578.6176580521

                    Orbital Energies (a.u.)
 --------------------------------------------------------------

 Alpha MOs
 -- Occupied --
******* -10.184 -10.183 -10.172  -9.508  -7.283  -7.260  -7.260
 -0.843  -0.777  -0.670  -0.577  -0.450  -0.435  -0.405  -0.401
 -0.356  -0.351  -0.349  -0.345  -0.337  -0.194

 Beta MOs
 -- Occupied --
******* -10.185 -10.172 -10.169  -9.502  -7.261  -7.256  -7.256
 -0.789  -0.768  -0.652  -0.562  -0.444  -0.428  -0.396  -0.349
 -0.342  -0.335  -0.333  -0.332

          Ground-State Mulliken Net Atomic Charges

     Atom                 Charge (a.u.)    Spin (a.u.)
  --------------------------------------------------------
      1 Cl                    0.001180       1.003717
      2 C                    -0.183134      -0.075763
      3 C                    -0.215356       1.077187
      4 C                    -0.319186       0.011662
      5 H                     0.101467       0.016431
      6 H                     0.105807       0.060453
      7 H                     0.096501      -0.047677
      8 H                     0.096389      -0.047921
      9 H                     0.102507      -0.000845
     10 H                     0.098421       0.001459
     11 H                     0.115403       0.001295
  --------------------------------------------------------
  Sum of atomic charges =     0.000000

                    Cartesian Multipole Moments
 -----------------------------------------------------------------
    Charge (ESU x 10^10)
                 0.0000
    Dipole Moment (Debye)
         X      -0.1890      Y       0.0515      Z      -0.0746
       Tot       0.2096
    Quadrupole Moments (Debye-Ang)
        XX     -33.5680     XY       0.0654     YY     -33.8225
        XZ       0.2075     YZ      -0.8340     ZZ     -31.1825

 Final energy is   -578.617658052070
 **  OPTIMIZATION CONVERGED  **
 Total job time:  23.54s(wall), 254.63s(cpu)
        *  Thank you very much for using Q-Chem.  Have a nice day.  *
