 Q-Chem 5.1, Q-Chem, Inc., Pleasanton, CA (2018)
 Q-Chem 5.1.1 for Intel X86 EM64T Linux

User input:
--------------------------------------------------------------

$comment
potential surface scanner
$end

$rem
JOBTYPE  PES_SCAN
UNRESTRICTED TRUE
SYM_IGNORE  TRUE
GEOM_OPT_MAX_CYCLES 400
SCF_MAX_CYCLES 400
METHOD   B3LYP
BASIS   6-31G**
PDB_PRINT 2
SCF_CONVERGENCE 6
THRESH 14
SCF_PRINT 1
$end
$molecule
0 1
Cl 1.863714 -0.704631 -0.258897
C -0.810110 0.572181 -0.320529
C 0.530033 0.813092 0.313652
C -1.536387 -0.681947 0.166894
H -0.701478 0.563173 -1.409947
H -1.406778 1.468242 -0.080188
H 0.569403 0.708632 1.395787
H 1.071572 1.684680 -0.043906
H -1.682535 -0.658196 1.252319
H -2.520856 -0.765371 -0.302589
H -0.960975 -1.578255 -0.077894
$end
$scan
stre 1 3 2.200000 2.201000 0.100000
$end
--------------------------------------------------------------

    9    -578.7358087663      4.18e-07  Convergence criterion met
 Total energy in the final basis set =     -578.7358087663
    9    -578.7274160269      4.95e-07  Convergence criterion met
 Total energy in the final basis set =     -578.7274160269
    9    -578.7274305935      4.84e-07  Convergence criterion met
 Total energy in the final basis set =     -578.7274305935
    9    -578.7275277245      4.74e-07  Convergence criterion met
 Total energy in the final basis set =     -578.7275277245

             Standard Nuclear Orientation (Angstroms)
    I     Atom           X                Y                Z
 ----------------------------------------------------------------
    1      Cl      1.9058288035    -0.7499437213    -0.2789156386
    2      C      -0.8177062448     0.5774241904    -0.3189143900
    3      C       0.5070984913     0.8376087714     0.3237699703
    4      C      -1.5375132149    -0.6801421572     0.1687186401
    5      H      -0.7019342933     0.5700374750    -1.4073981282
    6      H      -1.4226423162     1.4714568421    -0.0845918903
    7      H       0.5689247723     0.7044130176     1.4007626294
    8      H       1.0734801723     1.6875081364    -0.0446648469
    9      H      -1.6910168430    -0.6533573702     1.2529311314
   10      H      -2.5178515392    -0.7725370135    -0.3073691395
   11      H      -0.9510647880    -1.5708681706    -0.0696263376
 ----------------------------------------------------------------

    9    -578.7275291624      4.74e-07  Convergence criterion met
 Total energy in the final basis set =     -578.7275291624

                    Orbital Energies (a.u.)
 --------------------------------------------------------------

 Alpha MOs
 -- Occupied --
******* -10.274 -10.216 -10.189  -9.422  -7.185  -7.176  -7.176
 -0.821  -0.758  -0.696  -0.606  -0.486  -0.468  -0.438  -0.382
 -0.375  -0.367  -0.325  -0.278  -0.277

 Beta MOs
 -- Occupied --
******* -10.274 -10.216 -10.189  -9.422  -7.185  -7.176  -7.176
 -0.821  -0.758  -0.696  -0.606  -0.486  -0.468  -0.438  -0.382
 -0.375  -0.367  -0.325  -0.278  -0.277

          Ground-State Mulliken Net Atomic Charges

     Atom                 Charge (a.u.)    Spin (a.u.)
  --------------------------------------------------------
      1 Cl                   -0.282817       0.000000
      2 C                    -0.185884       0.000000
      3 C                    -0.182548       0.000000
      4 C                    -0.319690       0.000000
      5 H                     0.140753      -0.000000
      6 H                     0.123491      -0.000000
      7 H                     0.170024      -0.000000
      8 H                     0.170548      -0.000000
      9 H                     0.107009      -0.000000
     10 H                     0.110896      -0.000000
     11 H                     0.148219       0.000000
  --------------------------------------------------------
  Sum of atomic charges =     0.000000

                    Cartesian Multipole Moments
 -----------------------------------------------------------------
    Charge (ESU x 10^10)
                -0.0000
    Dipole Moment (Debye)
         X      -2.8129      Y       2.4011      Z       0.7485
       Tot       3.7733
    Quadrupole Moments (Debye-Ang)
        XX     -37.6895     XY       2.4844     YY     -31.9450
        XZ       1.1026     YZ       0.1977     ZZ     -32.4874

 Final energy is   -578.727529162361
 **  OPTIMIZATION CONVERGED  **
 Total job time:  18.39s(wall), 181.51s(cpu)
        *  Thank you very much for using Q-Chem.  Have a nice day.  *
