 Q-Chem 5.1, Q-Chem, Inc., Pleasanton, CA (2018)
 Q-Chem 5.1.1 for Intel X86 EM64T Linux

User input:
--------------------------------------------------------------

$comment
potential surface scanner
$end

$rem
JOBTYPE  PES_SCAN
UNRESTRICTED TRUE
SYM_IGNORE  TRUE
GEOM_OPT_MAX_CYCLES 400
SCF_MAX_CYCLES 400
METHOD   B3LYP
BASIS   6-31G**
PDB_PRINT 2
SCF_CONVERGENCE 6
THRESH 14
SCF_PRINT 1
$end
$molecule
0 3
Cl 2.374883 -1.784605 -0.493721
C -0.928689 0.733435 -0.278817
C 0.368550 1.076051 0.373041
C -1.525701 -0.596364 0.202390
H -0.802107 0.712103 -1.370241
H -1.667242 1.536450 -0.096023
H 0.562551 0.783468 1.400691
H 1.062964 1.769198 -0.090049
H -1.682824 -0.583888 1.286873
H -2.491747 -0.793834 -0.273020
H -0.855038 -1.430415 -0.026429
$end
$scan
stre 1 3 3.500000 3.501000 0.100000
$end
--------------------------------------------------------------

   21    -578.6171885772      7.16e-07  Convergence criterion met
 Total energy in the final basis set =     -578.6171885772
   21    -578.6168635717      4.48e-07  Convergence criterion met
 Total energy in the final basis set =     -578.6168635717
   22    -578.6168977179      8.09e-07  Convergence criterion met
 Total energy in the final basis set =     -578.6168977179
   22    -578.6169058944      4.66e-07  Convergence criterion met
 Total energy in the final basis set =     -578.6169058944

             Standard Nuclear Orientation (Angstroms)
    I     Atom           X                Y                Z
 ----------------------------------------------------------------
    1      Cl      2.3579521952    -1.7061309469    -0.4755832169
    2      C      -0.9243563452     0.7268438879    -0.2801453775
    3      C       0.3792104920     1.0553203488     0.3664195465
    4      C      -1.5330428661    -0.5967966327     0.2034474351
    5      H      -0.8026050940     0.7042337993    -1.3720786193
    6      H      -1.6534561062     1.5380039747    -0.0947021498
    7      H       0.5748919420     0.7597056407     1.3927740507
    8      H       1.0764870927     1.7451559896    -0.0973567202
    9      H      -1.6895856350    -0.5815011445     1.2879441379
   10      H      -2.5010073542    -0.7871397325    -0.2709871089
   11      H      -0.8688883213    -1.4360961845    -0.0250369775
 ----------------------------------------------------------------

   22    -578.6169063901      6.08e-07  Convergence criterion met
 Total energy in the final basis set =     -578.6169063901

                    Orbital Energies (a.u.)
 --------------------------------------------------------------

 Alpha MOs
 -- Occupied --
******* -10.184 -10.182 -10.172  -9.507  -7.282  -7.258  -7.258
 -0.841  -0.777  -0.669  -0.577  -0.449  -0.435  -0.404  -0.401
 -0.356  -0.351  -0.348  -0.345  -0.337  -0.192

 Beta MOs
 -- Occupied --
******* -10.185 -10.171 -10.168  -9.500  -7.260  -7.255  -7.254
 -0.788  -0.768  -0.652  -0.562  -0.444  -0.428  -0.396  -0.348
 -0.342  -0.334  -0.331  -0.330

          Ground-State Mulliken Net Atomic Charges

     Atom                 Charge (a.u.)    Spin (a.u.)
  --------------------------------------------------------
      1 Cl                    0.001246       1.007032
      2 C                    -0.182928      -0.075418
      3 C                    -0.212647       1.073210
      4 C                    -0.318727       0.011507
      5 H                     0.100910       0.017002
      6 H                     0.105323       0.060324
      7 H                     0.096069      -0.047448
      8 H                     0.095158      -0.047695
      9 H                     0.102434      -0.000812
     10 H                     0.098497       0.001230
     11 H                     0.114665       0.001069
  --------------------------------------------------------
  Sum of atomic charges =    -0.000000

                    Cartesian Multipole Moments
 -----------------------------------------------------------------
    Charge (ESU x 10^10)
                -0.0000
    Dipole Moment (Debye)
         X      -0.1874      Y       0.0655      Z      -0.0636
       Tot       0.2085
    Quadrupole Moments (Debye-Ang)
        XX     -33.5960     XY       0.1644     YY     -33.6573
        XZ       0.0352     YZ      -1.1336     ZZ     -31.4316

 Final energy is   -578.616906390146
 **  OPTIMIZATION CONVERGED  **
 Total job time:  26.82s(wall), 294.68s(cpu)
        *  Thank you very much for using Q-Chem.  Have a nice day.  *
