 Q-Chem 5.1, Q-Chem, Inc., Pleasanton, CA (2018)
 Q-Chem 5.1.1 for Intel X86 EM64T Linux

User input:
--------------------------------------------------------------

$comment
potential surface scanner
$end

$rem
JOBTYPE  PES_SCAN
UNRESTRICTED TRUE
SYM_IGNORE  TRUE
GEOM_OPT_MAX_CYCLES 400
SCF_MAX_CYCLES 400
METHOD   B3LYP
BASIS   6-31G**
PDB_PRINT 2
SCF_CONVERGENCE 6
THRESH 14
SCF_PRINT 1
$end
$molecule
0 1
Cl 1.749233 -0.565190 -0.201979
C -0.784959 0.555479 -0.324704
C 0.602459 0.734790 0.282751
C -1.533870 -0.686265 0.162898
H -0.697434 0.542803 -1.417143
H -1.356257 1.458724 -0.068493
H 0.564140 0.718367 1.374683
H 1.055427 1.674388 -0.038250
H -1.657928 -0.670849 1.251649
H -2.530278 -0.740109 -0.286101
H -0.994934 -1.600537 -0.100610
$end
$scan
stre 1 3 1.900000 1.901000 0.100000
$end
--------------------------------------------------------------

    9    -578.7493500511      3.57e-07  Convergence criterion met
 Total energy in the final basis set =     -578.7493500511
    9    -578.7477478624      3.88e-07  Convergence criterion met
 Total energy in the final basis set =     -578.7477478624
    9    -578.7480623512      3.75e-07  Convergence criterion met
 Total energy in the final basis set =     -578.7480623512
    9    -578.7481381717      3.67e-07  Convergence criterion met
 Total energy in the final basis set =     -578.7481381717

             Standard Nuclear Orientation (Angstroms)
    I     Atom           X                Y                Z
 ----------------------------------------------------------------
    1      Cl      1.7875335834    -0.6104320150    -0.2222016916
    2      C      -0.7935853471     0.5607511105    -0.3235306588
    3      C       0.5777057016     0.7609733980     0.2931265782
    4      C      -1.5351756350    -0.6848954549     0.1641618483
    5      H      -0.6986021309     0.5485857997    -1.4148624907
    6      H      -1.3730223400     1.4616832046    -0.0724892722
    7      H       0.5674134615     0.7149478862     1.3828391368
    8      H       1.0619225537     1.6783836177    -0.0395622901
    9      H      -1.6671519075    -0.6660906247     1.2517758961
   10      H      -2.5275322617    -0.7488323708    -0.2921887081
   11      H      -0.9839066779    -1.5934735513    -0.0923673478
 ----------------------------------------------------------------

    9    -578.7481398314      3.68e-07  Convergence criterion met
 Total energy in the final basis set =     -578.7481398314

                    Orbital Energies (a.u.)
 --------------------------------------------------------------

 Alpha MOs
 -- Occupied --
******* -10.252 -10.203 -10.182  -9.440  -7.204  -7.194  -7.194
 -0.839  -0.771  -0.683  -0.595  -0.475  -0.464  -0.427  -0.391
 -0.368  -0.359  -0.344  -0.291  -0.289

 Beta MOs
 -- Occupied --
******* -10.252 -10.203 -10.182  -9.440  -7.204  -7.194  -7.194
 -0.839  -0.771  -0.683  -0.595  -0.475  -0.464  -0.427  -0.391
 -0.368  -0.359  -0.344  -0.291  -0.289

          Ground-State Mulliken Net Atomic Charges

     Atom                 Charge (a.u.)    Spin (a.u.)
  --------------------------------------------------------
      1 Cl                   -0.143965       0.000000
      2 C                    -0.176767       0.000000
      3 C                    -0.256190       0.000000
      4 C                    -0.317876      -0.000000
      5 H                     0.124523       0.000000
      6 H                     0.110952       0.000000
      7 H                     0.155412      -0.000000
      8 H                     0.156353      -0.000000
      9 H                     0.104648      -0.000000
     10 H                     0.108228       0.000000
     11 H                     0.134683       0.000000
  --------------------------------------------------------
  Sum of atomic charges =    -0.000000

                    Cartesian Multipole Moments
 -----------------------------------------------------------------
    Charge (ESU x 10^10)
                -0.0000
    Dipole Moment (Debye)
         X      -1.8544      Y       1.6227      Z       0.5129
       Tot       2.5169
    Quadrupole Moments (Debye-Ang)
        XX     -36.0653     XY       1.4965     YY     -32.0461
        XZ       0.6578     YZ       0.2798     ZZ     -32.5892

 Final energy is   -578.748139831381
 **  OPTIMIZATION CONVERGED  **
 Total job time:  18.21s(wall), 181.17s(cpu)
        *  Thank you very much for using Q-Chem.  Have a nice day.  *
