 Q-Chem 5.1, Q-Chem, Inc., Pleasanton, CA (2018)
 Q-Chem 5.1.1 for Intel X86 EM64T Linux

User input:
--------------------------------------------------------------

$comment
potential surface scanner
$end

$rem
JOBTYPE  PES_SCAN
UNRESTRICTED TRUE
SYM_IGNORE  TRUE
GEOM_OPT_MAX_CYCLES 400
SCF_MAX_CYCLES 400
METHOD   B3LYP
BASIS   6-31G**
PDB_PRINT 2
SCF_CONVERGENCE 6
THRESH 14
SCF_PRINT 1
$end
$molecule
0 1
Cl 1.987322 -0.852047 -0.304021
C -0.833461 0.590423 -0.314592
C 0.463773 0.886487 0.341190
C -1.537232 -0.677158 0.170647
H -0.706583 0.589768 -1.401679
H -1.456445 1.477929 -0.088563
H 0.564096 0.706063 1.407217
H 1.074999 1.691746 -0.051988
H -1.697851 -0.651922 1.253607
H -2.512193 -0.784550 -0.312686
H -0.930820 -1.555139 -0.064428
$end
$scan
stre 1 3 2.500000 2.501000 0.100000
$end
--------------------------------------------------------------

    9    -578.7100833841      6.75e-07  Convergence criterion met
 Total energy in the final basis set =     -578.7100833841
    9    -578.7015658135      8.83e-07  Convergence criterion met
 Total energy in the final basis set =     -578.7015658135
    9    -578.7014346666      8.85e-07  Convergence criterion met
 Total energy in the final basis set =     -578.7014346666
    9    -578.7015396820      8.76e-07  Convergence criterion met
 Total energy in the final basis set =     -578.7015396820
    9    -578.7015411732      8.77e-07  Convergence criterion met
 Total energy in the final basis set =     -578.7015411732

             Standard Nuclear Orientation (Angstroms)
    I     Atom           X                Y                Z
 ----------------------------------------------------------------
    1      Cl      2.0311393862    -0.9043530305    -0.3150881484
    2      C      -0.8411228483     0.5969168898    -0.3125261879
    3      C       0.4434965506     0.9090249375     0.3490264586
    4      C      -1.5371405543    -0.6755812680     0.1713485143
    5      H      -0.7092614629     0.6000983686    -1.3990210042
    6      H      -1.4728648014     1.4808582703    -0.0897964898
    7      H       0.5595983344     0.7094278556     1.4097582787
    8      H       1.0735187601     1.6937508848    -0.0553075302
    9      H      -1.6992137245    -0.6520586328     1.2540200466
   10      H      -2.5103825854    -0.7889882850    -0.3137890340
   11      H      -0.9221620545    -1.5474959902    -0.0639209037
 ----------------------------------------------------------------

    9    -578.7015415871      8.77e-07  Convergence criterion met
 Total energy in the final basis set =     -578.7015415871

                    Orbital Energies (a.u.)
 --------------------------------------------------------------

 Alpha MOs
 -- Occupied --
******* -10.291 -10.229 -10.196  -9.404  -7.167  -7.159  -7.159
 -0.829  -0.736  -0.707  -0.618  -0.500  -0.476  -0.451  -0.391
 -0.381  -0.375  -0.295  -0.262  -0.261

 Beta MOs
 -- Occupied --
******* -10.291 -10.229 -10.196  -9.404  -7.167  -7.159  -7.159
 -0.829  -0.736  -0.707  -0.618  -0.500  -0.476  -0.451  -0.391
 -0.381  -0.375  -0.295  -0.262  -0.261

          Ground-State Mulliken Net Atomic Charges

     Atom                 Charge (a.u.)    Spin (a.u.)
  --------------------------------------------------------
      1 Cl                   -0.392883      -0.000000
      2 C                    -0.203302       0.000000
      3 C                    -0.117296      -0.000000
      4 C                    -0.322565       0.000000
      5 H                     0.155195       0.000000
      6 H                     0.136293       0.000000
      7 H                     0.179392      -0.000000
      8 H                     0.179745       0.000000
      9 H                     0.110037      -0.000000
     10 H                     0.114158       0.000000
     11 H                     0.161226      -0.000000
  --------------------------------------------------------
  Sum of atomic charges =    -0.000000

                    Cartesian Multipole Moments
 -----------------------------------------------------------------
    Charge (ESU x 10^10)
                -0.0000
    Dipole Moment (Debye)
         X      -3.8246      Y       3.2504      Z       0.9615
       Tot       5.1106
    Quadrupole Moments (Debye-Ang)
        XX     -39.5006     XY       3.7295     YY     -32.0492
        XZ       1.5498     YZ       0.0354     ZZ     -32.3739

 Final energy is   -578.701541587126
 **  OPTIMIZATION CONVERGED  **
 Total job time:  25.46s(wall), 214.80s(cpu)
        *  Thank you very much for using Q-Chem.  Have a nice day.  *
