 Q-Chem 5.1, Q-Chem, Inc., Pleasanton, CA (2018)
 Q-Chem 5.1.1 for Intel X86 EM64T Linux

User input:
--------------------------------------------------------------

$comment
potential surface scanner
$end

$rem
JOBTYPE  PES_SCAN
UNRESTRICTED TRUE
SYM_IGNORE  TRUE
GEOM_OPT_MAX_CYCLES 400
SCF_MAX_CYCLES 400
METHOD   B3LYP
BASIS   6-31G**
PDB_PRINT 2
SCF_CONVERGENCE 6
THRESH 14
SCF_PRINT 1
$end
$molecule
0 1
Cl 1.759445 -0.576646 -0.207865
C -0.787170 0.556755 -0.324447
C 0.595837 0.741625 0.285548
C -1.534253 -0.685854 0.163299
H -0.697481 0.544007 -1.416574
H -1.360732 1.459349 -0.069835
H 0.565226 0.717231 1.377000
H 1.057152 1.675548 -0.038205
H -1.660479 -0.669448 1.251751
H -2.529632 -0.742170 -0.287655
H -0.992314 -1.598796 -0.098317
$end
$scan
stre 1 3 3.300000 3.301000 0.100000
$end
--------------------------------------------------------------

    9    -578.7495578000      3.58e-07  Convergence criterion met
 Total energy in the final basis set =     -578.7495578000
    9    -578.7435169914      4.18e-07  Convergence criterion met
 Total energy in the final basis set =     -578.7435169914
    9    -578.7315821041      4.88e-07  Convergence criterion met
 Total energy in the final basis set =     -578.7315821041
    9    -578.7188383402      5.82e-07  Convergence criterion met
 Total energy in the final basis set =     -578.7188383402
    9    -578.7070916918      7.12e-07  Convergence criterion met
 Total energy in the final basis set =     -578.7070916918
    9    -578.6961919782      9.97e-07  Convergence criterion met
 Total energy in the final basis set =     -578.6961919782
   10    -578.6857803592      4.49e-07  Convergence criterion met
 Total energy in the final basis set =     -578.6857803592
   10    -578.6759398299      9.68e-07  Convergence criterion met
   11    -578.6472886141      2.46e-07  Convergence criterion met
 Total energy in the final basis set =     -578.6472886141
   11    -578.6472916800      2.47e-07  Convergence criterion met
 Total energy in the final basis set =     -578.6472916800
   11    -578.6472947420      2.51e-07  Convergence criterion met
 Total energy in the final basis set =     -578.6472947420
   11    -578.6472971836      2.56e-07  Convergence criterion met
 Total energy in the final basis set =     -578.6472971836
   11    -578.6472988798      2.61e-07  Convergence criterion met
 Total energy in the final basis set =     -578.6472988798
   11    -578.6472999414      2.65e-07  Convergence criterion met
 Total energy in the final basis set =     -578.6472999414

             Standard Nuclear Orientation (Angstroms)
    I     Atom           X                Y                Z
 ----------------------------------------------------------------
    1      Cl      2.1383184819    -1.5611420681    -0.2605008424
    2      C      -0.9135321649     0.6951743047    -0.2883100763
    3      C       0.3135137794     1.1135644810     0.3767060570
    4      C      -1.4491590455    -0.6812172618     0.1348540688
    5      H      -0.8191767288     0.7926732486    -1.3741391966
    6      H      -1.6530683945     1.4733989896     0.0150302086
    7      H       0.4830788335     0.8772889248     1.4235059045
    8      H       1.0343705235     1.7667361601    -0.1051412075
    9      H      -1.5789177697    -0.7401092132     1.2197257544
   10      H      -2.4148331225    -0.8711892973    -0.3397751549
   11      H      -0.7249953923    -1.4435772685    -0.1672555155
 ----------------------------------------------------------------

   11    -578.6473006082      2.67e-07  Convergence criterion met
 Total energy in the final basis set =     -578.6473006082

                    Orbital Energies (a.u.)
 --------------------------------------------------------------

 Alpha MOs
 -- Occupied --
******* -10.315 -10.250 -10.207  -9.374  -7.137  -7.130  -7.130
 -0.851  -0.727  -0.699  -0.637  -0.527  -0.491  -0.469  -0.408
 -0.396  -0.386  -0.248  -0.235  -0.234

 Beta MOs
 -- Occupied --
******* -10.315 -10.250 -10.207  -9.374  -7.137  -7.130  -7.130
 -0.851  -0.727  -0.699  -0.637  -0.527  -0.491  -0.469  -0.408
 -0.396  -0.386  -0.248  -0.235  -0.234

          Ground-State Mulliken Net Atomic Charges

     Atom                 Charge (a.u.)    Spin (a.u.)
  --------------------------------------------------------
      1 Cl                   -0.508542       0.000000
      2 C                    -0.234989      -0.000000
      3 C                    -0.063716      -0.000000
      4 C                    -0.324533       0.000000
      5 H                     0.164304      -0.000000
      6 H                     0.161718      -0.000000
      7 H                     0.190220       0.000000
      8 H                     0.188958       0.000000
      9 H                     0.117964      -0.000000
     10 H                     0.119335       0.000000
     11 H                     0.189282      -0.000000
  --------------------------------------------------------
  Sum of atomic charges =     0.000000

                    Cartesian Multipole Moments
 -----------------------------------------------------------------
    Charge (ESU x 10^10)
                 0.0000
    Dipole Moment (Debye)
         X      -5.3217      Y       5.6590      Z       1.0561
       Tot       7.8397
    Quadrupole Moments (Debye-Ang)
        XX     -41.7266     XY       7.8071     YY     -34.8208
        XZ       1.6431     YZ      -0.2639     ZZ     -32.1913

 Final energy is   -578.647300608183
 **  OPTIMIZATION CONVERGED  **
 Total job time:  122.64s(wall), 1148.62s(cpu)
        *  Thank you very much for using Q-Chem.  Have a nice day.  *
