 Q-Chem 5.1, Q-Chem, Inc., Pleasanton, CA (2018)
 Q-Chem 5.1.1 for Intel X86 EM64T Linux

User input:
--------------------------------------------------------------

$comment
potential surface scanner
$end

$rem
JOBTYPE  PES_SCAN
UNRESTRICTED TRUE
SYM_IGNORE  TRUE
GEOM_OPT_MAX_CYCLES 400
SCF_MAX_CYCLES 400
METHOD   B3LYP
BASIS   6-31G**
PDB_PRINT 2
SCF_CONVERGENCE 6
THRESH 14
SCF_PRINT 1
$end
$molecule
0 1
Cl 1.759445 -0.576646 -0.207865
C -0.787170 0.556755 -0.324447
C 0.595837 0.741625 0.285548
C -1.534253 -0.685854 0.163299
H -0.697481 0.544007 -1.416574
H -1.360732 1.459349 -0.069835
H 0.565226 0.717231 1.377000
H 1.057152 1.675548 -0.038205
H -1.660479 -0.669448 1.251751
H -2.529632 -0.742170 -0.287655
H -0.992314 -1.598796 -0.098317
$end
$scan
stre 1 3 1.100000 1.101000 0.100000
$end
--------------------------------------------------------------

    9    -578.7495578000      3.58e-07  Convergence criterion met
 Total energy in the final basis set =     -578.7495578000
    9    -578.7399653932      3.39e-07  Convergence criterion met
 Total energy in the final basis set =     -578.7399653932
    9    -578.7011100352      3.56e-07  Convergence criterion met
 Total energy in the final basis set =     -578.7011100352
    8    -578.6285177424      8.90e-07  Convergence criterion met
 Total energy in the final basis set =     -578.6285177424
    8    -578.5138189206      6.22e-07  Convergence criterion met
 Total energy in the final basis set =     -578.5138189206
    9    -578.3223578480      6.26e-07  Convergence criterion met
 Total energy in the final basis set =     -578.3223578480
    9    -578.1232550388      6.86e-07  Convergence criterion met
 Total energy in the final basis set =     -578.1232550388
    9    -578.0606974403      7.00e-07  Convergence criterion met
    9    -578.0464239905      7.11e-07  Convergence criterion met
 Total energy in the final basis set =     -578.0464239905
    9    -578.0464297774      7.12e-07  Convergence criterion met
 Total energy in the final basis set =     -578.0464297774
    9    -578.0464330775      7.13e-07  Convergence criterion met
 Total energy in the final basis set =     -578.0464330775
    9    -578.0464348358      7.15e-07  Convergence criterion met
 Total energy in the final basis set =     -578.0464348358
    9    -578.0464358899      7.16e-07  Convergence criterion met
 Total energy in the final basis set =     -578.0464358899
    9    -578.0464367901      7.17e-07  Convergence criterion met
 Total energy in the final basis set =     -578.0464367901

             Standard Nuclear Orientation (Angstroms)
    I     Atom           X                Y                Z
 ----------------------------------------------------------------
    1      Cl      1.4720757099    -0.3098941870    -0.0266970530
    2      C      -0.7668739223     0.5373892984    -0.3241802292
    3      C       0.7973985819     0.5244444241     0.2155630808
    4      C      -1.5260463689    -0.6973148204     0.1482927780
    5      H      -0.7138124680     0.5589153804    -1.4226153428
    6      H      -1.2390572822     1.4625939731     0.0197369643
    7      H       0.5373791322     0.8050659217     1.3055254851
    8      H       1.0268670808     1.6096989457    -0.0950824525
    9      H      -1.6297008332    -0.7032915227     1.2400908921
   10      H      -2.5314289629    -0.7446994820    -0.2822741806
   11      H      -1.0112016673    -1.6213069315    -0.1436599423
 ----------------------------------------------------------------

    9    -578.0464375167      7.18e-07  Convergence criterion met
 Total energy in the final basis set =     -578.0464375167

                    Orbital Energies (a.u.)
 --------------------------------------------------------------

 Alpha MOs
 -- Occupied --
******* -10.234 -10.177 -10.173  -9.496  -7.261  -7.242  -7.242
 -1.096  -0.756  -0.640  -0.587  -0.559  -0.533  -0.480  -0.428
 -0.388  -0.359  -0.341  -0.228  -0.220

 Beta MOs
 -- Occupied --
******* -10.234 -10.177 -10.173  -9.496  -7.261  -7.242  -7.242
 -1.096  -0.756  -0.640  -0.587  -0.559  -0.533  -0.480  -0.428
 -0.388  -0.359  -0.341  -0.228  -0.220

          Ground-State Mulliken Net Atomic Charges

     Atom                 Charge (a.u.)    Spin (a.u.)
  --------------------------------------------------------
      1 Cl                    0.244715      -0.000000
      2 C                    -0.213707       0.000000
      3 C                    -0.314127       0.000000
      4 C                    -0.329910       0.000000
      5 H                     0.088625      -0.000000
      6 H                     0.094855      -0.000000
      7 H                     0.052616      -0.000000
      8 H                     0.055573      -0.000000
      9 H                     0.103477      -0.000000
     10 H                     0.109935      -0.000000
     11 H                     0.107949      -0.000000
  --------------------------------------------------------
  Sum of atomic charges =     0.000000

                    Cartesian Multipole Moments
 -----------------------------------------------------------------
    Charge (ESU x 10^10)
                -0.0000
    Dipole Moment (Debye)
         X      -0.1037      Y       0.1064      Z       0.0336
       Tot       0.1523
    Quadrupole Moments (Debye-Ang)
        XX     -32.7890     XY       0.4034     YY     -33.1494
        XZ       0.1585     YZ      -0.0782     ZZ     -32.5901

 Final energy is   -578.046437516659
 **  OPTIMIZATION CONVERGED  **
 Total job time:  116.50s(wall), 1147.82s(cpu)
        *  Thank you very much for using Q-Chem.  Have a nice day.  *
