 Q-Chem 5.1, Q-Chem, Inc., Pleasanton, CA (2018)
 Q-Chem 5.1.1 for Intel X86 EM64T Linux

User input:
--------------------------------------------------------------

$comment
potential surface scanner
$end

$rem
JOBTYPE  PES_SCAN
UNRESTRICTED TRUE
SYM_IGNORE  TRUE
GEOM_OPT_MAX_CYCLES 400
SCF_MAX_CYCLES 400
METHOD   B3LYP
BASIS   6-31G**
PDB_PRINT 2
SCF_CONVERGENCE 6
THRESH 14
SCF_PRINT 1
$end
$molecule
0 1
Cl 1.759445 -0.576646 -0.207865
C -0.787170 0.556755 -0.324447
C 0.595837 0.741625 0.285548
C -1.534253 -0.685854 0.163299
H -0.697481 0.544007 -1.416574
H -1.360732 1.459349 -0.069835
H 0.565226 0.717231 1.377000
H 1.057152 1.675548 -0.038205
H -1.660479 -0.669448 1.251751
H -2.529632 -0.742170 -0.287655
H -0.992314 -1.598796 -0.098317
$end
$scan
stre 1 3 3.500000 3.501000 0.100000
$end
--------------------------------------------------------------

    9    -578.7495578000      3.58e-07  Convergence criterion met
 Total energy in the final basis set =     -578.7495578000
    9    -578.7435169914      4.18e-07  Convergence criterion met
 Total energy in the final basis set =     -578.7435169914
    9    -578.7315821041      4.88e-07  Convergence criterion met
 Total energy in the final basis set =     -578.7315821041
    9    -578.7188383402      5.82e-07  Convergence criterion met
 Total energy in the final basis set =     -578.7188383402
    9    -578.7070916918      7.12e-07  Convergence criterion met
 Total energy in the final basis set =     -578.7070916918
    9    -578.6961919782      9.97e-07  Convergence criterion met
 Total energy in the final basis set =     -578.6961919782
   10    -578.6857803592      4.49e-07  Convergence criterion met
 Total energy in the final basis set =     -578.6857803592
   10    -578.6759398299      9.68e-07  Convergence criterion met
   11    -578.6380768530      8.47e-07  Convergence criterion met
 Total energy in the final basis set =     -578.6380768530
   11    -578.6380796535      8.19e-07  Convergence criterion met
 Total energy in the final basis set =     -578.6380796535
   11    -578.6380824185      7.91e-07  Convergence criterion met
 Total energy in the final basis set =     -578.6380824185
   11    -578.6380850235      7.66e-07  Convergence criterion met
 Total energy in the final basis set =     -578.6380850235
   11    -578.6380871342      7.48e-07  Convergence criterion met
 Total energy in the final basis set =     -578.6380871342
   11    -578.6380883449      7.39e-07  Convergence criterion met
 Total energy in the final basis set =     -578.6380883449

             Standard Nuclear Orientation (Angstroms)
    I     Atom           X                Y                Z
 ----------------------------------------------------------------
    1      Cl      2.1522463167    -1.7218802723    -0.2862409502
    2      C      -0.9219131559     0.7108922469    -0.2834245431
    3      C       0.2860801948     1.1607520234     0.3904084155
    4      C      -1.4240419904    -0.6836264616     0.1276708879
    5      H      -0.8291746928     0.8219119824    -1.3681292435
    6      H      -1.6871690453     1.4624656702     0.0259639311
    7      H       0.4568615992     0.9217165527     1.4366821376
    8      H       1.0022228333     1.8205056129    -0.0901253570
    9      H      -1.5531146684    -0.7543549396     1.2118416251
   10      H      -2.3848287772    -0.8901215411    -0.3498298258
   11      H      -0.6815696140    -1.4266598738    -0.1801170777
 ----------------------------------------------------------------

   11    -578.6380887781      7.36e-07  Convergence criterion met
 Total energy in the final basis set =     -578.6380887781

                    Orbital Energies (a.u.)
 --------------------------------------------------------------

 Alpha MOs
 -- Occupied --
******* -10.317 -10.253 -10.209  -9.370  -7.133  -7.126  -7.126
 -0.854  -0.729  -0.695  -0.640  -0.530  -0.493  -0.471  -0.410
 -0.398  -0.388  -0.242  -0.231  -0.231

 Beta MOs
 -- Occupied --
******* -10.317 -10.253 -10.209  -9.370  -7.133  -7.126  -7.126
 -0.854  -0.729  -0.695  -0.640  -0.530  -0.493  -0.471  -0.410
 -0.398  -0.388  -0.242  -0.231  -0.231

          Ground-State Mulliken Net Atomic Charges

     Atom                 Charge (a.u.)    Spin (a.u.)
  --------------------------------------------------------
      1 Cl                   -0.514259       0.000000
      2 C                    -0.237842       0.000000
      3 C                    -0.064757      -0.000000
      4 C                    -0.325551       0.000000
      5 H                     0.165254      -0.000000
      6 H                     0.165690      -0.000000
      7 H                     0.190282       0.000000
      8 H                     0.188755      -0.000000
      9 H                     0.119090       0.000000
     10 H                     0.120619      -0.000000
     11 H                     0.192720      -0.000000
  --------------------------------------------------------
  Sum of atomic charges =     0.000000

                    Cartesian Multipole Moments
 -----------------------------------------------------------------
    Charge (ESU x 10^10)
                -0.0000
    Dipole Moment (Debye)
         X      -5.5187      Y       6.1663      Z       1.1430
       Tot       8.3538
    Quadrupole Moments (Debye-Ang)
        XX     -41.9856     XY       8.7638     YY     -35.9331
        XZ       1.7976     YZ      -0.4334     ZZ     -32.1990

 Final energy is   -578.638088778126
 **  OPTIMIZATION CONVERGED  **
 Total job time:  114.28s(wall), 1241.20s(cpu)
        *  Thank you very much for using Q-Chem.  Have a nice day.  *
