 Q-Chem 5.1, Q-Chem, Inc., Pleasanton, CA (2018)
 Q-Chem 5.1.1 for Intel X86 EM64T Linux

User input:
--------------------------------------------------------------

$comment
potential surface scanner
$end

$rem
JOBTYPE  PES_SCAN
UNRESTRICTED TRUE
SYM_IGNORE  TRUE
GEOM_OPT_MAX_CYCLES 400
SCF_MAX_CYCLES 400
METHOD   B3LYP
BASIS   6-31G**
PDB_PRINT 2
SCF_CONVERGENCE 6
THRESH 14
SCF_PRINT 1
$end
$molecule
0 1
Cl 2.031139 -0.904353 -0.315088
C -0.841123 0.596917 -0.312526
C 0.443497 0.909025 0.349026
C -1.537141 -0.675581 0.171349
H -0.709261 0.600098 -1.399021
H -1.472865 1.480858 -0.089796
H 0.559598 0.709428 1.409758
H 1.073519 1.693751 -0.055308
H -1.699214 -0.652059 1.254020
H -2.510383 -0.788988 -0.313789
H -0.922162 -1.547496 -0.063921
$end
$scan
stre 1 3 2.600000 2.601000 0.100000
$end
--------------------------------------------------------------

    9    -578.7015416435      8.77e-07  Convergence criterion met
 Total energy in the final basis set =     -578.7015416435
   10    -578.6932989855      3.19e-07  Convergence criterion met
 Total energy in the final basis set =     -578.6932989855
   10    -578.6918208397      3.28e-07  Convergence criterion met
 Total energy in the final basis set =     -578.6918208397
   10    -578.6922017787      3.35e-07  Convergence criterion met
 Total energy in the final basis set =     -578.6922017787
   10    -578.6932247691      3.35e-07  Convergence criterion met
 Total energy in the final basis set =     -578.6932247691
   10    -578.6932418176      3.33e-07  Convergence criterion met
 Total energy in the final basis set =     -578.6932418176
   10    -578.6932471162      3.32e-07  Convergence criterion met
 Total energy in the final basis set =     -578.6932471162
   10    -578.6932517113      3.31e-07  Convergence criterion met
 Total energy in the final basis set =     -578.6932517113

             Standard Nuclear Orientation (Angstroms)
    I     Atom           X                Y                Z
 ----------------------------------------------------------------
    1      Cl      2.0718231396    -0.9615848859    -0.3247329761
    2      C      -0.8496668692     0.6050879080    -0.3102977119
    3      C       0.4243160456     0.9311217479     0.3559886969
    4      C      -1.5355889673    -0.6735699627     0.1720246095
    5      H      -0.7132464589     0.6125196467    -1.3962271543
    6      H      -1.4907759785     1.4843998883    -0.0904978013
    7      H       0.5545442473     0.7122106750     1.4110353119
    8      H       1.0706093066     1.6970171594    -0.0583011255
    9      H      -1.7002657237    -0.6520039137     1.2542204727
   10      H      -2.5061577275    -0.7954155742    -0.3160900000
   11      H      -0.9099870140    -1.5381826886    -0.0624183219
 ----------------------------------------------------------------

   10    -578.6932526197      3.31e-07  Convergence criterion met
 Total energy in the final basis set =     -578.6932526197

                    Orbital Energies (a.u.)
 --------------------------------------------------------------

 Alpha MOs
 -- Occupied --
******* -10.296 -10.232 -10.198  -9.398  -7.162  -7.154  -7.153
 -0.833  -0.730  -0.710  -0.621  -0.504  -0.478  -0.454  -0.394
 -0.384  -0.378  -0.287  -0.257  -0.257

 Beta MOs
 -- Occupied --
******* -10.296 -10.232 -10.198  -9.398  -7.162  -7.154  -7.153
 -0.833  -0.730  -0.710  -0.621  -0.504  -0.478  -0.454  -0.394
 -0.384  -0.378  -0.287  -0.257  -0.257

          Ground-State Mulliken Net Atomic Charges

     Atom                 Charge (a.u.)    Spin (a.u.)
  --------------------------------------------------------
      1 Cl                   -0.420181      -0.000000
      2 C                    -0.209125      -0.000000
      3 C                    -0.101657       0.000000
      4 C                    -0.323611       0.000000
      5 H                     0.159127      -0.000000
      6 H                     0.140321       0.000000
      7 H                     0.181822      -0.000000
      8 H                     0.181918      -0.000000
      9 H                     0.111076      -0.000000
     10 H                     0.115244       0.000000
     11 H                     0.165066      -0.000000
  --------------------------------------------------------
  Sum of atomic charges =    -0.000000

                    Cartesian Multipole Moments
 -----------------------------------------------------------------
    Charge (ESU x 10^10)
                 0.0000
    Dipole Moment (Debye)
         X      -4.1363      Y       3.5301      Z       1.0215
       Tot       5.5330
    Quadrupole Moments (Debye-Ang)
        XX     -40.0909     XY       4.1797     YY     -32.1566
        XZ       1.6857     YZ      -0.0354     ZZ     -32.3443

 Final energy is   -578.693252619688
 **  OPTIMIZATION CONVERGED  **
 Total job time:  34.83s(wall), 345.18s(cpu)
        *  Thank you very much for using Q-Chem.  Have a nice day.  *
