 Q-Chem 5.1, Q-Chem, Inc., Pleasanton, CA (2018)
 Q-Chem 5.1.1 for Intel X86 EM64T Linux

User input:
--------------------------------------------------------------

$comment
potential surface scanner
$end

$rem
JOBTYPE  PES_SCAN
UNRESTRICTED TRUE
SYM_IGNORE  TRUE
GEOM_OPT_MAX_CYCLES 400
SCF_MAX_CYCLES 400
METHOD   B3LYP
BASIS   6-31G**
PDB_PRINT 2
SCF_CONVERGENCE 6
THRESH 14
SCF_PRINT 1
$end
$molecule
0 1
Cl 1.759445 -0.576646 -0.207865
C -0.787170 0.556755 -0.324447
C 0.595837 0.741625 0.285548
C -1.534253 -0.685854 0.163299
H -0.697481 0.544007 -1.416574
H -1.360732 1.459349 -0.069835
H 0.565226 0.717231 1.377000
H 1.057152 1.675548 -0.038205
H -1.660479 -0.669448 1.251751
H -2.529632 -0.742170 -0.287655
H -0.992314 -1.598796 -0.098317
$end
$scan
stre 1 3 0.900000 0.901000 0.100000
$end
--------------------------------------------------------------

    9    -578.7495578000      3.58e-07  Convergence criterion met
 Total energy in the final basis set =     -578.7495578000
    9    -578.7399653932      3.39e-07  Convergence criterion met
 Total energy in the final basis set =     -578.7399653932
    9    -578.7011100352      3.56e-07  Convergence criterion met
 Total energy in the final basis set =     -578.7011100352
    8    -578.6285177424      8.90e-07  Convergence criterion met
 Total energy in the final basis set =     -578.6285177424
    8    -578.5138189206      6.22e-07  Convergence criterion met
 Total energy in the final basis set =     -578.5138189206
    9    -578.3223578480      6.26e-07  Convergence criterion met
 Total energy in the final basis set =     -578.3223578480
    9    -578.0364300154      6.98e-07  Convergence criterion met
 Total energy in the final basis set =     -578.0364300154
    9    -577.8830414604      7.32e-07  Convergence criterion met
   10    -576.8002577824      4.43e-07  Convergence criterion met
 Total energy in the final basis set =     -576.8002577824
   10    -576.8002609654      4.44e-07  Convergence criterion met
 Total energy in the final basis set =     -576.8002609654
   10    -576.8002624768      4.44e-07  Convergence criterion met
 Total energy in the final basis set =     -576.8002624768
   10    -576.8002641741      4.45e-07  Convergence criterion met
 Total energy in the final basis set =     -576.8002641741
   10    -576.8002662069      4.46e-07  Convergence criterion met
 Total energy in the final basis set =     -576.8002662069
   10    -576.8002675774      4.46e-07  Convergence criterion met
 Total energy in the final basis set =     -576.8002675774

             Standard Nuclear Orientation (Angstroms)
    I     Atom           X                Y                Z
 ----------------------------------------------------------------
    1      Cl      1.2445231092    -0.5006100304     0.4623980716
    2      C      -1.1079025347     0.7157135504    -0.1430272556
    3      C       1.0586067917     0.3538547740     0.2495013127
    4      C      -1.5608164714    -0.6652458393     0.0538219400
    5      H      -1.1174780576     1.1140324516    -1.1547676335
    6      H      -1.3780291216     1.4483952804     0.6139993886
    7      H       0.9758524682     1.3022214457     0.8918073205
    8      H       1.2156934657     0.9518731309    -0.7191694447
    9      H      -2.2618724211    -0.8039115820     0.8829674590
   10      H      -1.9735845382    -1.1416982658    -0.8410551698
   11      H      -0.6793936902    -1.3530239155     0.3382240112
 ----------------------------------------------------------------

   10    -576.8002680115      4.46e-07  Convergence criterion met
 Total energy in the final basis set =     -576.8002680115

                    Orbital Energies (a.u.)
 --------------------------------------------------------------

 Alpha MOs
 -- Occupied --
******* -10.350 -10.166 -10.140  -9.603  -7.379  -7.336  -7.333
 -1.130  -0.733  -0.665  -0.637  -0.604  -0.557  -0.498  -0.422
 -0.376  -0.352  -0.326  -0.215  -0.156

 Beta MOs
 -- Occupied --
******* -10.350 -10.166 -10.140  -9.603  -7.379  -7.336  -7.333
 -1.130  -0.733  -0.665  -0.637  -0.604  -0.557  -0.498  -0.422
 -0.376  -0.352  -0.326  -0.215  -0.156

          Ground-State Mulliken Net Atomic Charges

     Atom                 Charge (a.u.)    Spin (a.u.)
  --------------------------------------------------------
      1 Cl                    0.655928      -0.000000
      2 C                    -0.323709       0.000000
      3 C                    -0.546358       0.000000
      4 C                    -0.324486      -0.000000
      5 H                     0.085559       0.000000
      6 H                     0.085119       0.000000
      7 H                     0.057502       0.000000
      8 H                     0.056532       0.000000
      9 H                     0.110065      -0.000000
     10 H                     0.109905       0.000000
     11 H                     0.033942      -0.000000
  --------------------------------------------------------
  Sum of atomic charges =    -0.000000

                    Cartesian Multipole Moments
 -----------------------------------------------------------------
    Charge (ESU x 10^10)
                -0.0000
    Dipole Moment (Debye)
         X       1.7134      Y      -0.2986      Z       0.3190
       Tot       1.7683
    Quadrupole Moments (Debye-Ang)
        XX     -31.6961     XY       0.9513     YY     -33.9202
        XZ       0.0400     YZ       0.6326     ZZ     -31.4041

 Final energy is   -576.800268011515
 **  OPTIMIZATION CONVERGED  **
 Total job time:  266.70s(wall), 2816.93s(cpu)
        *  Thank you very much for using Q-Chem.  Have a nice day.  *
