 Q-Chem 5.1, Q-Chem, Inc., Pleasanton, CA (2018)
 Q-Chem 5.1.1 for Intel X86 EM64T Linux

User input:
--------------------------------------------------------------

$comment
potential surface scanner
$end

$rem
JOBTYPE  PES_SCAN
UNRESTRICTED TRUE
SYM_IGNORE  TRUE
GEOM_OPT_MAX_CYCLES 400
SCF_MAX_CYCLES 400
METHOD   B3LYP
BASIS   6-31G**
PDB_PRINT 2
SCF_CONVERGENCE 6
THRESH 14
SCF_PRINT 1
$end
$molecule
0 3
Cl 2.349607 -2.596196 -0.514114
C -0.982776 0.812766 -0.256785
C 0.267454 1.285898 0.404571
C -1.400838 -0.601758 0.166429
H -0.865904 0.856096 -1.348621
H -1.814277 1.507216 -0.033285
H 0.513580 0.965306 1.412698
H 0.863325 2.082312 -0.028949
H -1.552942 -0.656387 1.250298
H -2.334086 -0.903751 -0.319218
H -0.627542 -1.329900 -0.098325
$end
$scan
stre 1 3 4.400000 4.401000 0.100000
$end
--------------------------------------------------------------

   27    -578.6176434409      2.55e-07  Convergence criterion met
 Total energy in the final basis set =     -578.6176434409
   24    -578.6175646883      6.75e-07  Convergence criterion met
 Total energy in the final basis set =     -578.6175646883
   24    -578.6175779826      9.38e-07  Convergence criterion met
 Total energy in the final basis set =     -578.6175779826
   24    -578.6176035690      9.81e-07  Convergence criterion met
 Total energy in the final basis set =     -578.6176035690
   26    -578.6176060494      3.02e-07  Convergence criterion met
 Total energy in the final basis set =     -578.6176060494
   26    -578.6176138583      2.38e-07  Convergence criterion met
 Total energy in the final basis set =     -578.6176138583
   25    -578.6176160372      9.77e-07  Convergence criterion met
 Total energy in the final basis set =     -578.6176160372
   26    -578.6176194286      2.22e-07  Convergence criterion met
 Total energy in the final basis set =     -578.6176194286
   34    -578.6176219492      1.94e-07  Convergence criterion met
 Total energy in the final basis set =     -578.6176219492
   34    -578.6176243645      5.24e-07  Convergence criterion met
 Total energy in the final basis set =     -578.6176243645
   35    -578.6176255978      2.61e-07  Convergence criterion met
 Total energy in the final basis set =     -578.6176255978

             Standard Nuclear Orientation (Angstroms)
    I     Atom           X                Y                Z
 ----------------------------------------------------------------
    1      Cl      2.4114623872    -2.4881544458    -0.5092070852
    2      C      -0.9785218432     0.8038122073    -0.2595937738
    3      C       0.2814858229     1.2531561141     0.3995258473
    4      C      -1.4298449892    -0.5988131483     0.1717076392
    5      H      -0.8619360936     0.8390684369    -1.3515486508
    6      H      -1.7934133919     1.5196127312    -0.0400553145
    7      H       0.5190183251     0.9339516484     1.4099983863
    8      H       0.8974398176     2.0309345131    -0.0398081318
    9      H      -1.5736954761    -0.6462855895     1.2568438954
   10      H      -2.3763514186    -0.8765397344    -0.3030987046
   11      H      -0.6800421403    -1.3491407330    -0.1000651076
 ----------------------------------------------------------------

   34    -578.6176264037      9.81e-07  Convergence criterion met
 Total energy in the final basis set =     -578.6176264037

                    Orbital Energies (a.u.)
 --------------------------------------------------------------

 Alpha MOs
 -- Occupied --
******* -10.185 -10.183 -10.173  -9.509  -7.284  -7.261  -7.261
 -0.843  -0.778  -0.670  -0.578  -0.450  -0.436  -0.406  -0.402
 -0.357  -0.351  -0.350  -0.346  -0.338  -0.194

 Beta MOs
 -- Occupied --
******* -10.186 -10.173 -10.169  -9.503  -7.263  -7.257  -7.257
 -0.790  -0.769  -0.653  -0.563  -0.444  -0.429  -0.396  -0.349
 -0.343  -0.336  -0.334  -0.332

          Ground-State Mulliken Net Atomic Charges

     Atom                 Charge (a.u.)    Spin (a.u.)
  --------------------------------------------------------
      1 Cl                    0.000486       0.999895
      2 C                    -0.182931      -0.075928
      3 C                    -0.217942       1.079854
      4 C                    -0.318791       0.012936
      5 H                     0.103307       0.017067
      6 H                     0.106272       0.060504
      7 H                     0.098268      -0.047825
      8 H                     0.096368      -0.048110
      9 H                     0.103242      -0.000836
     10 H                     0.099465       0.001471
     11 H                     0.112255       0.000973
  --------------------------------------------------------
  Sum of atomic charges =    -0.000000

                    Cartesian Multipole Moments
 -----------------------------------------------------------------
    Charge (ESU x 10^10)
                 0.0000
    Dipole Moment (Debye)
         X      -0.2151      Y       0.0522      Z      -0.0751
       Tot       0.2338
    Quadrupole Moments (Debye-Ang)
        XX     -32.8278     XY       0.6298     YY     -33.5009
        XZ      -0.6960     YZ      -1.0246     ZZ     -32.2314

 Final energy is   -578.617626403709
 **  OPTIMIZATION CONVERGED  **
 Total job time:  82.02s(wall), 857.74s(cpu)
        *  Thank you very much for using Q-Chem.  Have a nice day.  *
