 Q-Chem 5.1, Q-Chem, Inc., Pleasanton, CA (2018)
 Q-Chem 5.1.1 for Intel X86 EM64T Linux

User input:
--------------------------------------------------------------

$comment
potential surface scanner
$end

$rem
JOBTYPE  PES_SCAN
UNRESTRICTED TRUE
SYM_IGNORE  TRUE
GEOM_OPT_MAX_CYCLES 400
SCF_MAX_CYCLES 400
METHOD   B3LYP
BASIS   6-31G**
PDB_PRINT 2
SCF_CONVERGENCE 6
THRESH 14
SCF_PRINT 1
$end
$molecule
0 1
Cl 1.759445 -0.576646 -0.207865
C -0.787170 0.556755 -0.324447
C 0.595837 0.741625 0.285548
C -1.534253 -0.685854 0.163299
H -0.697481 0.544007 -1.416574
H -1.360732 1.459349 -0.069835
H 0.565226 0.717231 1.377000
H 1.057152 1.675548 -0.038205
H -1.660479 -0.669448 1.251751
H -2.529632 -0.742170 -0.287655
H -0.992314 -1.598796 -0.098317
$end
$scan
stre 1 3 3.100000 3.101000 0.100000
$end
--------------------------------------------------------------

    9    -578.7495578000      3.58e-07  Convergence criterion met
 Total energy in the final basis set =     -578.7495578000
    9    -578.7435169914      4.18e-07  Convergence criterion met
 Total energy in the final basis set =     -578.7435169914
    9    -578.7315821041      4.88e-07  Convergence criterion met
 Total energy in the final basis set =     -578.7315821041
    9    -578.7188383402      5.82e-07  Convergence criterion met
 Total energy in the final basis set =     -578.7188383402
    9    -578.7070916918      7.12e-07  Convergence criterion met
 Total energy in the final basis set =     -578.7070916918
    9    -578.6961919782      9.97e-07  Convergence criterion met
 Total energy in the final basis set =     -578.6961919782
   10    -578.6857803592      4.49e-07  Convergence criterion met
 Total energy in the final basis set =     -578.6857803592
   10    -578.6759398299      9.68e-07  Convergence criterion met
   11    -578.6580953068      3.38e-07  Convergence criterion met
 Total energy in the final basis set =     -578.6580953068
   11    -578.6581003124      3.40e-07  Convergence criterion met
 Total energy in the final basis set =     -578.6581003124
   11    -578.6581060107      3.41e-07  Convergence criterion met
 Total energy in the final basis set =     -578.6581060107
   11    -578.6581113810      3.42e-07  Convergence criterion met
 Total energy in the final basis set =     -578.6581113810
   11    -578.6581152098      3.43e-07  Convergence criterion met
 Total energy in the final basis set =     -578.6581152098
   11    -578.6581167286      3.43e-07  Convergence criterion met
 Total energy in the final basis set =     -578.6581167286

             Standard Nuclear Orientation (Angstroms)
    I     Atom           X                Y                Z
 ----------------------------------------------------------------
    1      Cl      2.1096344268    -1.4058450976    -0.2455973247
    2      C      -0.9018321401     0.6768175136    -0.2929537058
    3      C       0.3418313959     1.0663003842     0.3654420355
    4      C      -1.4712220657    -0.6801141759     0.1420522046
    5      H      -0.8045340370     0.7581152725    -1.3798193050
    6      H      -1.6145238388     1.4821516540    -0.0000115505
    7      H       0.5063618841     0.8404519510     1.4149030885
    8      H       1.0586235914     1.7253265812    -0.1134633939
    9      H      -1.6050702193    -0.7251055438     1.2271784005
   10      H      -2.4394221226    -0.8553186832    -0.3330614043
   11      H      -0.7642478748    -1.4611788559    -0.1499690448
 ----------------------------------------------------------------

   11    -578.6581172237      3.43e-07  Convergence criterion met
 Total energy in the final basis set =     -578.6581172237

                    Orbital Energies (a.u.)
 --------------------------------------------------------------

 Alpha MOs
 -- Occupied --
******* -10.311 -10.246 -10.204  -9.380  -7.143  -7.135  -7.135
 -0.847  -0.724  -0.704  -0.634  -0.522  -0.488  -0.466  -0.405
 -0.393  -0.384  -0.256  -0.240  -0.239

 Beta MOs
 -- Occupied --
******* -10.311 -10.246 -10.204  -9.380  -7.143  -7.135  -7.135
 -0.847  -0.724  -0.704  -0.634  -0.522  -0.488  -0.466  -0.405
 -0.393  -0.384  -0.256  -0.240  -0.239

          Ground-State Mulliken Net Atomic Charges

     Atom                 Charge (a.u.)    Spin (a.u.)
  --------------------------------------------------------
      1 Cl                   -0.496438       0.000000
      2 C                    -0.230744      -0.000000
      3 C                    -0.065546       0.000000
      4 C                    -0.323561       0.000000
      5 H                     0.162871       0.000000
      6 H                     0.156934       0.000000
      7 H                     0.189176      -0.000000
      8 H                     0.188097      -0.000000
      9 H                     0.116385       0.000000
     10 H                     0.117946      -0.000000
     11 H                     0.184880      -0.000000
  --------------------------------------------------------
  Sum of atomic charges =    -0.000000

                    Cartesian Multipole Moments
 -----------------------------------------------------------------
    Charge (ESU x 10^10)
                -0.0000
    Dipole Moment (Debye)
         X      -5.0409      Y       5.1347      Z       0.9899
       Tot       7.2633
    Quadrupole Moments (Debye-Ang)
        XX     -41.2834     XY       6.8114     YY     -33.8899
        XZ       1.5324     YZ      -0.1375     ZZ     -32.2007

 Final energy is   -578.658117223722
 **  OPTIMIZATION CONVERGED  **
 Total job time:  94.21s(wall), 1016.40s(cpu)
        *  Thank you very much for using Q-Chem.  Have a nice day.  *
