 Q-Chem 5.1, Q-Chem, Inc., Pleasanton, CA (2018)
 Q-Chem 5.1.1 for Intel X86 EM64T Linux

User input:
--------------------------------------------------------------

$comment
potential surface scanner
$end

$rem
JOBTYPE  PES_SCAN
UNRESTRICTED TRUE
SYM_IGNORE  TRUE
GEOM_OPT_MAX_CYCLES 400
SCF_MAX_CYCLES 400
METHOD   B3LYP
BASIS   6-31G**
PDB_PRINT 2
SCF_CONVERGENCE 6
THRESH 14
SCF_PRINT 1
$end
$molecule
0 3
Cl 2.319059 -1.099540 -0.375848
C -0.882599 0.657301 -0.302205
C 0.459804 0.877878 0.311896
C -1.601760 -0.593410 0.220955
H -0.787644 0.599057 -1.395960
H -1.530180 1.536219 -0.122538
H 0.639990 0.595025 1.345674
H 1.153600 1.592364 -0.122025
H -1.723726 -0.547866 1.309074
H -2.597678 -0.695703 -0.221841
H -1.033265 -1.499727 -0.012492
$end
$scan
stre 1 3 2.700000 2.701000 0.100000
$end
--------------------------------------------------------------

   11    -578.6092158869      6.87e-07  Convergence criterion met
 Total energy in the final basis set =     -578.6092158869
   22    -578.6061191436      9.89e-07  Convergence criterion met
 Total energy in the final basis set =     -578.6061191436
   39    -578.6061746770      9.27e-07  Convergence criterion met
 Total energy in the final basis set =     -578.6061746770
   11    -578.6061949943      9.13e-07  Convergence criterion met
 Total energy in the final basis set =     -578.6061949943
   11    -578.6062059402      9.23e-07  Convergence criterion met
 Total energy in the final basis set =     -578.6062059402
   12    -578.6062107418      8.89e-07  Convergence criterion met
 Total energy in the final basis set =     -578.6062107418
   12    -578.6062124939      9.67e-07  Convergence criterion met
 Total energy in the final basis set =     -578.6062124939
   39    -578.6061824376      7.52e-08  Convergence criterion met
 Total energy in the final basis set =     -578.6061824376
   13    -578.6062144972      9.97e-07  Convergence criterion met
 Total energy in the final basis set =     -578.6062144972
   46    -578.6061917590      4.92e-07  Convergence criterion met
 Total energy in the final basis set =     -578.6061917590
   51    -578.6061929563      3.61e-07  Convergence criterion met
 Total energy in the final basis set =     -578.6061929563
   38    -578.6061943895      3.89e-07  Convergence criterion met
 Total energy in the final basis set =     -578.6061943895
   12    -578.6062140078      9.48e-07  Convergence criterion met
 Total energy in the final basis set =     -578.6062140078

             Standard Nuclear Orientation (Angstroms)
    I     Atom           X                Y                Z
 ----------------------------------------------------------------
    1      Cl      2.2414303217    -1.0538350467    -0.3838671843
    2      C      -0.8697813500     0.6482894303    -0.3052588559
    3      C       0.4733478365     0.8648503784     0.3107780960
    4      C      -1.5964913532    -0.5961398435     0.2218929584
    5      H      -0.7723875654     0.5832917419    -1.3986042391
    6      H      -1.5132889542     1.5312824058    -0.1320799651
    7      H       0.6421899562     0.5929175488     1.3501662346
    8      H       1.1563154453     1.5984844521    -0.1089392125
    9      H      -1.7210980595    -0.5450643983     1.3095120651
   10      H      -2.5918899106    -0.6955574088    -0.2227694865
   11      H      -1.0327453668    -1.5069212598    -0.0061404107
 ----------------------------------------------------------------

   12    -578.6062149018      9.60e-07  Convergence criterion met
 Total energy in the final basis set =     -578.6062149018

                    Orbital Energies (a.u.)
 --------------------------------------------------------------

 Alpha MOs
 -- Occupied --
******* -10.183 -10.177 -10.173  -9.503  -7.278  -7.255  -7.255
 -0.842  -0.776  -0.670  -0.577  -0.448  -0.437  -0.406  -0.397
 -0.362  -0.349  -0.347  -0.340  -0.336  -0.178

 Beta MOs
 -- Occupied --
******* -10.184 -10.172 -10.162  -9.496  -7.256  -7.250  -7.250
 -0.787  -0.766  -0.652  -0.562  -0.441  -0.430  -0.395  -0.348
 -0.342  -0.335  -0.329  -0.324

          Ground-State Mulliken Net Atomic Charges

     Atom                 Charge (a.u.)    Spin (a.u.)
  --------------------------------------------------------
      1 Cl                    0.016928       1.022572
      2 C                    -0.173695      -0.070626
      3 C                    -0.229564       1.041177
      4 C                    -0.317438       0.010319
      5 H                     0.099429       0.019726
      6 H                     0.102328       0.057977
      7 H                     0.096752      -0.040338
      8 H                     0.094355      -0.040623
      9 H                     0.102713      -0.000641
     10 H                     0.099752      -0.000304
     11 H                     0.108440       0.000762
  --------------------------------------------------------
  Sum of atomic charges =    -0.000000

                    Cartesian Multipole Moments
 -----------------------------------------------------------------
    Charge (ESU x 10^10)
                -0.0000
    Dipole Moment (Debye)
         X      -0.1926      Y       0.1213      Z      -0.0296
       Tot       0.2295
    Quadrupole Moments (Debye-Ang)
        XX     -33.7072     XY       0.6476     YY     -33.4660
        XZ      -0.2082     YZ      -1.2740     ZZ     -32.0292

 Final energy is   -578.606214901755
 **  OPTIMIZATION CONVERGED  **
 Total job time:  78.86s(wall), 887.83s(cpu)
        *  Thank you very much for using Q-Chem.  Have a nice day.  *
