 Q-Chem 5.1, Q-Chem, Inc., Pleasanton, CA (2018)
 Q-Chem 5.1.1 for Intel X86 EM64T Linux

User input:
--------------------------------------------------------------

$comment
potential surface scanner
$end

$rem
JOBTYPE  PES_SCAN
UNRESTRICTED TRUE
SYM_IGNORE  TRUE
GEOM_OPT_MAX_CYCLES 400
SCF_MAX_CYCLES 400
METHOD   B3LYP
BASIS   6-31G**
PDB_PRINT 2
SCF_CONVERGENCE 6
THRESH 14
SCF_PRINT 1
$end
$molecule
0 1
Cl 1.759445 -0.576646 -0.207865
C -0.787170 0.556755 -0.324447
C 0.595837 0.741625 0.285548
C -1.534253 -0.685854 0.163299
H -0.697481 0.544007 -1.416574
H -1.360732 1.459349 -0.069835
H 0.565226 0.717231 1.377000
H 1.057152 1.675548 -0.038205
H -1.660479 -0.669448 1.251751
H -2.529632 -0.742170 -0.287655
H -0.992314 -1.598796 -0.098317
$end
$scan
stre 1 3 3.400000 3.401000 0.100000
$end
--------------------------------------------------------------

    9    -578.7495578000      3.58e-07  Convergence criterion met
 Total energy in the final basis set =     -578.7495578000
    9    -578.7435169914      4.18e-07  Convergence criterion met
 Total energy in the final basis set =     -578.7435169914
    9    -578.7315821041      4.88e-07  Convergence criterion met
 Total energy in the final basis set =     -578.7315821041
    9    -578.7188383402      5.82e-07  Convergence criterion met
 Total energy in the final basis set =     -578.7188383402
    9    -578.7070916918      7.12e-07  Convergence criterion met
 Total energy in the final basis set =     -578.7070916918
    9    -578.6961919782      9.97e-07  Convergence criterion met
 Total energy in the final basis set =     -578.6961919782
   10    -578.6857803592      4.49e-07  Convergence criterion met
 Total energy in the final basis set =     -578.6857803592
   10    -578.6759398299      9.68e-07  Convergence criterion met
   11    -578.6424858595      5.98e-07  Convergence criterion met
 Total energy in the final basis set =     -578.6424858595
   11    -578.6424885627      5.89e-07  Convergence criterion met
 Total energy in the final basis set =     -578.6424885627
   11    -578.6424912951      5.78e-07  Convergence criterion met
 Total energy in the final basis set =     -578.6424912951
   11    -578.6424944089      5.65e-07  Convergence criterion met
 Total energy in the final basis set =     -578.6424944089
   11    -578.6424972691      5.54e-07  Convergence criterion met
 Total energy in the final basis set =     -578.6424972691
   11    -578.6424991679      5.48e-07  Convergence criterion met
 Total energy in the final basis set =     -578.6424991679

             Standard Nuclear Orientation (Angstroms)
    I     Atom           X                Y                Z
 ----------------------------------------------------------------
    1      Cl      2.1468196950    -1.6411152781    -0.2718681020
    2      C      -0.9184055892     0.7036052560    -0.2857824365
    3      C       0.2998916226     1.1373658824     0.3830362858
    4      C      -1.4368765781    -0.6824711916     0.1314476753
    5      H      -0.8248424309     0.8074880323    -1.3710077407
    6      H      -1.6707694994     1.4687578108     0.0213962123
    7      H       0.4712484515     0.8981380704     1.4289642085
    8      H       1.0187895153     1.7925749186    -0.0992390406
    9      H      -1.5661030728    -0.7472293684     1.2159109067
   10      H      -2.4005197743    -0.8806624770    -0.3438984024
   11      H      -0.7036333397    -1.4348506555    -0.1742595663
 ----------------------------------------------------------------

   11    -578.6425000622      5.45e-07  Convergence criterion met
 Total energy in the final basis set =     -578.6425000622

                    Orbital Energies (a.u.)
 --------------------------------------------------------------

 Alpha MOs
 -- Occupied --
******* -10.316 -10.252 -10.208  -9.372  -7.135  -7.128  -7.128
 -0.852  -0.728  -0.697  -0.638  -0.529  -0.492  -0.470  -0.409
 -0.397  -0.387  -0.245  -0.233  -0.233

 Beta MOs
 -- Occupied --
******* -10.316 -10.252 -10.208  -9.372  -7.135  -7.128  -7.128
 -0.852  -0.728  -0.697  -0.638  -0.529  -0.492  -0.470  -0.409
 -0.397  -0.387  -0.245  -0.233  -0.233

          Ground-State Mulliken Net Atomic Charges

     Atom                 Charge (a.u.)    Spin (a.u.)
  --------------------------------------------------------
      1 Cl                   -0.512003       0.000000
      2 C                    -0.236588      -0.000000
      3 C                    -0.064039      -0.000000
      4 C                    -0.325027      -0.000000
      5 H                     0.164842      -0.000000
      6 H                     0.163733      -0.000000
      7 H                     0.190448       0.000000
      8 H                     0.188958       0.000000
      9 H                     0.118576       0.000000
     10 H                     0.119973       0.000000
     11 H                     0.191128       0.000000
  --------------------------------------------------------
  Sum of atomic charges =    -0.000000

                    Cartesian Multipole Moments
 -----------------------------------------------------------------
    Charge (ESU x 10^10)
                 0.0000
    Dipole Moment (Debye)
         X      -5.4279      Y       5.9146      Z       1.0961
       Tot       8.1022
    Quadrupole Moments (Debye-Ang)
        XX     -41.8767     XY       8.2911     YY     -35.3547
        XZ       1.7125     YZ      -0.3421     ZZ     -32.1934

 Final energy is   -578.642500062172
 **  OPTIMIZATION CONVERGED  **
 Total job time:  106.36s(wall), 1157.40s(cpu)
        *  Thank you very much for using Q-Chem.  Have a nice day.  *
