 Q-Chem 5.1, Q-Chem, Inc., Pleasanton, CA (2018)
 Q-Chem 5.1.1 for Intel X86 EM64T Linux

User input:
--------------------------------------------------------------

$comment
potential surface scanner
$end

$rem
JOBTYPE  PES_SCAN
UNRESTRICTED TRUE
SYM_IGNORE  TRUE
GEOM_OPT_MAX_CYCLES 400
SCF_MAX_CYCLES 400
METHOD   B3LYP
BASIS   6-31G**
PDB_PRINT 2
SCF_CONVERGENCE 6
THRESH 14
SCF_PRINT 1
$end
$molecule
0 3
Cl 2.338290 0.009362 -0.913023
C -0.754775 0.463215 -0.319368
C 0.530593 0.479439 0.429088
C -1.757997 -0.537897 0.281973
H -0.565654 0.221726 -1.372188
H -1.213847 1.468255 -0.316459
H 0.516464 0.557339 1.520340
H 1.362213 1.130782 0.026624
H -1.978875 -0.298635 1.327421
H -2.699682 -0.515664 -0.274558
H -1.361131 -1.556323 0.244843
$end
$scan
stre 1 3 2.200000 2.201000 0.100000
$end
--------------------------------------------------------------

   11    -578.5930199451      7.88e-07  Convergence criterion met
 Total energy in the final basis set =     -578.5930199451
   11    -578.5821979560      7.42e-07  Convergence criterion met
 Total energy in the final basis set =     -578.5821979560
   11    -578.5822901388      7.02e-07  Convergence criterion met
 Total energy in the final basis set =     -578.5822901388
   11    -578.5824490634      7.05e-07  Convergence criterion met
 Total energy in the final basis set =     -578.5824490634
   11    -578.5825074010      7.40e-07  Convergence criterion met
 Total energy in the final basis set =     -578.5825074010
   11    -578.5825473601      8.04e-07  Convergence criterion met
 Total energy in the final basis set =     -578.5825473601
   11    -578.5825569699      8.40e-07  Convergence criterion met
 Total energy in the final basis set =     -578.5825569699
   11    -578.5825605478      8.60e-07  Convergence criterion met
   11    -578.5825658066      8.92e-07  Convergence criterion met
 Total energy in the final basis set =     -578.5825658066
   11    -578.5825673088      8.99e-07  Convergence criterion met
 Total energy in the final basis set =     -578.5825673088
   11    -578.5825689735      9.04e-07  Convergence criterion met
 Total energy in the final basis set =     -578.5825689735
   11    -578.5825714879      9.08e-07  Convergence criterion met
 Total energy in the final basis set =     -578.5825714879
   11    -578.5825744159      9.10e-07  Convergence criterion met
 Total energy in the final basis set =     -578.5825744159
   11    -578.5825763610      9.11e-07  Convergence criterion met
 Total energy in the final basis set =     -578.5825763610

             Standard Nuclear Orientation (Angstroms)
    I     Atom           X                Y                Z
 ----------------------------------------------------------------
    1      Cl      2.2938260415    -0.0837249192    -0.8071694007
    2      C      -0.7589754350     0.4795612556    -0.3240521679
    3      C       0.5431188069     0.4807214885     0.3996553887
    4      C      -1.7415482362    -0.5430398959     0.2765105854
    5      H      -0.5901981084     0.2589432428    -1.3855002711
    6      H      -1.2276400362     1.4795690182    -0.2918451146
    7      H       0.5322845770     0.5702058982     1.4911198007
    8      H       1.3377133036     1.1815387898    -0.0046748881
    9      H      -1.9452188261    -0.3256358508     1.3301640708
   10      H      -2.6933883556    -0.5204385873    -0.2625178923
   11      H      -1.3343747314    -1.5561014400     0.2130028892
 ----------------------------------------------------------------

   11    -578.5825768406      9.12e-07  Convergence criterion met
 Total energy in the final basis set =     -578.5825768406

                    Orbital Energies (a.u.)
 --------------------------------------------------------------

 Alpha MOs
 -- Occupied --
******* -10.219 -10.201 -10.188  -9.459  -7.229  -7.213  -7.211
 -0.841  -0.789  -0.693  -0.602  -0.494  -0.464  -0.424  -0.388
 -0.375  -0.359  -0.338  -0.316  -0.298  -0.184

 Beta MOs
 -- Occupied --
******* -10.202 -10.201 -10.188  -9.453  -7.211  -7.207  -7.207
 -0.805  -0.770  -0.668  -0.582  -0.466  -0.453  -0.415  -0.370
 -0.365  -0.353  -0.311  -0.301

          Ground-State Mulliken Net Atomic Charges

     Atom                 Charge (a.u.)    Spin (a.u.)
  --------------------------------------------------------
      1 Cl                   -0.108218       0.809262
      2 C                    -0.177264      -0.049866
      3 C                    -0.259813       1.102525
      4 C                    -0.317405       0.025141
      5 H                     0.122609       0.016187
      6 H                     0.113871       0.055036
      7 H                     0.120679      -0.007216
      8 H                     0.160650       0.044216
      9 H                     0.109799      -0.001239
     10 H                     0.111391       0.005003
     11 H                     0.123700       0.000951
  --------------------------------------------------------
  Sum of atomic charges =    -0.000000

                    Cartesian Multipole Moments
 -----------------------------------------------------------------
    Charge (ESU x 10^10)
                 0.0000
    Dipole Moment (Debye)
         X      -1.9032      Y       0.8133      Z       0.7700
       Tot       2.2083
    Quadrupole Moments (Debye-Ang)
        XX     -36.9480     XY       0.5743     YY     -32.1676
        XZ       1.6567     YZ       0.5131     ZZ     -33.3830

 Final energy is   -578.582576840637
 **  OPTIMIZATION CONVERGED  **
 Total job time:  57.15s(wall), 605.23s(cpu)
        *  Thank you very much for using Q-Chem.  Have a nice day.  *
