 Q-Chem 5.1, Q-Chem, Inc., Pleasanton, CA (2018)
 Q-Chem 5.1.1 for Intel X86 EM64T Linux

User input:
--------------------------------------------------------------

$comment
potential surface scanner
$end

$rem
JOBTYPE  PES_SCAN
UNRESTRICTED TRUE
SYM_IGNORE  TRUE
GEOM_OPT_MAX_CYCLES 400
SCF_MAX_CYCLES 400
METHOD   B3LYP
BASIS   6-31G**
PDB_PRINT 2
SCF_CONVERGENCE 6
THRESH 14
SCF_PRINT 1
$end
$molecule
0 1
Cl 1.759445 -0.576646 -0.207865
C -0.787170 0.556755 -0.324447
C 0.595837 0.741625 0.285548
C -1.534253 -0.685854 0.163299
H -0.697481 0.544007 -1.416574
H -1.360732 1.459349 -0.069835
H 0.565226 0.717231 1.377000
H 1.057152 1.675548 -0.038205
H -1.660479 -0.669448 1.251751
H -2.529632 -0.742170 -0.287655
H -0.992314 -1.598796 -0.098317
$end
$scan
stre 1 3 3.000000 3.001000 0.100000
$end
--------------------------------------------------------------

    9    -578.7495578000      3.58e-07  Convergence criterion met
 Total energy in the final basis set =     -578.7495578000
    9    -578.7435169914      4.18e-07  Convergence criterion met
 Total energy in the final basis set =     -578.7435169914
    9    -578.7315821041      4.88e-07  Convergence criterion met
 Total energy in the final basis set =     -578.7315821041
    9    -578.7188383402      5.82e-07  Convergence criterion met
 Total energy in the final basis set =     -578.7188383402
    9    -578.7070916918      7.12e-07  Convergence criterion met
 Total energy in the final basis set =     -578.7070916918
    9    -578.6961919782      9.97e-07  Convergence criterion met
 Total energy in the final basis set =     -578.6961919782
   10    -578.6857803592      4.49e-07  Convergence criterion met
 Total energy in the final basis set =     -578.6857803592
   10    -578.6759398299      9.68e-07  Convergence criterion met
   11    -578.6641648698      3.19e-07  Convergence criterion met
 Total energy in the final basis set =     -578.6641648698
   11    -578.6641700993      3.20e-07  Convergence criterion met
 Total energy in the final basis set =     -578.6641700993
   11    -578.6641736284      3.21e-07  Convergence criterion met
 Total energy in the final basis set =     -578.6641736284
   11    -578.6641757825      3.20e-07  Convergence criterion met
 Total energy in the final basis set =     -578.6641757825
   11    -578.6641772380      3.19e-07  Convergence criterion met
 Total energy in the final basis set =     -578.6641772380
   11    -578.6641783205      3.18e-07  Convergence criterion met
 Total energy in the final basis set =     -578.6641783205

             Standard Nuclear Orientation (Angstroms)
    I     Atom           X                Y                Z
 ----------------------------------------------------------------
    1      Cl      2.1045560087    -1.3180686121    -0.2560190466
    2      C      -0.8940870418     0.6646622760    -0.2958335526
    3      C       0.3562736021     1.0400294365     0.3627557241
    4      C      -1.4849869863    -0.6782361003     0.1488863737
    5      H      -0.7894555176     0.7320160344    -1.3831764035
    6      H      -1.5917840246     1.4864920025    -0.0174461474
    7      H       0.5187251077     0.8107425722     1.4115020183
    8      H       1.0644885447     1.7137777590    -0.1079211196
    9      H      -1.6262113322    -0.7109850451     1.2336592157
   10      H      -2.4528381593    -0.8460615170    -0.3298256675
   11      H      -0.7890812014    -1.4727678060    -0.1318813946
 ----------------------------------------------------------------

   11    -578.6641790999      3.18e-07  Convergence criterion met
 Total energy in the final basis set =     -578.6641790999

                    Orbital Energies (a.u.)
 --------------------------------------------------------------

 Alpha MOs
 -- Occupied --
******* -10.309 -10.244 -10.203  -9.383  -7.146  -7.138  -7.138
 -0.844  -0.723  -0.707  -0.632  -0.519  -0.486  -0.464  -0.403
 -0.392  -0.383  -0.261  -0.243  -0.242

 Beta MOs
 -- Occupied --
******* -10.309 -10.244 -10.203  -9.383  -7.146  -7.138  -7.138
 -0.844  -0.723  -0.707  -0.632  -0.519  -0.486  -0.464  -0.403
 -0.392  -0.383  -0.261  -0.243  -0.242

          Ground-State Mulliken Net Atomic Charges

     Atom                 Charge (a.u.)    Spin (a.u.)
  --------------------------------------------------------
      1 Cl                   -0.487365       0.000000
      2 C                    -0.227754       0.000000
      3 C                    -0.068456      -0.000000
      4 C                    -0.323835      -0.000000
      5 H                     0.162781       0.000000
      6 H                     0.154281      -0.000000
      7 H                     0.188583      -0.000000
      8 H                     0.187238       0.000000
      9 H                     0.115342       0.000000
     10 H                     0.117394       0.000000
     11 H                     0.181792      -0.000000
  --------------------------------------------------------
  Sum of atomic charges =    -0.000000

                    Cartesian Multipole Moments
 -----------------------------------------------------------------
    Charge (ESU x 10^10)
                -0.0000
    Dipole Moment (Debye)
         X      -4.9004      Y       4.8354      Z       0.9931
       Tot       6.9557
    Quadrupole Moments (Debye-Ang)
        XX     -41.1253     XY       6.2872     YY     -33.4398
        XZ       1.5674     YZ      -0.1272     ZZ     -32.2195

 Final energy is   -578.664179099879
 **  OPTIMIZATION CONVERGED  **
 Total job time:  91.27s(wall), 947.57s(cpu)
        *  Thank you very much for using Q-Chem.  Have a nice day.  *
