 Q-Chem 5.1, Q-Chem, Inc., Pleasanton, CA (2018)
 Q-Chem 5.1.1 for Intel X86 EM64T Linux

User input:
--------------------------------------------------------------

$comment
potential surface scanner
$end

$rem
JOBTYPE  PES_SCAN
UNRESTRICTED TRUE
SYM_IGNORE  TRUE
GEOM_OPT_MAX_CYCLES 400
SCF_MAX_CYCLES 400
METHOD   B3LYP
BASIS   6-31G**
PDB_PRINT 2
SCF_CONVERGENCE 6
THRESH 14
SCF_PRINT 1
$end
$molecule
0 3
Cl 2.479278 -2.255609 -0.587974
C -0.955217 0.772384 -0.271093
C 0.302620 1.195047 0.409592
C -1.480080 -0.592930 0.195011
H -0.804264 0.762242 -1.359465
H -1.745745 1.527467 -0.102138
H 0.489238 0.919490 1.443494
H 0.971279 1.918052 -0.045667
H -1.631314 -0.602401 1.280391
H -2.438274 -0.830751 -0.277824
H -0.771921 -1.391387 -0.049628
$end
$scan
stre 1 3 4.100000 4.101000 0.100000
$end
--------------------------------------------------------------

   29    -578.6176951373      1.02e-07  Convergence criterion met
 Total energy in the final basis set =     -578.6176951373
   11    -578.6176809501      5.30e-07  Convergence criterion met
 Total energy in the final basis set =     -578.6176809501
   11    -578.6176902382      5.06e-07  Convergence criterion met
 Total energy in the final basis set =     -578.6176902382
   11    -578.6177076714      4.61e-07  Convergence criterion met
 Total energy in the final basis set =     -578.6177076714
   11    -578.6177086342      4.58e-07  Convergence criterion met
 Total energy in the final basis set =     -578.6177086342
   11    -578.6177112185      4.51e-07  Convergence criterion met
 Total energy in the final basis set =     -578.6177112185

             Standard Nuclear Orientation (Angstroms)
    I     Atom           X                Y                Z
 ----------------------------------------------------------------
    1      Cl      2.4722007939    -2.1749886420    -0.5704676343
    2      C      -0.9517122133     0.7661417429    -0.2720757343
    3      C       0.3148099767     1.1731084438     0.4021120575
    4      C      -1.4902339870    -0.5930918594     0.1961855391
    5      H      -0.8067494253     0.7551242821    -1.3612908145
    6      H      -1.7322843045     1.5304872442    -0.0984901010
    7      H       0.5035454808     0.8941083516     1.4346824024
    8      H       0.9879560975     1.8908642295    -0.0548804930
    9      H      -1.6433062418    -0.5985727332     1.2813305297
   10      H      -2.4498471640    -0.8231053174    -0.2776469454
   11      H      -0.7887790130    -1.3984717421    -0.0447598062
 ----------------------------------------------------------------

   11    -578.6177117320      4.51e-07  Convergence criterion met
 Total energy in the final basis set =     -578.6177117320

                    Orbital Energies (a.u.)
 --------------------------------------------------------------

 Alpha MOs
 -- Occupied --
******* -10.184 -10.183 -10.172  -9.509  -7.284  -7.260  -7.260
 -0.843  -0.777  -0.670  -0.577  -0.450  -0.435  -0.406  -0.401
 -0.356  -0.351  -0.350  -0.346  -0.337  -0.194

 Beta MOs
 -- Occupied --
******* -10.185 -10.172 -10.169  -9.502  -7.262  -7.257  -7.256
 -0.789  -0.768  -0.652  -0.562  -0.444  -0.428  -0.396  -0.349
 -0.342  -0.335  -0.333  -0.332

          Ground-State Mulliken Net Atomic Charges

     Atom                 Charge (a.u.)    Spin (a.u.)
  --------------------------------------------------------
      1 Cl                    0.001368       1.002556
      2 C                    -0.183250      -0.075900
      3 C                    -0.216680       1.078467
      4 C                    -0.319106       0.011820
      5 H                     0.101398       0.016220
      6 H                     0.106084       0.060554
      7 H                     0.097305      -0.047748
      8 H                     0.096378      -0.048044
      9 H                     0.102655      -0.000860
     10 H                     0.098457       0.001545
     11 H                     0.115389       0.001390
  --------------------------------------------------------
  Sum of atomic charges =     0.000000

                    Cartesian Multipole Moments
 -----------------------------------------------------------------
    Charge (ESU x 10^10)
                 0.0000
    Dipole Moment (Debye)
         X      -0.1885      Y       0.0396      Z      -0.0744
       Tot       0.2065
    Quadrupole Moments (Debye-Ang)
        XX     -33.5576     XY       0.0438     YY     -33.6955
        XZ       0.2028     YZ      -1.0102     ZZ     -31.2930

 Final energy is   -578.617711732024
 **  OPTIMIZATION CONVERGED  **
 Total job time:  30.80s(wall), 299.20s(cpu)
        *  Thank you very much for using Q-Chem.  Have a nice day.  *
