 Q-Chem 5.1, Q-Chem, Inc., Pleasanton, CA (2018)
 Q-Chem 5.1.1 for Intel X86 EM64T Linux

User input:
--------------------------------------------------------------

$comment
potential surface scanner
$end

$rem
JOBTYPE  PES_SCAN
UNRESTRICTED TRUE
SYM_IGNORE  TRUE
GEOM_OPT_MAX_CYCLES 400
SCF_MAX_CYCLES 400
METHOD   B3LYP
BASIS   6-31G**
PDB_PRINT 2
SCF_CONVERGENCE 6
THRESH 14
SCF_PRINT 1
$end
$molecule
0 3
Cl 2.270795 -2.952556 -0.568894
C -0.996459 0.839446 -0.251548
C 0.215243 1.382330 0.427838
C -1.330781 -0.601598 0.158197
H -0.868118 0.896786 -1.341533
H -1.871242 1.480825 -0.035379
H 0.468208 1.069870 1.436881
H 0.767966 2.215816 0.006927
H -1.499730 -0.669956 1.238837
H -2.233352 -0.961550 -0.345568
H -0.506933 -1.277812 -0.091057
$end
$scan
stre 1 3 4.800000 4.801000 0.100000
$end
--------------------------------------------------------------

   11    -578.6178692451      5.35e-07  Convergence criterion met
 Total energy in the final basis set =     -578.6178692451
   11    -578.6177090199      3.00e-07  Convergence criterion met
 Total energy in the final basis set =     -578.6177090199
   11    -578.6177397156      3.08e-07  Convergence criterion met
 Total energy in the final basis set =     -578.6177397156
   11    -578.6177894937      4.11e-07  Convergence criterion met
 Total energy in the final basis set =     -578.6177894937
   11    -578.6177933978      4.43e-07  Convergence criterion met
 Total energy in the final basis set =     -578.6177933978
   11    -578.6177989783      5.07e-07  Convergence criterion met
 Total energy in the final basis set =     -578.6177989783

             Standard Nuclear Orientation (Angstroms)
    I     Atom           X                Y                Z
 ----------------------------------------------------------------
    1      Cl      2.2501456850    -2.8773654697    -0.5481225317
    2      C      -0.9938511955     0.8343011767    -0.2517360163
    3      C       0.2261060373     1.3655432609     0.4219236192
    4      C      -1.3363602074    -0.6046019045     0.1572739623
    5      H      -0.8714580250     0.8930344530    -1.3423288697
    6      H      -1.8624560432     1.4818295912    -0.0290701390
    7      H       0.4820978951     1.0489843981     1.4289217134
    8      H       0.7828051382     2.1957996898    -0.0001380652
    9      H      -1.5061849447    -0.6730141684     1.2377877229
   10      H      -2.2403009128    -0.9599106727    -0.3473679017
   11      H      -0.5149464271    -1.2829993544    -0.0924424944
 ----------------------------------------------------------------

   11    -578.6177998845      5.01e-07  Convergence criterion met
 Total energy in the final basis set =     -578.6177998845

                    Orbital Energies (a.u.)
 --------------------------------------------------------------

 Alpha MOs
 -- Occupied --
******* -10.184 -10.183 -10.171  -9.511  -7.285  -7.262  -7.262
 -0.845  -0.777  -0.669  -0.577  -0.449  -0.435  -0.407  -0.401
 -0.358  -0.352  -0.350  -0.345  -0.337  -0.195

 Beta MOs
 -- Occupied --
******* -10.185 -10.171 -10.169  -9.504  -7.263  -7.258  -7.258
 -0.791  -0.768  -0.652  -0.562  -0.444  -0.428  -0.396  -0.349
 -0.343  -0.336  -0.335  -0.332

          Ground-State Mulliken Net Atomic Charges

     Atom                 Charge (a.u.)    Spin (a.u.)
  --------------------------------------------------------
      1 Cl                    0.003155       1.000909
      2 C                    -0.182838      -0.075895
      3 C                    -0.218704       1.080495
      4 C                    -0.321950       0.011147
      5 H                     0.101968       0.017224
      6 H                     0.106057       0.060047
      7 H                     0.097687      -0.047799
      8 H                     0.096358      -0.048041
      9 H                     0.102465      -0.000827
     10 H                     0.098532       0.001368
     11 H                     0.117270       0.001373
  --------------------------------------------------------
  Sum of atomic charges =    -0.000000

                    Cartesian Multipole Moments
 -----------------------------------------------------------------
    Charge (ESU x 10^10)
                -0.0000
    Dipole Moment (Debye)
         X      -0.1719      Y      -0.0215      Z      -0.0788
       Tot       0.1903
    Quadrupole Moments (Debye-Ang)
        XX     -33.5733     XY      -0.0294     YY     -33.6813
        XZ       0.1389     YZ      -0.7707     ZZ     -31.1744

 Final energy is   -578.617799884507
 **  OPTIMIZATION CONVERGED  **
 Total job time:  23.15s(wall), 249.21s(cpu)
        *  Thank you very much for using Q-Chem.  Have a nice day.  *
