 Q-Chem 5.1, Q-Chem, Inc., Pleasanton, CA (2018)
 Q-Chem 5.1.1 for Intel X86 EM64T Linux

User input:
--------------------------------------------------------------

$comment
potential surface scanner
$end

$rem
JOBTYPE  PES_SCAN
UNRESTRICTED TRUE
SYM_IGNORE  TRUE
GEOM_OPT_MAX_CYCLES 400
SCF_MAX_CYCLES 400
METHOD   B3LYP
BASIS   6-31G**
PDB_PRINT 2
SCF_CONVERGENCE 6
THRESH 14
SCF_PRINT 1
$end
$molecule
0 1
Cl 1.759445 -0.576646 -0.207865
C -0.787170 0.556755 -0.324447
C 0.595837 0.741625 0.285548
C -1.534253 -0.685854 0.163299
H -0.697481 0.544007 -1.416574
H -1.360732 1.459349 -0.069835
H 0.565226 0.717231 1.377000
H 1.057152 1.675548 -0.038205
H -1.660479 -0.669448 1.251751
H -2.529632 -0.742170 -0.287655
H -0.992314 -1.598796 -0.098317
$end
$scan
stre 1 3 1.000000 1.001000 0.100000
$end
--------------------------------------------------------------

    9    -578.7495578000      3.58e-07  Convergence criterion met
 Total energy in the final basis set =     -578.7495578000
    9    -578.7399653932      3.39e-07  Convergence criterion met
 Total energy in the final basis set =     -578.7399653932
    9    -578.7011100352      3.56e-07  Convergence criterion met
 Total energy in the final basis set =     -578.7011100352
    8    -578.6285177424      8.90e-07  Convergence criterion met
 Total energy in the final basis set =     -578.6285177424
    8    -578.5138189206      6.22e-07  Convergence criterion met
 Total energy in the final basis set =     -578.5138189206
    9    -578.3223578480      6.26e-07  Convergence criterion met
 Total energy in the final basis set =     -578.3223578480
    9    -578.0364300154      6.98e-07  Convergence criterion met
 Total energy in the final basis set =     -578.0364300154
    9    -577.8385354322      7.44e-07  Convergence criterion met
    9    -577.5681398228      8.57e-07  Convergence criterion met
 Total energy in the final basis set =     -577.5681398228
    9    -577.5681516276      8.57e-07  Convergence criterion met
 Total energy in the final basis set =     -577.5681516276
    9    -577.5681617197      8.57e-07  Convergence criterion met
 Total energy in the final basis set =     -577.5681617197
    9    -577.5681686073      8.56e-07  Convergence criterion met
 Total energy in the final basis set =     -577.5681686073
    9    -577.5681718728      8.56e-07  Convergence criterion met
 Total energy in the final basis set =     -577.5681718728
    9    -577.5681732307      8.55e-07  Convergence criterion met
 Total energy in the final basis set =     -577.5681732307

             Standard Nuclear Orientation (Angstroms)
    I     Atom           X                Y                Z
 ----------------------------------------------------------------
    1      Cl      1.4322449759    -0.2941013050    -0.0036207798
    2      C      -0.7880864415     0.5453365512    -0.3224088698
    3      C       0.8412012668     0.4835989281     0.2105051952
    4      C      -1.5293200626    -0.6965814102     0.1446060100
    5      H      -0.7305919484     0.5815088289    -1.4205694214
    6      H      -1.2338306611     1.4726627456     0.0475812676
    7      H       0.5492480555     0.8262846729     1.2992422442
    8      H       1.0384652656     1.5919470628    -0.1203412382
    9      H      -1.6531079451    -0.6969935142     1.2344105367
   10      H      -2.5246747227    -0.7800686088    -0.3043357891
   11      H      -0.9859487823    -1.6119929513    -0.1303691555
 ----------------------------------------------------------------

    9    -577.5681741614      8.54e-07  Convergence criterion met
 Total energy in the final basis set =     -577.5681741614

                    Orbital Energies (a.u.)
 --------------------------------------------------------------

 Alpha MOs
 -- Occupied --
******* -10.271 -10.173 -10.171  -9.527  -7.295  -7.267  -7.267
 -1.121  -0.753  -0.633  -0.605  -0.598  -0.545  -0.484  -0.429
 -0.391  -0.358  -0.340  -0.213  -0.201

 Beta MOs
 -- Occupied --
******* -10.271 -10.173 -10.171  -9.527  -7.295  -7.267  -7.267
 -1.121  -0.753  -0.633  -0.605  -0.598  -0.545  -0.484  -0.429
 -0.391  -0.358  -0.340  -0.213  -0.201

          Ground-State Mulliken Net Atomic Charges

     Atom                 Charge (a.u.)    Spin (a.u.)
  --------------------------------------------------------
      1 Cl                    0.399522       0.000000
      2 C                    -0.231157      -0.000000
      3 C                    -0.382484      -0.000000
      4 C                    -0.333920       0.000000
      5 H                     0.083646      -0.000000
      6 H                     0.094982       0.000000
      7 H                     0.024111       0.000000
      8 H                     0.027971       0.000000
      9 H                     0.104029      -0.000000
     10 H                     0.111193      -0.000000
     11 H                     0.102108      -0.000000
  --------------------------------------------------------
  Sum of atomic charges =    -0.000000

                    Cartesian Multipole Moments
 -----------------------------------------------------------------
    Charge (ESU x 10^10)
                -0.0000
    Dipole Moment (Debye)
         X       0.1971      Y      -0.1602      Z      -0.0227
       Tot       0.2550
    Quadrupole Moments (Debye-Ang)
        XX     -32.2698     XY       0.3456     YY     -33.5336
        XZ       0.1360     YZ      -0.1931     ZZ     -32.5731

 Final energy is   -577.568174161352
 **  OPTIMIZATION CONVERGED  **
 Total job time:  126.49s(wall), 1298.68s(cpu)
        *  Thank you very much for using Q-Chem.  Have a nice day.  *
