 Q-Chem 5.1, Q-Chem, Inc., Pleasanton, CA (2018)
 Q-Chem 5.1.1 for Intel X86 EM64T Linux

User input:
--------------------------------------------------------------

$comment
potential surface scanner
$end

$rem
JOBTYPE  PES_SCAN
UNRESTRICTED TRUE
SYM_IGNORE  TRUE
GEOM_OPT_MAX_CYCLES 400
SCF_MAX_CYCLES 400
METHOD   B3LYP
BASIS   6-31G**
PDB_PRINT 2
SCF_CONVERGENCE 6
THRESH 14
SCF_PRINT 1
$end
$molecule
0 1
Cl 1.759445 -0.576646 -0.207865
C -0.787170 0.556755 -0.324447
C 0.595837 0.741625 0.285548
C -1.534253 -0.685854 0.163299
H -0.697481 0.544007 -1.416574
H -1.360732 1.459349 -0.069835
H 0.565226 0.717231 1.377000
H 1.057152 1.675548 -0.038205
H -1.660479 -0.669448 1.251751
H -2.529632 -0.742170 -0.287655
H -0.992314 -1.598796 -0.098317
$end
$scan
stre 1 3 3.700000 3.701000 0.100000
$end
--------------------------------------------------------------

    9    -578.7495578000      3.58e-07  Convergence criterion met
 Total energy in the final basis set =     -578.7495578000
    9    -578.7435169914      4.18e-07  Convergence criterion met
 Total energy in the final basis set =     -578.7435169914
    9    -578.7315821041      4.88e-07  Convergence criterion met
 Total energy in the final basis set =     -578.7315821041
    9    -578.7188383402      5.82e-07  Convergence criterion met
 Total energy in the final basis set =     -578.7188383402
    9    -578.7070916918      7.12e-07  Convergence criterion met
 Total energy in the final basis set =     -578.7070916918
    9    -578.6961919782      9.97e-07  Convergence criterion met
 Total energy in the final basis set =     -578.6961919782
   10    -578.6857803592      4.49e-07  Convergence criterion met
 Total energy in the final basis set =     -578.6857803592
   10    -578.6759398299      9.68e-07  Convergence criterion met
   12    -578.6304266758      4.72e-07  Convergence criterion met
 Total energy in the final basis set =     -578.6304266758
   12    -578.6304300870      4.75e-07  Convergence criterion met
 Total energy in the final basis set =     -578.6304300870
   12    -578.6304342586      4.76e-07  Convergence criterion met
 Total energy in the final basis set =     -578.6304342586
   12    -578.6304383966      4.74e-07  Convergence criterion met
 Total energy in the final basis set =     -578.6304383966
   12    -578.6304410582      4.70e-07  Convergence criterion met
 Total energy in the final basis set =     -578.6304410582
   12    -578.6304421513      4.67e-07  Convergence criterion met
 Total energy in the final basis set =     -578.6304421513

             Standard Nuclear Orientation (Angstroms)
    I     Atom           X                Y                Z
 ----------------------------------------------------------------
    1      Cl      2.0808860689    -1.9242652567    -0.2751144593
    2      C      -0.9323429685     0.7342819678    -0.2759831349
    3      C       0.2552101210     1.2220113492     0.4015323878
    4      C      -1.3738423240    -0.6910570497     0.1085114259
    5      H      -0.8565823213     0.8736993423    -1.3582561787
    6      H      -1.7317234437     1.4369308877     0.0624030093
    7      H       0.4229415681     0.9962636461     1.4513643752
    8      H       0.9683860982     1.8815105220    -0.0840106909
    9      H      -1.4895407687    -0.7909363536     1.1916733473
   10      H      -2.3290054971    -0.9246533132    -0.3674431625
   11      H      -0.5987875330    -1.3921847419    -0.2199769190
 ----------------------------------------------------------------

   12    -578.6304425725      4.66e-07  Convergence criterion met
 Total energy in the final basis set =     -578.6304425725

                    Orbital Energies (a.u.)
 --------------------------------------------------------------

 Alpha MOs
 -- Occupied --
******* -10.318 -10.255 -10.209  -9.367  -7.130  -7.122  -7.122
 -0.856  -0.731  -0.693  -0.641  -0.534  -0.495  -0.472  -0.412
 -0.399  -0.388  -0.237  -0.229  -0.228

 Beta MOs
 -- Occupied --
******* -10.318 -10.255 -10.209  -9.367  -7.130  -7.122  -7.122
 -0.856  -0.731  -0.693  -0.641  -0.534  -0.495  -0.472  -0.412
 -0.399  -0.388  -0.237  -0.229  -0.228

          Ground-State Mulliken Net Atomic Charges

     Atom                 Charge (a.u.)    Spin (a.u.)
  --------------------------------------------------------
      1 Cl                   -0.516019      -0.000000
      2 C                    -0.240988      -0.000000
      3 C                    -0.067166       0.000000
      4 C                    -0.324372      -0.000000
      5 H                     0.163548       0.000000
      6 H                     0.169668       0.000000
      7 H                     0.189457      -0.000000
      8 H                     0.187872      -0.000000
      9 H                     0.120519       0.000000
     10 H                     0.121090       0.000000
     11 H                     0.196391       0.000000
  --------------------------------------------------------
  Sum of atomic charges =    -0.000000

                    Cartesian Multipole Moments
 -----------------------------------------------------------------
    Charge (ESU x 10^10)
                -0.0000
    Dipole Moment (Debye)
         X      -5.4873      Y       6.7594      Z       1.1489
       Tot       8.7818
    Quadrupole Moments (Debye-Ang)
        XX     -41.3726     XY       9.5546     YY     -37.5505
        XZ       1.6908     YZ      -0.4829     ZZ     -32.1841

 Final energy is   -578.630442572492
 **  OPTIMIZATION CONVERGED  **
 Total job time:  133.24s(wall), 1432.93s(cpu)
        *  Thank you very much for using Q-Chem.  Have a nice day.  *
