 Q-Chem 5.1, Q-Chem, Inc., Pleasanton, CA (2018)
 Q-Chem 5.1.1 for Intel X86 EM64T Linux

User input:
--------------------------------------------------------------

$comment
potential surface scanner
$end

$rem
JOBTYPE  PES_SCAN
UNRESTRICTED TRUE
SYM_IGNORE  TRUE
GEOM_OPT_MAX_CYCLES 400
SCF_MAX_CYCLES 400
METHOD   B3LYP
BASIS   6-31G**
PDB_PRINT 2
SCF_CONVERGENCE 6
THRESH 14
SCF_PRINT 1
$end
$molecule
0 3
Cl 2.340226 -1.610076 -0.492242
C -0.914929 0.715179 -0.283055
C 0.387365 1.036287 0.369789
C -1.542833 -0.595943 0.209337
H -0.785893 0.680014 -1.373800
H -1.636402 1.536220 -0.111454
H 0.577165 0.740849 1.397143
H 1.096228 1.712746 -0.095908
H -1.707098 -0.568511 1.292409
H -2.509715 -0.779127 -0.270233
H -0.888514 -1.446039 -0.007292
$end
$scan
stre 1 3 3.300000 3.301000 0.100000
$end
--------------------------------------------------------------

   20    -578.6165338464      6.60e-07  Convergence criterion met
 Total energy in the final basis set =     -578.6165338464
   11    -578.6155856622      9.73e-07  Convergence criterion met
 Total energy in the final basis set =     -578.6155856622
   15    -578.6158984512      9.65e-07  Convergence criterion met
 Total energy in the final basis set =     -578.6158984512
   57    -578.6160204395      1.33e-07  Convergence criterion met
 Total energy in the final basis set =     -578.6160204395
   53    -578.6160262001      5.57e-07  Convergence criterion met
 Total energy in the final basis set =     -578.6160262001
   58    -578.6160300968      5.87e-07  Convergence criterion met
 Total energy in the final basis set =     -578.6160300968
   47    -578.6160330292      9.55e-07  Convergence criterion met
 Total energy in the final basis set =     -578.6160330292
   26    -578.6159986527      9.19e-07  Convergence criterion met
 Total energy in the final basis set =     -578.6159986527
   56    -578.6160364826      3.64e-07  Convergence criterion met
 Total energy in the final basis set =     -578.6160364826
   38    -578.6160225193      7.16e-07  Convergence criterion met
 Total energy in the final basis set =     -578.6160225193
   58    -578.6160386951      6.24e-07  Convergence criterion met
 Total energy in the final basis set =     -578.6160386951

             Standard Nuclear Orientation (Angstroms)
    I     Atom           X                Y                Z
 ----------------------------------------------------------------
    1      Cl      2.2766641287    -1.5491176221    -0.4898167952
    2      C      -0.9042486387     0.7067460206    -0.2862640485
    3      C       0.3974846449     1.0238889935     0.3694401884
    4      C      -1.5404320614    -0.5984703193     0.2104554022
    5      H      -0.7718798394     0.6651236775    -1.3762766330
    6      H      -1.6223602414     1.5321370626    -0.1211563469
    7      H       0.5814245141     0.7335219658     1.3990103838
    8      H       1.1022956991     1.7080277772    -0.0914458457
    9      H      -1.7037369826    -0.5677466207     1.2935469966
   10      H      -2.5081743784    -0.7784879449    -0.2684006874
   11      H      -0.8914368448    -1.4540239902    -0.0043986143
 ----------------------------------------------------------------

   57    -578.6160395317      8.72e-07  Convergence criterion met
 Total energy in the final basis set =     -578.6160395317

                    Orbital Energies (a.u.)
 --------------------------------------------------------------

 Alpha MOs
 -- Occupied --
******* -10.184 -10.181 -10.174  -9.505  -7.280  -7.257  -7.257
 -0.840  -0.778  -0.670  -0.578  -0.450  -0.437  -0.403  -0.402
 -0.356  -0.351  -0.347  -0.345  -0.338  -0.191

 Beta MOs
 -- Occupied --
******* -10.185 -10.174 -10.167  -9.499  -7.259  -7.253  -7.252
 -0.786  -0.769  -0.653  -0.562  -0.444  -0.429  -0.396  -0.349
 -0.343  -0.335  -0.331  -0.329

          Ground-State Mulliken Net Atomic Charges

     Atom                 Charge (a.u.)    Spin (a.u.)
  --------------------------------------------------------
      1 Cl                   -0.000505       1.006514
      2 C                    -0.181721      -0.075162
      3 C                    -0.211953       1.070222
      4 C                    -0.315293       0.014939
      5 H                     0.103524       0.017721
      6 H                     0.104934       0.059983
      7 H                     0.097669      -0.047121
      8 H                     0.093027      -0.047490
      9 H                     0.104146      -0.000744
     10 H                     0.100193       0.001091
     11 H                     0.105979       0.000046
  --------------------------------------------------------
  Sum of atomic charges =     0.000000

                    Cartesian Multipole Moments
 -----------------------------------------------------------------
    Charge (ESU x 10^10)
                 0.0000
    Dipole Moment (Debye)
         X      -0.2409      Y       0.1078      Z      -0.0614
       Tot       0.2710
    Quadrupole Moments (Debye-Ang)
        XX     -32.8661     XY       1.0470     YY     -33.1693
        XZ      -0.4418     YZ      -1.0189     ZZ     -32.7851

 Final energy is   -578.616039531717
 **  OPTIMIZATION CONVERGED  **
 Total job time:  106.86s(wall), 1193.54s(cpu)
        *  Thank you very much for using Q-Chem.  Have a nice day.  *
