 Q-Chem 5.1, Q-Chem, Inc., Pleasanton, CA (2018)
 Q-Chem 5.1.1 for Intel X86 EM64T Linux

User input:
--------------------------------------------------------------

$comment
potential surface scanner
$end

$rem
JOBTYPE  PES_SCAN
UNRESTRICTED TRUE
SYM_IGNORE  TRUE
GEOM_OPT_MAX_CYCLES 400
SCF_MAX_CYCLES 400
METHOD   B3LYP
BASIS   6-31G**
PDB_PRINT 2
SCF_CONVERGENCE 6
THRESH 14
SCF_PRINT 1
$end
$molecule
0 3
Cl 2.598645 0.122148 -0.880675
C -0.791597 0.464796 -0.314809
C 0.496761 0.480313 0.424624
C -1.794217 -0.533093 0.295068
H -0.607281 0.217643 -1.367539
H -1.246537 1.471319 -0.316261
H 0.545964 0.527110 1.512103
H 1.361879 1.021679 -0.060275
H -2.003644 -0.293083 1.342544
H -2.740833 -0.503692 -0.253033
H -1.403539 -1.553544 0.252945
$end
$scan
stre 1 3 2.400000 2.401000 0.100000
$end
--------------------------------------------------------------

   11    -578.6074617697      5.75e-07  Convergence criterion met
 Total energy in the final basis set =     -578.6074617697
   11    -578.6008203555      6.71e-07  Convergence criterion met
 Total energy in the final basis set =     -578.6008203555
   11    -578.6009952275      6.17e-07  Convergence criterion met
 Total energy in the final basis set =     -578.6009952275
   11    -578.6010882593      5.99e-07  Convergence criterion met
 Total energy in the final basis set =     -578.6010882593
   11    -578.6011142049      6.13e-07  Convergence criterion met
 Total energy in the final basis set =     -578.6011142049
   11    -578.6011402293      6.56e-07  Convergence criterion met
 Total energy in the final basis set =     -578.6011402293
   11    -578.6011486541      6.89e-07  Convergence criterion met
 Total energy in the final basis set =     -578.6011486541
   11    -578.6011535932      7.15e-07  Convergence criterion met
   11    -578.6011727137      7.95e-07  Convergence criterion met
 Total energy in the final basis set =     -578.6011727137
   11    -578.6011821304      8.46e-07  Convergence criterion met
 Total energy in the final basis set =     -578.6011821304
   11    -578.6011946452      8.07e-07  Convergence criterion met
 Total energy in the final basis set =     -578.6011946452
   11    -578.6012073004      7.66e-07  Convergence criterion met
 Total energy in the final basis set =     -578.6012073004
   11    -578.6012128269      7.40e-07  Convergence criterion met
 Total energy in the final basis set =     -578.6012128269
   11    -578.6012143925      7.30e-07  Convergence criterion met
 Total energy in the final basis set =     -578.6012143925

             Standard Nuclear Orientation (Angstroms)
    I     Atom           X                Y                Z
 ----------------------------------------------------------------
    1      Cl      2.4038706916     0.0793427110    -0.9784719274
    2      C      -0.7582476435     0.4562398815    -0.3144687149
    3      C       0.5164380152     0.4811661693     0.4484610068
    4      C      -1.7728799439    -0.5329481794     0.2874269143
    5      H      -0.5555240704     0.1995849083    -1.3610742765
    6      H      -1.2127377898     1.4631379117    -0.3331924758
    7      H       0.5130413849     0.5376338276     1.5393788739
    8      H       1.3752699640     1.0840539659     0.0326353401
    9      H      -2.0079157684    -0.2775872474     1.3259328725
   10      H      -2.7065526368    -0.5158932733    -0.2826966048
   11      H      -1.3791612028    -1.5531346752     0.2707609919
 ----------------------------------------------------------------

   11    -578.6012148313      7.27e-07  Convergence criterion met
 Total energy in the final basis set =     -578.6012148313

                    Orbital Energies (a.u.)
 --------------------------------------------------------------

 Alpha MOs
 -- Occupied --
******* -10.223 -10.204 -10.190  -9.459  -7.230  -7.213  -7.212
 -0.831  -0.793  -0.696  -0.604  -0.495  -0.464  -0.428  -0.389
 -0.373  -0.361  -0.327  -0.316  -0.300  -0.214

 Beta MOs
 -- Occupied --
******* -10.205 -10.204 -10.189  -9.454  -7.212  -7.208  -7.208
 -0.799  -0.770  -0.671  -0.584  -0.467  -0.453  -0.418  -0.372
 -0.365  -0.356  -0.307  -0.302

          Ground-State Mulliken Net Atomic Charges

     Atom                 Charge (a.u.)    Spin (a.u.)
  --------------------------------------------------------
      1 Cl                   -0.137610       0.772273
      2 C                    -0.185759      -0.061567
      3 C                    -0.221760       1.186652
      4 C                    -0.319096       0.023990
      5 H                     0.129955       0.018283
      6 H                     0.117903       0.059325
      7 H                     0.123859      -0.013008
      8 H                     0.146578       0.008769
      9 H                     0.109911      -0.001236
     10 H                     0.112193       0.005244
     11 H                     0.123827       0.001275
  --------------------------------------------------------
  Sum of atomic charges =    -0.000000

                    Cartesian Multipole Moments
 -----------------------------------------------------------------
    Charge (ESU x 10^10)
                -0.0000
    Dipole Moment (Debye)
         X      -2.0406      Y       0.6325      Z       0.9226
       Tot       2.3271
    Quadrupole Moments (Debye-Ang)
        XX     -36.9320     XY       0.1419     YY     -32.7501
        XZ       1.7869     YZ       0.7320     ZZ     -33.1395

 Final energy is   -578.601214831313
 **  OPTIMIZATION CONVERGED  **
 Total job time:  56.02s(wall), 596.98s(cpu)
        *  Thank you very much for using Q-Chem.  Have a nice day.  *
