 Q-Chem 5.1, Q-Chem, Inc., Pleasanton, CA (2018)
 Q-Chem 5.1.1 for Intel X86 EM64T Linux

User input:
--------------------------------------------------------------

$comment
potential surface scanner
$end

$rem
JOBTYPE  PES_SCAN
UNRESTRICTED TRUE
SYM_IGNORE  TRUE
GEOM_OPT_MAX_CYCLES 400
SCF_MAX_CYCLES 400
METHOD   B3LYP
BASIS   6-31G**
PDB_PRINT 2
SCF_CONVERGENCE 6
THRESH 14
SCF_PRINT 1
$end
$molecule
0 1
Cl 2.092091 -1.043692 -0.307396
C -0.860061 0.617703 -0.307286
C 0.406143 0.957521 0.357980
C -1.526946 -0.674529 0.167581
H -0.729030 0.637729 -1.393766
H -1.513357 1.486679 -0.076070
H 0.545286 0.737962 1.411817
H 1.071185 1.697538 -0.073471
H -1.682775 -0.666524 1.251167
H -2.499247 -0.803831 -0.314861
H -0.887684 -1.524954 -0.080991
$end
$scan
stre 1 3 2.800000 2.801000 0.100000
$end
--------------------------------------------------------------

   10    -578.6853403053      5.55e-07  Convergence criterion met
 Total energy in the final basis set =     -578.6853403053
   10    -578.6776123327      9.28e-07  Convergence criterion met
 Total energy in the final basis set =     -578.6776123327
   10    -578.6776484977      9.43e-07  Convergence criterion met
 Total energy in the final basis set =     -578.6776484977
   10    -578.6778118524      9.51e-07  Convergence criterion met
 Total energy in the final basis set =     -578.6778118524
   10    -578.6778249548      9.52e-07  Convergence criterion met
 Total energy in the final basis set =     -578.6778249548
   10    -578.6778423400      9.53e-07  Convergence criterion met
 Total energy in the final basis set =     -578.6778423400
   10    -578.6778450516      9.52e-07  Convergence criterion met
 Total energy in the final basis set =     -578.6778450516
   10    -578.6778467095      9.50e-07  Convergence criterion met
 Total energy in the final basis set =     -578.6778467095

             Standard Nuclear Orientation (Angstroms)
    I     Atom           X                Y                Z
 ----------------------------------------------------------------
    1      Cl      2.1243278902    -1.1114086555    -0.3098226663
    2      C      -0.8691192298     0.6278767253    -0.3048176150
    3      C       0.3887280080     0.9803758800     0.3625824018
    4      C      -1.5221437957    -0.6731990045     0.1667612555
    5      H      -0.7383923688     0.6552269948    -1.3912348567
    6      H      -1.5337140132     1.4888525882    -0.0710557115
    7      H       0.5385949811     0.7488101011     1.4121049384
    8      H       1.0685545924     1.7003623067    -0.0788844106
    9      H      -1.6799954978    -0.6689968788     1.2499715272
   10      H      -2.4914660491    -0.8128085525    -0.3185282896
   11      H      -0.8697695173    -1.5134895047    -0.0823725732
 ----------------------------------------------------------------

   10    -578.6778475815      9.48e-07  Convergence criterion met
 Total energy in the final basis set =     -578.6778475815

                    Orbital Energies (a.u.)
 --------------------------------------------------------------

 Alpha MOs
 -- Occupied --
******* -10.303 -10.239 -10.201  -9.390  -7.153  -7.145  -7.145
 -0.839  -0.723  -0.711  -0.627  -0.512  -0.483  -0.460  -0.399
 -0.388  -0.382  -0.272  -0.249  -0.248

 Beta MOs
 -- Occupied --
******* -10.303 -10.239 -10.201  -9.390  -7.153  -7.145  -7.145
 -0.839  -0.723  -0.711  -0.627  -0.512  -0.483  -0.460  -0.399
 -0.388  -0.382  -0.272  -0.249  -0.248

          Ground-State Mulliken Net Atomic Charges

     Atom                 Charge (a.u.)    Spin (a.u.)
  --------------------------------------------------------
      1 Cl                   -0.461609      -0.000000
      2 C                    -0.219357      -0.000000
      3 C                    -0.079768      -0.000000
      4 C                    -0.324549       0.000000
      5 H                     0.163372      -0.000000
      6 H                     0.147743      -0.000000
      7 H                     0.185571      -0.000000
      8 H                     0.185432      -0.000000
      9 H                     0.113256      -0.000000
     10 H                     0.116884       0.000000
     11 H                     0.173024       0.000000
  --------------------------------------------------------
  Sum of atomic charges =    -0.000000

                    Cartesian Multipole Moments
 -----------------------------------------------------------------
    Charge (ESU x 10^10)
                 0.0000
    Dipole Moment (Debye)
         X      -4.6457      Y       4.1383      Z       1.0567
       Tot       6.3107
    Quadrupole Moments (Debye-Ang)
        XX     -40.9776     XY       5.1947     YY     -32.5885
        XZ       1.7638     YZ      -0.1275     ZZ     -32.2807

 Final energy is   -578.677847581503
 **  OPTIMIZATION CONVERGED  **
 Total job time:  33.45s(wall), 340.22s(cpu)
        *  Thank you very much for using Q-Chem.  Have a nice day.  *
