 Q-Chem 5.1, Q-Chem, Inc., Pleasanton, CA (2018)
 Q-Chem 5.1.1 for Intel X86 EM64T Linux

User input:
--------------------------------------------------------------

$comment
potential surface scanner
$end

$rem
JOBTYPE  PES_SCAN
UNRESTRICTED TRUE
SYM_IGNORE  TRUE
GEOM_OPT_MAX_CYCLES 400
SCF_MAX_CYCLES 400
METHOD   B3LYP
BASIS   6-31G**
PDB_PRINT 2
SCF_CONVERGENCE 6
THRESH 14
SCF_PRINT 1
$end
$molecule
0 3
Cl 2.327388 -3.100966 -0.613084
C -1.000223 0.848339 -0.251726
C 0.195963 1.411443 0.438196
C -1.323809 -0.594037 0.161688
H -0.861484 0.902810 -1.340546
H -1.885565 1.479570 -0.048080
H 0.439711 1.110467 1.452971
H 0.738972 2.253066 0.020592
H -1.492598 -0.661535 1.242403
H -2.225095 -0.960407 -0.340192
H -0.497663 -1.267149 -0.087521
$end
$scan
stre 1 3 5.000000 5.001000 0.100000
$end
--------------------------------------------------------------

   11    -578.6179330818      5.76e-07  Convergence criterion met
 Total energy in the final basis set =     -578.6179330818
   11    -578.6178098544      4.71e-07  Convergence criterion met
 Total energy in the final basis set =     -578.6178098544
   11    -578.6178450761      4.74e-07  Convergence criterion met
 Total energy in the final basis set =     -578.6178450761
   11    -578.6179034854      5.10e-07  Convergence criterion met
 Total energy in the final basis set =     -578.6179034854
   11    -578.6179077180      5.25e-07  Convergence criterion met
 Total energy in the final basis set =     -578.6179077180
   11    -578.6179133464      5.61e-07  Convergence criterion met
 Total energy in the final basis set =     -578.6179133464

             Standard Nuclear Orientation (Angstroms)
    I     Atom           X                Y                Z
 ----------------------------------------------------------------
    1      Cl      2.2974348221    -3.0267443539    -0.5899879155
    2      C      -0.9985269697     0.8440351151    -0.2514329139
    3      C       0.2052233724     1.3976949132     0.4332368807
    4      C      -1.3266898617    -0.5979340147     0.1596459447
    5      H      -0.8652272752     0.9002302501    -1.3408667255
    6      H      -1.8789359658     1.4796594546    -0.0410050360
    7      H       0.4549606712     1.0899689928     1.4445329938
    8      H       0.7533910777     2.2347607676     0.0134363909
    9      H      -1.4958659787    -0.6661202716     1.2402704033
   10      H      -2.2283586502    -0.9610093974    -0.3436574801
   11      H      -0.5018082422    -1.2729404560    -0.0894715423
 ----------------------------------------------------------------

   11    -578.6179138063      5.65e-07  Convergence criterion met
 Total energy in the final basis set =     -578.6179138063

                    Orbital Energies (a.u.)
 --------------------------------------------------------------

 Alpha MOs
 -- Occupied --
******* -10.184 -10.183 -10.172  -9.511  -7.285  -7.262  -7.262
 -0.845  -0.778  -0.670  -0.578  -0.450  -0.435  -0.407  -0.402
 -0.357  -0.352  -0.351  -0.346  -0.337  -0.195

 Beta MOs
 -- Occupied --
******* -10.185 -10.171 -10.169  -9.504  -7.263  -7.259  -7.258
 -0.791  -0.768  -0.652  -0.563  -0.444  -0.428  -0.396  -0.349
 -0.343  -0.336  -0.336  -0.333

          Ground-State Mulliken Net Atomic Charges

     Atom                 Charge (a.u.)    Spin (a.u.)
  --------------------------------------------------------
      1 Cl                    0.002652       1.000639
      2 C                    -0.182913      -0.075945
      3 C                    -0.218850       1.080556
      4 C                    -0.321290       0.011152
      5 H                     0.102258       0.017213
      6 H                     0.106211       0.060177
      7 H                     0.097654      -0.047803
      8 H                     0.096519      -0.048056
      9 H                     0.102673      -0.000824
     10 H                     0.098749       0.001353
     11 H                     0.116336       0.001537
  --------------------------------------------------------
  Sum of atomic charges =    -0.000000

                    Cartesian Multipole Moments
 -----------------------------------------------------------------
    Charge (ESU x 10^10)
                 0.0000
    Dipole Moment (Debye)
         X      -0.1821      Y      -0.0217      Z      -0.0818
       Tot       0.2008
    Quadrupole Moments (Debye-Ang)
        XX     -33.5828     XY      -0.0377     YY     -33.7214
        XZ       0.2292     YZ      -0.6114     ZZ     -31.1144

 Final energy is   -578.617913806284
 **  OPTIMIZATION CONVERGED  **
 Total job time:  24.06s(wall), 255.02s(cpu)
        *  Thank you very much for using Q-Chem.  Have a nice day.  *
