 Q-Chem 5.1, Q-Chem, Inc., Pleasanton, CA (2018)
 Q-Chem 5.1.1 for Intel X86 EM64T Linux

User input:
--------------------------------------------------------------

$comment
potential surface scanner
$end

$rem
JOBTYPE  PES_SCAN
UNRESTRICTED TRUE
SYM_IGNORE  TRUE
GEOM_OPT_MAX_CYCLES 400
SCF_MAX_CYCLES 400
METHOD   B3LYP
BASIS   6-31G**
PDB_PRINT 2
SCF_CONVERGENCE 6
THRESH 14
SCF_PRINT 1
$end
$molecule
0 1
Cl 1.759445 -0.576646 -0.207865
C -0.787170 0.556755 -0.324447
C 0.595837 0.741625 0.285548
C -1.534253 -0.685854 0.163299
H -0.697481 0.544007 -1.416574
H -1.360732 1.459349 -0.069835
H 0.565226 0.717231 1.377000
H 1.057152 1.675548 -0.038205
H -1.660479 -0.669448 1.251751
H -2.529632 -0.742170 -0.287655
H -0.992314 -1.598796 -0.098317
$end
$scan
stre 1 3 3.200000 3.201000 0.100000
$end
--------------------------------------------------------------

    9    -578.7495578000      3.58e-07  Convergence criterion met
 Total energy in the final basis set =     -578.7495578000
    9    -578.7435169914      4.18e-07  Convergence criterion met
 Total energy in the final basis set =     -578.7435169914
    9    -578.7315821041      4.88e-07  Convergence criterion met
 Total energy in the final basis set =     -578.7315821041
    9    -578.7188383402      5.82e-07  Convergence criterion met
 Total energy in the final basis set =     -578.7188383402
    9    -578.7070916918      7.12e-07  Convergence criterion met
 Total energy in the final basis set =     -578.7070916918
    9    -578.6961919782      9.97e-07  Convergence criterion met
 Total energy in the final basis set =     -578.6961919782
   10    -578.6857803592      4.49e-07  Convergence criterion met
 Total energy in the final basis set =     -578.6857803592
   10    -578.6759398299      9.68e-07  Convergence criterion met
   11    -578.6524861460      8.17e-07  Convergence criterion met
 Total energy in the final basis set =     -578.6524861460
   11    -578.6524916541      8.15e-07  Convergence criterion met
 Total energy in the final basis set =     -578.6524916541
   11    -578.6524959069      8.12e-07  Convergence criterion met
 Total energy in the final basis set =     -578.6524959069
   11    -578.6524984834      8.10e-07  Convergence criterion met
 Total energy in the final basis set =     -578.6524984834
   11    -578.6525000184      8.09e-07  Convergence criterion met
 Total energy in the final basis set =     -578.6525000184
   11    -578.6525010460      8.09e-07  Convergence criterion met
 Total energy in the final basis set =     -578.6525010460

             Standard Nuclear Orientation (Angstroms)
    I     Atom           X                Y                Z
 ----------------------------------------------------------------
    1      Cl      2.1255707835    -1.4827606277    -0.2512986901
    2      C      -0.9082627331     0.6864379130    -0.2906218584
    3      C       0.3273821542     1.0900249910     0.3710288028
    4      C      -1.4607426130    -0.6804732555     0.1381938789
    5      H      -0.8122561571     0.7752554508    -1.3769007625
    6      H      -1.6334693722     1.4782877446     0.0082717382
    7      H       0.4951789249     0.8584578850     1.4189279922
    8      H       1.0475491204     1.7442035482    -0.1100755367
    9      H      -1.5921703505    -0.7331393935     1.2232512488
   10      H      -2.4278574602    -0.8627137045    -0.3366174937
   11      H      -0.7453232969    -1.4519795515    -0.1594593195
 ----------------------------------------------------------------

   11    -578.6525016479      8.09e-07  Convergence criterion met
 Total energy in the final basis set =     -578.6525016479

                    Orbital Energies (a.u.)
 --------------------------------------------------------------

 Alpha MOs
 -- Occupied --
******* -10.313 -10.248 -10.206  -9.377  -7.140  -7.132  -7.132
 -0.849  -0.726  -0.702  -0.635  -0.524  -0.489  -0.467  -0.406
 -0.395  -0.385  -0.252  -0.237  -0.237

 Beta MOs
 -- Occupied --
******* -10.313 -10.248 -10.206  -9.377  -7.140  -7.132  -7.132
 -0.849  -0.726  -0.702  -0.635  -0.524  -0.489  -0.467  -0.406
 -0.395  -0.385  -0.252  -0.237  -0.237

          Ground-State Mulliken Net Atomic Charges

     Atom                 Charge (a.u.)    Spin (a.u.)
  --------------------------------------------------------
      1 Cl                   -0.503525      -0.000000
      2 C                    -0.233030      -0.000000
      3 C                    -0.064136       0.000000
      4 C                    -0.324062       0.000000
      5 H                     0.163687       0.000000
      6 H                     0.159462       0.000000
      7 H                     0.189848      -0.000000
      8 H                     0.188683      -0.000000
      9 H                     0.117219      -0.000000
     10 H                     0.118640      -0.000000
     11 H                     0.187214       0.000000
  --------------------------------------------------------
  Sum of atomic charges =     0.000000

                    Cartesian Multipole Moments
 -----------------------------------------------------------------
    Charge (ESU x 10^10)
                 0.0000
    Dipole Moment (Debye)
         X      -5.1917      Y       5.4005      Z       1.0203
       Tot       7.5604
    Quadrupole Moments (Debye-Ang)
        XX     -41.5298     XY       7.3136     YY     -34.3322
        XZ       1.5815     YZ      -0.1917     ZZ     -32.1916

 Final energy is   -578.652501647894
 **  OPTIMIZATION CONVERGED  **
 Total job time:  105.07s(wall), 1117.39s(cpu)
        *  Thank you very much for using Q-Chem.  Have a nice day.  *
