 Q-Chem 5.1, Q-Chem, Inc., Pleasanton, CA (2018)
 Q-Chem 5.1.1 for Intel X86 EM64T Linux

User input:
--------------------------------------------------------------

$comment
potential surface scanner
$end

$rem
JOBTYPE  PES_SCAN
UNRESTRICTED TRUE
SYM_IGNORE  TRUE
GEOM_OPT_MAX_CYCLES 400
SCF_MAX_CYCLES 400
METHOD   B3LYP
BASIS   6-31G**
PDB_PRINT 2
SCF_CONVERGENCE 6
THRESH 14
SCF_PRINT 1
$end
$molecule
0 3
Cl 2.357952 -1.706131 -0.475583
C -0.924356 0.726844 -0.280145
C 0.379210 1.055320 0.366420
C -1.533043 -0.596797 0.203447
H -0.802605 0.704234 -1.372079
H -1.653456 1.538004 -0.094702
H 0.574892 0.759706 1.392774
H 1.076487 1.745156 -0.097357
H -1.689586 -0.581501 1.287944
H -2.501007 -0.787140 -0.270987
H -0.868888 -1.436096 -0.025037
$end
$scan
stre 1 3 3.400000 3.401000 0.100000
$end
--------------------------------------------------------------

   22    -578.6169063899      6.07e-07  Convergence criterion met
 Total energy in the final basis set =     -578.6169063899
   21    -578.6163502154      5.74e-07  Convergence criterion met
 Total energy in the final basis set =     -578.6163502154
   21    -578.6164795277      6.05e-07  Convergence criterion met
 Total energy in the final basis set =     -578.6164795277
   21    -578.6165211490      6.38e-07  Convergence criterion met
 Total energy in the final basis set =     -578.6165211490
   21    -578.6165231543      6.34e-07  Convergence criterion met
 Total energy in the final basis set =     -578.6165231543
   21    -578.6165253515      6.24e-07  Convergence criterion met
 Total energy in the final basis set =     -578.6165253515
   21    -578.6165267302      6.16e-07  Convergence criterion met
 Total energy in the final basis set =     -578.6165267302
   22    -578.6165297153      7.69e-07  Convergence criterion met
 Total energy in the final basis set =     -578.6165297153
   20    -578.6165314369      7.69e-07  Convergence criterion met
 Total energy in the final basis set =     -578.6165314369
   20    -578.6165331231      6.85e-07  Convergence criterion met
 Total energy in the final basis set =     -578.6165331231

             Standard Nuclear Orientation (Angstroms)
    I     Atom           X                Y                Z
 ----------------------------------------------------------------
    1      Cl      2.3402261209    -1.6100757937    -0.4922415988
    2      C      -0.9149293377     0.7151787516    -0.2830548423
    3      C       0.3873648680     1.0362874387     0.3697887426
    4      C      -1.5428329735    -0.5959427644     0.2093374489
    5      H      -0.7858926008     0.6800142187    -1.3737998660
    6      H      -1.6364024655     1.5362198926    -0.1114538858
    7      H       0.5771650365     0.7408487112     1.3971429297
    8      H       1.0962279134     1.7127459298    -0.0959081256
    9      H      -1.7070978188    -0.5685113596     1.2924087515
   10      H      -2.5097152172    -0.7791267788    -0.2702329295
   11      H      -0.8885135253    -1.4460392460    -0.0072916248
 ----------------------------------------------------------------

   20    -578.6165338470      6.60e-07  Convergence criterion met
 Total energy in the final basis set =     -578.6165338470

                    Orbital Energies (a.u.)
 --------------------------------------------------------------

 Alpha MOs
 -- Occupied --
******* -10.184 -10.181 -10.172  -9.506  -7.281  -7.258  -7.258
 -0.841  -0.777  -0.669  -0.577  -0.449  -0.435  -0.404  -0.401
 -0.356  -0.351  -0.347  -0.345  -0.337  -0.191

 Beta MOs
 -- Occupied --
******* -10.185 -10.172 -10.167  -9.500  -7.260  -7.254  -7.254
 -0.787  -0.768  -0.652  -0.562  -0.444  -0.428  -0.396  -0.348
 -0.342  -0.334  -0.331  -0.330

          Ground-State Mulliken Net Atomic Charges

     Atom                 Charge (a.u.)    Spin (a.u.)
  --------------------------------------------------------
      1 Cl                    0.001207       1.007709
      2 C                    -0.182138      -0.075495
      3 C                    -0.212394       1.072262
      4 C                    -0.318361       0.011857
      5 H                     0.101110       0.017380
      6 H                     0.105156       0.060181
      7 H                     0.096107      -0.047489
      8 H                     0.094643      -0.047730
      9 H                     0.102582      -0.000800
     10 H                     0.098775       0.001171
     11 H                     0.113312       0.000954
  --------------------------------------------------------
  Sum of atomic charges =     0.000000

                    Cartesian Multipole Moments
 -----------------------------------------------------------------
    Charge (ESU x 10^10)
                 0.0000
    Dipole Moment (Debye)
         X      -0.1889      Y       0.0648      Z      -0.0688
       Tot       0.2113
    Quadrupole Moments (Debye-Ang)
        XX     -33.5577     XY       0.3003     YY     -33.5569
        XZ      -0.1460     YZ      -1.2472     ZZ     -31.6317

 Final energy is   -578.616533846957
 **  OPTIMIZATION CONVERGED  **
 Total job time:  61.40s(wall), 630.98s(cpu)
        *  Thank you very much for using Q-Chem.  Have a nice day.  *
