 Q-Chem 5.1, Q-Chem, Inc., Pleasanton, CA (2018)
 Q-Chem 5.1.1 for Intel X86 EM64T Linux

User input:
--------------------------------------------------------------

$comment
potential surface scanner
$end

$rem
JOBTYPE  PES_SCAN
UNRESTRICTED TRUE
SYM_IGNORE  TRUE
GEOM_OPT_MAX_CYCLES 400
SCF_MAX_CYCLES 400
METHOD   B3LYP
BASIS   6-31G**
PDB_PRINT 2
SCF_CONVERGENCE 6
THRESH 14
SCF_PRINT 1
$end
$molecule
0 3
Cl 2.241430 -1.053835 -0.383867
C -0.869781 0.648289 -0.305259
C 0.473348 0.864850 0.310778
C -1.596491 -0.596140 0.221893
H -0.772388 0.583292 -1.398604
H -1.513289 1.531282 -0.132080
H 0.642190 0.592918 1.350166
H 1.156315 1.598484 -0.108939
H -1.721098 -0.545064 1.309512
H -2.591890 -0.695557 -0.222769
H -1.032745 -1.506921 -0.006140
$end
$scan
stre 1 3 2.600000 2.601000 0.100000
$end
--------------------------------------------------------------

   12    -578.6062148784      9.60e-07  Convergence criterion met
 Total energy in the final basis set =     -578.6062148784
   36    -578.6023123853      5.18e-07  Convergence criterion met
 Total energy in the final basis set =     -578.6023123853
   46    -578.6024308240      3.82e-07  Convergence criterion met
 Total energy in the final basis set =     -578.6024308240
   34    -578.6025200535      5.45e-07  Convergence criterion met
 Total energy in the final basis set =     -578.6025200535
   37    -578.6026527312      2.52e-07  Convergence criterion met
 Total energy in the final basis set =     -578.6026527312
   27    -578.6030225002      9.64e-07  Convergence criterion met
 Total energy in the final basis set =     -578.6030225002
   22    -578.6035109602      7.02e-07  Convergence criterion met
 Total energy in the final basis set =     -578.6035109602
   21    -578.6042813037      2.19e-07  Convergence criterion met
   10    -578.6122299431      9.97e-07  Convergence criterion met
 Total energy in the final basis set =     -578.6122299431
   10    -578.6122325660      9.97e-07  Convergence criterion met
 Total energy in the final basis set =     -578.6122325660
   10    -578.6122367979      9.98e-07  Convergence criterion met
 Total energy in the final basis set =     -578.6122367979
   10    -578.6122434249      9.96e-07  Convergence criterion met
 Total energy in the final basis set =     -578.6122434249
   10    -578.6122497034      9.86e-07  Convergence criterion met
 Total energy in the final basis set =     -578.6122497034
   10    -578.6122527563      9.72e-07  Convergence criterion met
 Total energy in the final basis set =     -578.6122527563

             Standard Nuclear Orientation (Angstroms)
    I     Atom           X                Y                Z
 ----------------------------------------------------------------
    1      Cl      2.7060943800     0.2330075039    -0.9035349563
    2      C      -0.7994635811     0.4528374229    -0.3154038060
    3      C       0.4854736612     0.4656213332     0.4286574172
    4      C      -1.8161294769    -0.5250048462     0.3035842245
    5      H      -0.6139073881     0.1890626490    -1.3639345300
    6      H      -1.2414079505     1.4648384097    -0.3342500826
    7      H       0.5490334635     0.4915230734     1.5149825790
    8      H       1.3709163250     0.9600657488    -0.0701704873
    9      H      -2.0237861053    -0.2706963844     1.3479857727
   10      H      -2.7615345782    -0.4884479642    -0.2463120989
   11      H      -1.4396877496    -1.5512089460     0.2730869678
 ----------------------------------------------------------------

   10    -578.6122533561      9.65e-07  Convergence criterion met
 Total energy in the final basis set =     -578.6122533561

                    Orbital Energies (a.u.)
 --------------------------------------------------------------

 Alpha MOs
 -- Occupied --
******* -10.225 -10.208 -10.192  -9.460  -7.231  -7.213  -7.213
 -0.825  -0.797  -0.698  -0.606  -0.495  -0.465  -0.432  -0.393
 -0.375  -0.364  -0.322  -0.317  -0.303  -0.225

 Beta MOs
 -- Occupied --
******* -10.208 -10.207 -10.192  -9.455  -7.214  -7.210  -7.209
 -0.796  -0.772  -0.673  -0.585  -0.468  -0.453  -0.422  -0.374
 -0.367  -0.359  -0.305  -0.304

          Ground-State Mulliken Net Atomic Charges

     Atom                 Charge (a.u.)    Spin (a.u.)
  --------------------------------------------------------
      1 Cl                   -0.149280       0.745950
      2 C                    -0.195579      -0.061370
      3 C                    -0.185257       1.248200
      4 C                    -0.319316       0.029264
      5 H                     0.130557       0.018415
      6 H                     0.121207       0.060399
      7 H                     0.129545      -0.025920
      8 H                     0.118605      -0.021992
      9 H                     0.111804      -0.001507
     10 H                     0.113520       0.007504
     11 H                     0.124194       0.001057
  --------------------------------------------------------
  Sum of atomic charges =    -0.000000

                    Cartesian Multipole Moments
 -----------------------------------------------------------------
    Charge (ESU x 10^10)
                -0.0000
    Dipole Moment (Debye)
         X      -2.3691      Y       0.4179      Z       0.8512
       Tot       2.5519
    Quadrupole Moments (Debye-Ang)
        XX     -37.5585     XY      -0.3355     YY     -33.2817
        XZ       1.6888     YZ       0.5611     ZZ     -32.9332

 Final energy is   -578.612253356124
 **  OPTIMIZATION CONVERGED  **
 Total job time:  138.63s(wall), 1524.72s(cpu)
        *  Thank you very much for using Q-Chem.  Have a nice day.  *
