 Q-Chem 5.1, Q-Chem, Inc., Pleasanton, CA (2018)
 Q-Chem 5.1.1 for Intel X86 EM64T Linux

User input:
--------------------------------------------------------------

$comment
potential surface scanner
$end

$rem
JOBTYPE  PES_SCAN
UNRESTRICTED TRUE
SYM_IGNORE  TRUE
GEOM_OPT_MAX_CYCLES 400
SCF_MAX_CYCLES 400
METHOD   B3LYP
BASIS   6-31G**
PDB_PRINT 2
SCF_CONVERGENCE 6
THRESH 14
SCF_PRINT 1
$end
$molecule
0 1
Cl 1.759445 -0.576646 -0.207865
C -0.787170 0.556755 -0.324447
C 0.595837 0.741625 0.285548
C -1.534253 -0.685854 0.163299
H -0.697481 0.544007 -1.416574
H -1.360732 1.459349 -0.069835
H 0.565226 0.717231 1.377000
H 1.057152 1.675548 -0.038205
H -1.660479 -0.669448 1.251751
H -2.529632 -0.742170 -0.287655
H -0.992314 -1.598796 -0.098317
$end
$scan
stre 1 3 1.300000 1.301000 0.100000
$end
--------------------------------------------------------------

    9    -578.7495578000      3.58e-07  Convergence criterion met
 Total energy in the final basis set =     -578.7495578000
    9    -578.7399653932      3.39e-07  Convergence criterion met
 Total energy in the final basis set =     -578.7399653932
    9    -578.7011100352      3.56e-07  Convergence criterion met
 Total energy in the final basis set =     -578.7011100352
    8    -578.6285177424      8.90e-07  Convergence criterion met
 Total energy in the final basis set =     -578.6285177424
    8    -578.5343654276      6.29e-07  Convergence criterion met
 Total energy in the final basis set =     -578.5343654276
    8    -578.5222996056      6.14e-07  Convergence criterion met
 Total energy in the final basis set =     -578.5222996056
    8    -578.5217279488      6.04e-07  Convergence criterion met
 Total energy in the final basis set =     -578.5217279488
    8    -578.5217943734      5.98e-07  Convergence criterion met
    8    -578.5218285825      5.96e-07  Convergence criterion met
 Total energy in the final basis set =     -578.5218285825
    8    -578.5218376464      5.96e-07  Convergence criterion met
 Total energy in the final basis set =     -578.5218376464
    8    -578.5218449254      5.96e-07  Convergence criterion met
 Total energy in the final basis set =     -578.5218449254
    8    -578.5218516151      5.97e-07  Convergence criterion met
 Total energy in the final basis set =     -578.5218516151
    8    -578.5218566106      5.96e-07  Convergence criterion met
 Total energy in the final basis set =     -578.5218566106
    8    -578.5218593462      5.95e-07  Convergence criterion met
 Total energy in the final basis set =     -578.5218593462

             Standard Nuclear Orientation (Angstroms)
    I     Atom           X                Y                Z
 ----------------------------------------------------------------
    1      Cl      1.5505164901    -0.3696443562    -0.0715677849
    2      C      -0.7561805006     0.5362419707    -0.3243067691
    3      C       0.7326877529     0.5940296392     0.2325520105
    4      C      -1.5256294087    -0.6959392979     0.1527520176
    5      H      -0.7024242987     0.5419001030    -1.4220276860
    6      H      -1.2693141486     1.4533917252    -0.0151248074
    7      H       0.5406945698     0.7781003194     1.3219642052
    8      H       1.0267355853     1.6313445246    -0.0693101587
    9      H      -1.6213660361    -0.7036194530     1.2451063284
   10      H      -2.5346376091    -0.7201838509    -0.2705014370
   11      H      -1.0254833963    -1.6240203243    -0.1448359187
 ----------------------------------------------------------------

    8    -578.5218602338      5.94e-07  Convergence criterion met
 Total energy in the final basis set =     -578.5218602338

                    Orbital Energies (a.u.)
 --------------------------------------------------------------

 Alpha MOs
 -- Occupied --
******* -10.216 -10.184 -10.175  -9.468  -7.231  -7.220  -7.220
 -1.017  -0.760  -0.652  -0.581  -0.507  -0.502  -0.460  -0.424
 -0.381  -0.359  -0.342  -0.256  -0.252

 Beta MOs
 -- Occupied --
******* -10.216 -10.184 -10.175  -9.468  -7.231  -7.220  -7.220
 -1.017  -0.760  -0.652  -0.581  -0.507  -0.502  -0.460  -0.424
 -0.381  -0.359  -0.342  -0.256  -0.252

          Ground-State Mulliken Net Atomic Charges

     Atom                 Charge (a.u.)    Spin (a.u.)
  --------------------------------------------------------
      1 Cl                    0.091385       0.000000
      2 C                    -0.194787      -0.000000
      3 C                    -0.292400       0.000000
      4 C                    -0.323342       0.000000
      5 H                     0.097685       0.000000
      6 H                     0.095484      -0.000000
      7 H                     0.098785      -0.000000
      8 H                     0.101368       0.000000
      9 H                     0.102715      -0.000000
     10 H                     0.107901      -0.000000
     11 H                     0.115208      -0.000000
  --------------------------------------------------------
  Sum of atomic charges =    -0.000000

                    Cartesian Multipole Moments
 -----------------------------------------------------------------
    Charge (ESU x 10^10)
                 0.0000
    Dipole Moment (Debye)
         X      -0.5466      Y       0.5460      Z       0.1611
       Tot       0.7892
    Quadrupole Moments (Debye-Ang)
        XX     -33.6882     XY       0.5687     YY     -32.6050
        XZ       0.2066     YZ       0.1179     ZZ     -32.5884

 Final energy is   -578.521860233782
 **  OPTIMIZATION CONVERGED  **
 Total job time:  55.50s(wall), 597.83s(cpu)
        *  Thank you very much for using Q-Chem.  Have a nice day.  *
