 Q-Chem 5.1, Q-Chem, Inc., Pleasanton, CA (2018)
 Q-Chem 5.1.1 for Intel X86 EM64T Linux

User input:
--------------------------------------------------------------

$comment
potential surface scanner
$end

$rem
JOBTYPE  PES_SCAN
UNRESTRICTED TRUE
SYM_IGNORE  TRUE
GEOM_OPT_MAX_CYCLES 400
SCF_MAX_CYCLES 400
METHOD   B3LYP
BASIS   6-31G**
PDB_PRINT 2
SCF_CONVERGENCE 6
THRESH 14
SCF_PRINT 1
$end
$molecule
0 1
Cl 2.124328 -1.111409 -0.309823
C -0.869119 0.627877 -0.304818
C 0.388728 0.980376 0.362582
C -1.522144 -0.673199 0.166761
H -0.738392 0.655227 -1.391235
H -1.533714 1.488853 -0.071056
H 0.538595 0.748810 1.412105
H 1.068555 1.700362 -0.078884
H -1.679995 -0.668997 1.249972
H -2.491466 -0.812809 -0.318528
H -0.869770 -1.513490 -0.082373
$end
$scan
stre 1 3 2.900000 2.901000 0.100000
$end
--------------------------------------------------------------

   10    -578.6778475520      9.48e-07  Convergence criterion met
 Total energy in the final basis set =     -578.6778475520
   11    -578.6704063494      2.44e-07  Convergence criterion met
 Total energy in the final basis set =     -578.6704063494
   11    -578.6704841805      2.45e-07  Convergence criterion met
 Total energy in the final basis set =     -578.6704841805
   11    -578.6707507004      2.46e-07  Convergence criterion met
 Total energy in the final basis set =     -578.6707507004
   11    -578.6707544200      2.46e-07  Convergence criterion met
 Total energy in the final basis set =     -578.6707544200
   11    -578.6707622374      2.46e-07  Convergence criterion met
 Total energy in the final basis set =     -578.6707622374
   11    -578.6707644159      2.46e-07  Convergence criterion met
 Total energy in the final basis set =     -578.6707644159
   11    -578.6707665351      2.46e-07  Convergence criterion met
 Total energy in the final basis set =     -578.6707665351
   11    -578.6707676878      2.46e-07  Convergence criterion met
 Total energy in the final basis set =     -578.6707676878

             Standard Nuclear Orientation (Angstroms)
    I     Atom           X                Y                Z
 ----------------------------------------------------------------
    1      Cl      2.1660591085    -1.1767807790    -0.3146586474
    2      C      -0.8766192459     0.6362021998    -0.3027812578
    3      C       0.3741145678     0.9993694398     0.3660064601
    4      C      -1.5195791751    -0.6715164748     0.1662333130
    5      H      -0.7487529776     0.6712402633    -1.3893877670
    6      H      -1.5492929495     1.4912003552    -0.0648853716
    7      H       0.5314537993     0.7591096146     1.4128142144
    8      H       1.0627072742     1.7068657792    -0.0831057093
    9      H      -1.6808707365    -0.6693910537     1.2488018808
   10      H      -2.4857369649    -0.8193244354    -0.3227993239
   11      H      -0.8578767003    -1.5053739090    -0.0815347913
 ----------------------------------------------------------------

   11    -578.6707684959      2.46e-07  Convergence criterion met
 Total energy in the final basis set =     -578.6707684959

                    Orbital Energies (a.u.)
 --------------------------------------------------------------

 Alpha MOs
 -- Occupied --
******* -10.306 -10.242 -10.203  -9.386  -7.149  -7.141  -7.141
 -0.842  -0.723  -0.709  -0.630  -0.515  -0.485  -0.463  -0.402
 -0.391  -0.383  -0.266  -0.245  -0.245

 Beta MOs
 -- Occupied --
******* -10.306 -10.242 -10.203  -9.386  -7.149  -7.141  -7.141
 -0.842  -0.723  -0.709  -0.630  -0.515  -0.485  -0.463  -0.402
 -0.391  -0.383  -0.266  -0.245  -0.245

          Ground-State Mulliken Net Atomic Charges

     Atom                 Charge (a.u.)    Spin (a.u.)
  --------------------------------------------------------
      1 Cl                   -0.476670      -0.000000
      2 C                    -0.223446       0.000000
      3 C                    -0.072867      -0.000000
      4 C                    -0.325457       0.000000
      5 H                     0.165388       0.000000
      6 H                     0.151065       0.000000
      7 H                     0.186977       0.000000
      8 H                     0.186779       0.000000
      9 H                     0.114344      -0.000000
     10 H                     0.118030      -0.000000
     11 H                     0.175856       0.000000
  --------------------------------------------------------
  Sum of atomic charges =     0.000000

                    Cartesian Multipole Moments
 -----------------------------------------------------------------
    Charge (ESU x 10^10)
                 0.0000
    Dipole Moment (Debye)
         X      -4.9083      Y       4.4027      Z       1.0919
       Tot       6.6833
    Quadrupole Moments (Debye-Ang)
        XX     -41.5210     XY       5.7046     YY     -32.8391
        XZ       1.8544     YZ      -0.2003     ZZ     -32.2637

 Final energy is   -578.670768495869
 **  OPTIMIZATION CONVERGED  **
 Total job time:  36.51s(wall), 392.27s(cpu)
        *  Thank you very much for using Q-Chem.  Have a nice day.  *
