 Q-Chem 5.1, Q-Chem, Inc., Pleasanton, CA (2018)
 Q-Chem 5.1.1 for Intel X86 EM64T Linux

User input:
--------------------------------------------------------------

$comment
potential surface scanner
$end

$rem
JOBTYPE  PES_SCAN
UNRESTRICTED TRUE
SYM_IGNORE  TRUE
GEOM_OPT_MAX_CYCLES 400
SCF_MAX_CYCLES 400
METHOD   B3LYP
BASIS   6-31G**
PDB_PRINT 2
SCF_CONVERGENCE 6
THRESH 14
SCF_PRINT 1
$end
$molecule
0 3
Cl 2.394475 -1.862585 -0.510986
C -0.933173 0.739902 -0.277534
C 0.358014 1.095531 0.379174
C -1.518843 -0.595858 0.201374
H -0.802295 0.720043 -1.368443
H -1.680140 1.535633 -0.097114
H 0.550077 0.806477 1.408261
H 1.048557 1.793372 -0.082666
H -1.675900 -0.586433 1.285889
H -2.483423 -0.800078 -0.274183
H -0.841749 -1.424405 -0.029075
$end
$scan
stre 1 3 3.600000 3.601000 0.100000
$end
--------------------------------------------------------------

   15    -578.6174070055      9.75e-07  Convergence criterion met
 Total energy in the final basis set =     -578.6174070055
   20    -578.6171658770      5.42e-07  Convergence criterion met
 Total energy in the final basis set =     -578.6171658770
   20    -578.6171706389      5.79e-07  Convergence criterion met
 Total energy in the final basis set =     -578.6171706389
   20    -578.6171862552      8.60e-07  Convergence criterion met
 Total energy in the final basis set =     -578.6171862552
   20    -578.6171869771      9.06e-07  Convergence criterion met
 Total energy in the final basis set =     -578.6171869771

             Standard Nuclear Orientation (Angstroms)
    I     Atom           X                Y                Z
 ----------------------------------------------------------------
    1      Cl      2.3748831743    -1.7846051781    -0.4937206227
    2      C      -0.9286893020     0.7334352960    -0.2788166759
    3      C       0.3685501947     1.0760508296     0.3730411335
    4      C      -1.5257012621    -0.5963638240     0.2023903128
    5      H      -0.8021068073     0.7121029818    -1.3702406159
    6      H      -1.6672419959     1.5364496039    -0.0960227215
    7      H       0.5625509776     0.7834679445     1.4006913640
    8      H       1.0629640724     1.7691977252    -0.0900489487
    9      H      -1.6828239950    -0.5838879739     1.2868729134
   10      H      -2.4917473633    -0.7938335009    -0.2730197055
   11      H      -0.8550376934    -1.4304149041    -0.0264294334
 ----------------------------------------------------------------

   21    -578.6171885767      7.16e-07  Convergence criterion met
 Total energy in the final basis set =     -578.6171885767

                    Orbital Energies (a.u.)
 --------------------------------------------------------------

 Alpha MOs
 -- Occupied --
******* -10.184 -10.182 -10.172  -9.507  -7.282  -7.259  -7.259
 -0.842  -0.777  -0.669  -0.577  -0.449  -0.435  -0.405  -0.401
 -0.356  -0.351  -0.348  -0.345  -0.337  -0.193

 Beta MOs
 -- Occupied --
******* -10.185 -10.171 -10.168  -9.501  -7.260  -7.255  -7.255
 -0.788  -0.768  -0.652  -0.562  -0.444  -0.428  -0.396  -0.348
 -0.342  -0.334  -0.332  -0.331

          Ground-State Mulliken Net Atomic Charges

     Atom                 Charge (a.u.)    Spin (a.u.)
  --------------------------------------------------------
      1 Cl                    0.001195       1.006146
      2 C                    -0.183105      -0.075549
      3 C                    -0.213440       1.074473
      4 C                    -0.318917       0.011495
      5 H                     0.100908       0.016830
      6 H                     0.105536       0.060343
      7 H                     0.096220      -0.047559
      8 H                     0.095644      -0.047788
      9 H                     0.102444      -0.000817
     10 H                     0.098395       0.001300
     11 H                     0.115121       0.001127
  --------------------------------------------------------
  Sum of atomic charges =     0.000000

                    Cartesian Multipole Moments
 -----------------------------------------------------------------
    Charge (ESU x 10^10)
                 0.0000
    Dipole Moment (Debye)
         X      -0.1859      Y       0.0606      Z      -0.0656
       Tot       0.2062
    Quadrupole Moments (Debye-Ang)
        XX     -33.5901     XY       0.1019     YY     -33.7207
        XZ       0.1495     YZ      -1.0472     ZZ     -31.3371

 Final energy is   -578.617188576720
 **  OPTIMIZATION CONVERGED  **
 Total job time:  31.93s(wall), 329.38s(cpu)
        *  Thank you very much for using Q-Chem.  Have a nice day.  *
