 Q-Chem 5.1, Q-Chem, Inc., Pleasanton, CA (2018)
 Q-Chem 5.1.1 for Intel X86 EM64T Linux

User input:
--------------------------------------------------------------

$comment
potential surface scanner
$end

$rem
JOBTYPE  PES_SCAN
UNRESTRICTED TRUE
SYM_IGNORE  TRUE
GEOM_OPT_MAX_CYCLES 400
SCF_MAX_CYCLES 400
METHOD   B3LYP
BASIS   6-31G**
PDB_PRINT 2
SCF_CONVERGENCE 6
THRESH 14
SCF_PRINT 1
$end
$molecule
0 3
Cl 2.488090 -2.334466 -0.608816
C -0.958748 0.778429 -0.270639
C 0.289899 1.215760 0.417758
C -1.470828 -0.591997 0.194540
H -0.799553 0.767122 -1.357849
H -1.758872 1.524875 -0.109390
H 0.472132 0.944317 1.453570
H 0.955163 1.943397 -0.035022
H -1.618317 -0.605127 1.280414
H -2.427892 -0.837962 -0.276171
H -0.755472 -1.382745 -0.053696
$end
$scan
stre 1 3 4.200000 4.201000 0.100000
$end
--------------------------------------------------------------

   27    -578.6176593632      4.10e-07  Convergence criterion met
 Total energy in the final basis set =     -578.6176593632
   25    -578.6176551220      7.13e-07  Convergence criterion met
 Total energy in the final basis set =     -578.6176551220
   27    -578.6176665797      4.61e-07  Convergence criterion met
 Total energy in the final basis set =     -578.6176665797
   28    -578.6176896591      2.43e-07  Convergence criterion met
 Total energy in the final basis set =     -578.6176896591
   29    -578.6176910425      3.89e-07  Convergence criterion met
 Total energy in the final basis set =     -578.6176910425
   29    -578.6176944953      9.44e-07  Convergence criterion met
 Total energy in the final basis set =     -578.6176944953

             Standard Nuclear Orientation (Angstroms)
    I     Atom           X                Y                Z
 ----------------------------------------------------------------
    1      Cl      2.4792775839    -2.2556092290    -0.5879735111
    2      C      -0.9552165550     0.7723837008    -0.2710934274
    3      C       0.3026204247     1.1950467028     0.4095923978
    4      C      -1.4800796389    -0.5929295196     0.1950114251
    5      H      -0.8042638662     0.7622419532    -1.3594654395
    6      H      -1.7457450109     1.5274665548    -0.1021382304
    7      H       0.4892381746     0.9194902374     1.4434939590
    8      H       0.9712792843     1.9180523847    -0.0456665689
    9      H      -1.6313142433    -0.6024011819     1.2803908626
   10      H      -2.4382735384    -0.8307513909    -0.2778242636
   11      H      -0.7719206146    -1.3913872124    -0.0496282036
 ----------------------------------------------------------------

   29    -578.6176951372      1.02e-07  Convergence criterion met
 Total energy in the final basis set =     -578.6176951372

                    Orbital Energies (a.u.)
 --------------------------------------------------------------

 Alpha MOs
 -- Occupied --
******* -10.184 -10.183 -10.172  -9.509  -7.284  -7.261  -7.260
 -0.843  -0.777  -0.670  -0.577  -0.450  -0.435  -0.406  -0.401
 -0.356  -0.351  -0.350  -0.346  -0.337  -0.194

 Beta MOs
 -- Occupied --
******* -10.185 -10.172 -10.169  -9.502  -7.262  -7.257  -7.256
 -0.790  -0.768  -0.652  -0.562  -0.444  -0.428  -0.396  -0.349
 -0.342  -0.335  -0.334  -0.332

          Ground-State Mulliken Net Atomic Charges

     Atom                 Charge (a.u.)    Spin (a.u.)
  --------------------------------------------------------
      1 Cl                    0.001354       1.001964
      2 C                    -0.182983      -0.075992
      3 C                    -0.217176       1.079015
      4 C                    -0.319125       0.012003
      5 H                     0.101855       0.016157
      6 H                     0.106113       0.060599
      7 H                     0.097282      -0.047783
      8 H                     0.096457      -0.048094
      9 H                     0.102547      -0.000867
     10 H                     0.098628       0.001609
     11 H                     0.115049       0.001389
  --------------------------------------------------------
  Sum of atomic charges =     0.000000

                    Cartesian Multipole Moments
 -----------------------------------------------------------------
    Charge (ESU x 10^10)
                 0.0000
    Dipole Moment (Debye)
         X      -0.1902      Y       0.0368      Z      -0.0823
       Tot       0.2105
    Quadrupole Moments (Debye-Ang)
        XX     -33.5441     XY       0.1433     YY     -33.6782
        XZ      -0.0660     YZ      -1.0312     ZZ     -31.3224

 Final energy is   -578.617695137193
 **  OPTIMIZATION CONVERGED  **
 Total job time:  42.24s(wall), 482.65s(cpu)
        *  Thank you very much for using Q-Chem.  Have a nice day.  *
