 Q-Chem 5.1, Q-Chem, Inc., Pleasanton, CA (2018)
 Q-Chem 5.1.1 for Intel X86 EM64T Linux

User input:
--------------------------------------------------------------

$comment
potential surface scanner
$end

$rem
JOBTYPE  PES_SCAN
UNRESTRICTED TRUE
SYM_IGNORE  TRUE
GEOM_OPT_MAX_CYCLES 400
SCF_MAX_CYCLES 400
METHOD   B3LYP
BASIS   6-31G**
PDB_PRINT 2
SCF_CONVERGENCE 6
THRESH 14
SCF_PRINT 1
$end
$molecule
0 3
Cl 2.139595 -3.330572 -0.800641
C -0.978254 0.844482 -0.259539
C 0.124780 1.509833 0.492031
C -1.238095 -0.603646 0.181198
H -0.765172 0.874189 -1.336751
H -1.915590 1.420008 -0.139933
H 0.287519 1.288241 1.542814
H 0.675504 2.340765 0.063507
H -1.472166 -0.650102 1.250635
H -2.082547 -1.038294 -0.363400
H -0.359978 -1.233305 0.004780
$end
$scan
stre 1 3 5.300000 5.301000 0.100000
$end
--------------------------------------------------------------

   11    -578.6178054448      5.52e-07  Convergence criterion met
 Total energy in the final basis set =     -578.6178054448
   11    -578.6177103502      5.84e-07  Convergence criterion met
 Total energy in the final basis set =     -578.6177103502
   11    -578.6177551469      5.78e-07  Convergence criterion met
 Total energy in the final basis set =     -578.6177551469
   11    -578.6178112422      5.63e-07  Convergence criterion met
 Total energy in the final basis set =     -578.6178112422
   11    -578.6178146091      5.63e-07  Convergence criterion met
 Total energy in the final basis set =     -578.6178146091
   11    -578.6178196916      5.66e-07  Convergence criterion met
 Total energy in the final basis set =     -578.6178196916
   11    -578.6178207801      5.69e-07  Convergence criterion met
 Total energy in the final basis set =     -578.6178207801
   11    -578.6178237082      5.79e-07  Convergence criterion met
   11    -578.6179307890      7.14e-07  Convergence criterion met
 Total energy in the final basis set =     -578.6179307890
   11    -578.6179320632      7.12e-07  Convergence criterion met
 Total energy in the final basis set =     -578.6179320632
   11    -578.6179339387      7.10e-07  Convergence criterion met
 Total energy in the final basis set =     -578.6179339387
   11    -578.6179364098      7.09e-07  Convergence criterion met
 Total energy in the final basis set =     -578.6179364098
   11    -578.6179388696      7.10e-07  Convergence criterion met
 Total energy in the final basis set =     -578.6179388696
   11    -578.6179404903      7.11e-07  Convergence criterion met
 Total energy in the final basis set =     -578.6179404903

             Standard Nuclear Orientation (Angstroms)
    I     Atom           X                Y                Z
 ----------------------------------------------------------------
    1      Cl      2.5006721292    -3.1719523261    -0.8084279239
    2      C      -0.9889885738     0.8395475632    -0.2632119056
    3      C       0.1772766317     1.4187541532     0.4632827611
    4      C      -1.3649559910    -0.5725808307     0.2065035651
    5      H      -0.7877323872     0.8325169629    -1.3435779366
    6      H      -1.8716195484     1.4959792733    -0.1448951743
    7      H       0.3718298772     1.1534682881     1.4982856906
    8      H       0.7587922638     2.2279015183     0.0337890242
    9      H      -1.5927436375    -0.5797218301     1.2783635867
   10      H      -2.2455312677    -0.9485698282    -0.3241278497
   11      H      -0.5414034962    -1.2737439438     0.0387171623
 ----------------------------------------------------------------

   11    -578.6179413614      7.13e-07  Convergence criterion met
 Total energy in the final basis set =     -578.6179413614

                    Orbital Energies (a.u.)
 --------------------------------------------------------------

 Alpha MOs
 -- Occupied --
******* -10.185 -10.183 -10.172  -9.511  -7.285  -7.262  -7.262
 -0.845  -0.778  -0.670  -0.578  -0.450  -0.436  -0.407  -0.402
 -0.356  -0.352  -0.351  -0.347  -0.338  -0.195

 Beta MOs
 -- Occupied --
******* -10.186 -10.172 -10.169  -9.504  -7.263  -7.258  -7.258
 -0.791  -0.769  -0.653  -0.563  -0.444  -0.429  -0.397  -0.348
 -0.342  -0.336  -0.336  -0.334

          Ground-State Mulliken Net Atomic Charges

     Atom                 Charge (a.u.)    Spin (a.u.)
  --------------------------------------------------------
      1 Cl                    0.001434       1.000242
      2 C                    -0.182689      -0.076202
      3 C                    -0.219638       1.080754
      4 C                    -0.319567       0.010797
      5 H                     0.103103       0.017963
      6 H                     0.106369       0.060248
      7 H                     0.097849      -0.047951
      8 H                     0.096826      -0.048180
      9 H                     0.103270      -0.000789
     10 H                     0.099220       0.001237
     11 H                     0.113822       0.001882
  --------------------------------------------------------
  Sum of atomic charges =    -0.000000

                    Cartesian Multipole Moments
 -----------------------------------------------------------------
    Charge (ESU x 10^10)
                -0.0000
    Dipole Moment (Debye)
         X      -0.1958      Y      -0.0120      Z      -0.1003
       Tot       0.2203
    Quadrupole Moments (Debye-Ang)
        XX     -33.5445     XY       0.0810     YY     -33.8237
        XZ       0.4915     YZ      -0.1008     ZZ     -31.1194

 Final energy is   -578.617941361437
 **  OPTIMIZATION CONVERGED  **
 Total job time:  104.53s(wall), 1053.21s(cpu)
        *  Thank you very much for using Q-Chem.  Have a nice day.  *
