 Q-Chem 5.1, Q-Chem, Inc., Pleasanton, CA (2018)
 Q-Chem 5.1.1 for Intel X86 EM64T Linux

User input:
--------------------------------------------------------------

$comment
potential surface scanner
$end

$rem
JOBTYPE  PES_SCAN
UNRESTRICTED TRUE
SYM_IGNORE  TRUE
GEOM_OPT_MAX_CYCLES 400
SCF_MAX_CYCLES 400
METHOD   B3LYP
BASIS   6-31G**
PDB_PRINT 2
SCF_CONVERGENCE 6
THRESH 14
SCF_PRINT 1
$end
$molecule
0 3
Cl 2.297435 -3.026744 -0.589988
C -0.998527 0.844035 -0.251433
C 0.205223 1.397695 0.433237
C -1.326690 -0.597934 0.159646
H -0.865227 0.900230 -1.340867
H -1.878936 1.479659 -0.041005
H 0.454961 1.089969 1.444533
H 0.753391 2.234761 0.013436
H -1.495866 -0.666120 1.240270
H -2.228359 -0.961009 -0.343657
H -0.501808 -1.272940 -0.089472
$end
$scan
stre 1 3 4.900000 4.901000 0.100000
$end
--------------------------------------------------------------

   11    -578.6179138065      5.65e-07  Convergence criterion met
 Total energy in the final basis set =     -578.6179138065
   11    -578.6177746656      3.93e-07  Convergence criterion met
 Total energy in the final basis set =     -578.6177746656
   11    -578.6178073345      4.00e-07  Convergence criterion met
 Total energy in the final basis set =     -578.6178073345
   11    -578.6178605044      4.68e-07  Convergence criterion met
 Total energy in the final basis set =     -578.6178605044
   11    -578.6178643516      4.89e-07  Convergence criterion met
 Total energy in the final basis set =     -578.6178643516

             Standard Nuclear Orientation (Angstroms)
    I     Atom           X                Y                Z
 ----------------------------------------------------------------
    1      Cl      2.2707951395    -2.9525556117    -0.5688937243
    2      C      -0.9964590698     0.8394456797    -0.2515478237
    3      C       0.2152429145     1.3823298139     0.4278379077
    4      C      -1.3307805146    -0.6015980007     0.1581965710
    5      H      -0.8681180686     0.8967856441    -1.3415328711
    6      H      -1.8712417605     1.4808254299    -0.0353791471
    7      H       0.4682076093     1.0698702648     1.4368805036
    8      H       0.7679663779     2.2158162117     0.0069265716
    9      H      -1.4997300661    -0.6699555240     1.2388370762
   10      H      -2.2333522876    -0.9615500416    -0.3455677617
   11      H      -0.5069332740    -1.2778118661    -0.0910573021
 ----------------------------------------------------------------

   11    -578.6178692454      5.35e-07  Convergence criterion met
 Total energy in the final basis set =     -578.6178692454

                    Orbital Energies (a.u.)
 --------------------------------------------------------------

 Alpha MOs
 -- Occupied --
******* -10.184 -10.183 -10.172  -9.511  -7.285  -7.262  -7.262
 -0.845  -0.777  -0.669  -0.578  -0.450  -0.435  -0.407  -0.401
 -0.358  -0.352  -0.351  -0.346  -0.337  -0.195

 Beta MOs
 -- Occupied --
******* -10.185 -10.171 -10.169  -9.504  -7.263  -7.259  -7.258
 -0.791  -0.768  -0.652  -0.563  -0.444  -0.428  -0.396  -0.349
 -0.343  -0.336  -0.335  -0.332

          Ground-State Mulliken Net Atomic Charges

     Atom                 Charge (a.u.)    Spin (a.u.)
  --------------------------------------------------------
      1 Cl                    0.002920       1.000770
      2 C                    -0.182874      -0.075917
      3 C                    -0.218804       1.080596
      4 C                    -0.321661       0.011159
      5 H                     0.102111       0.017221
      6 H                     0.106148       0.060048
      7 H                     0.097665      -0.047811
      8 H                     0.096462      -0.048059
      9 H                     0.102576      -0.000825
     10 H                     0.098663       0.001371
     11 H                     0.116794       0.001447
  --------------------------------------------------------
  Sum of atomic charges =    -0.000000

                    Cartesian Multipole Moments
 -----------------------------------------------------------------
    Charge (ESU x 10^10)
                -0.0000
    Dipole Moment (Debye)
         X      -0.1760      Y      -0.0223      Z      -0.0806
       Tot       0.1949
    Quadrupole Moments (Debye-Ang)
        XX     -33.5779     XY      -0.0377     YY     -33.7044
        XZ       0.1955     YZ      -0.6882     ZZ     -31.1406

 Final energy is   -578.617869245351
 **  OPTIMIZATION CONVERGED  **
 Total job time:  19.82s(wall), 212.61s(cpu)
        *  Thank you very much for using Q-Chem.  Have a nice day.  *
