 Q-Chem 5.1, Q-Chem, Inc., Pleasanton, CA (2018)
 Q-Chem 5.1.1 for Intel X86 EM64T Linux

User input:
--------------------------------------------------------------

$comment
potential surface scanner
$end

$rem
JOBTYPE  PES_SCAN
UNRESTRICTED TRUE
SYM_IGNORE  TRUE
GEOM_OPT_MAX_CYCLES 400
SCF_MAX_CYCLES 400
METHOD   B3LYP
BASIS   6-31G**
PDB_PRINT 2
SCF_CONVERGENCE 6
THRESH 14
SCF_PRINT 1
$end
$molecule
0 1
Cl 1.759445 -0.576646 -0.207865
C -0.787170 0.556755 -0.324447
C 0.595837 0.741625 0.285548
C -1.534253 -0.685854 0.163299
H -0.697481 0.544007 -1.416574
H -1.360732 1.459349 -0.069835
H 0.565226 0.717231 1.377000
H 1.057152 1.675548 -0.038205
H -1.660479 -0.669448 1.251751
H -2.529632 -0.742170 -0.287655
H -0.992314 -1.598796 -0.098317
$end
$scan
stre 1 3 1.800000 1.801000 0.100000
$end
--------------------------------------------------------------

    9    -578.7495578000      3.58e-07  Convergence criterion met
 Total energy in the final basis set =     -578.7495578000
    9    -578.7493148841      3.52e-07  Convergence criterion met
 Total energy in the final basis set =     -578.7493148841
    9    -578.7493454835      3.55e-07  Convergence criterion met
 Total energy in the final basis set =     -578.7493454835

             Standard Nuclear Orientation (Angstroms)
    I     Atom           X                Y                Z
 ----------------------------------------------------------------
    1      Cl      1.7492325067    -0.5651898820    -0.2019792354
    2      C      -0.7849593229     0.5554790263    -0.3247042701
    3      C       0.6024592382     0.7347899611     0.2827512476
    4      C      -1.5338695636    -0.6862652640     0.1628977565
    5      H      -0.6974343503     0.5428034255    -1.4171429953
    6      H      -1.3562570871     1.4587242917    -0.0684925387
    7      H       0.5641400856     0.7183666368     1.3746828927
    8      H       1.0554274522     1.6743879437    -0.0382502716
    9      H      -1.6579279721    -0.6708493499     1.2516486273
   10      H      -2.5302783031    -0.7401089895    -0.2861013892
   11      H      -0.9949336837    -1.6005367997    -0.1006098237
 ----------------------------------------------------------------

    9    -578.7493500437      3.57e-07  Convergence criterion met
 Total energy in the final basis set =     -578.7493500437

                    Orbital Energies (a.u.)
 --------------------------------------------------------------

 Alpha MOs
 -- Occupied --
******* -10.244 -10.199 -10.180  -9.445  -7.209  -7.199  -7.199
 -0.856  -0.770  -0.678  -0.591  -0.473  -0.465  -0.426  -0.400
 -0.367  -0.358  -0.345  -0.292  -0.290

 Beta MOs
 -- Occupied --
******* -10.244 -10.199 -10.180  -9.445  -7.209  -7.199  -7.199
 -0.856  -0.770  -0.678  -0.591  -0.473  -0.465  -0.426  -0.400
 -0.367  -0.358  -0.345  -0.292  -0.290

          Ground-State Mulliken Net Atomic Charges

     Atom                 Charge (a.u.)    Spin (a.u.)
  --------------------------------------------------------
      1 Cl                   -0.097629       0.000000
      2 C                    -0.176832       0.000000
      3 C                    -0.276644      -0.000000
      4 C                    -0.317783      -0.000000
      5 H                     0.119426      -0.000000
      6 H                     0.107217       0.000000
      7 H                     0.149401       0.000000
      8 H                     0.150596       0.000000
      9 H                     0.104004       0.000000
     10 H                     0.107633      -0.000000
     11 H                     0.130612       0.000000
  --------------------------------------------------------
  Sum of atomic charges =    -0.000000

                    Cartesian Multipole Moments
 -----------------------------------------------------------------
    Charge (ESU x 10^10)
                -0.0000
    Dipole Moment (Debye)
         X      -1.5800      Y       1.4020      Z       0.4451
       Tot       2.1587
    Quadrupole Moments (Debye-Ang)
        XX     -35.6048     XY       1.2460     YY     -32.1017
        XZ       0.5410     YZ       0.2811     ZZ     -32.6100

 Final energy is   -578.749350043697
 **  OPTIMIZATION CONVERGED  **
 Total job time:  14.18s(wall), 144.24s(cpu)
        *  Thank you very much for using Q-Chem.  Have a nice day.  *
