 Q-Chem 5.1, Q-Chem, Inc., Pleasanton, CA (2018)
 Q-Chem 5.1.1 for Intel X86 EM64T Linux

User input:
--------------------------------------------------------------

$comment
potential surface scanner
$end

$rem
JOBTYPE  PES_SCAN
UNRESTRICTED TRUE
SYM_IGNORE  TRUE
GEOM_OPT_MAX_CYCLES 400
SCF_MAX_CYCLES 400
METHOD   B3LYP
BASIS   6-31G**
PDB_PRINT 2
SCF_CONVERGENCE 6
THRESH 14
SCF_PRINT 1
$end
$molecule
0 3
Cl 2.215334 -1.483389 -0.485605
C -0.895181 0.699373 -0.289171
C 0.405872 1.013447 0.369764
C -1.538692 -0.600729 0.211392
H -0.758634 0.651166 -1.378369
H -1.610819 1.527993 -0.130337
H 0.586281 0.724064 1.400255
H 1.113564 1.695807 -0.089698
H -1.700352 -0.567306 1.294604
H -2.507180 -0.778125 -0.266892
H -0.894591 -1.460703 -0.001252
$end
$scan
stre 1 3 3.100000 3.101000 0.100000
$end
--------------------------------------------------------------

   54    -578.6153074717      2.23e-07  Convergence criterion met
 Total energy in the final basis set =     -578.6153074717
   46    -578.6138890978      6.24e-07  Convergence criterion met
 Total energy in the final basis set =     -578.6138890978
   50    -578.6142105741      9.05e-07  Convergence criterion met
 Total energy in the final basis set =     -578.6142105741
   60    -578.6143030030      3.40e-07  Convergence criterion met
 Total energy in the final basis set =     -578.6143030030
   52    -578.6143059282      5.10e-07  Convergence criterion met
 Total energy in the final basis set =     -578.6143059282
   51    -578.6143104171      5.36e-07  Convergence criterion met
 Total energy in the final basis set =     -578.6143104171
   44    -578.6143122731      9.30e-07  Convergence criterion met
 Total energy in the final basis set =     -578.6143122731
   44    -578.6143158591      6.19e-07  Convergence criterion met
 Total energy in the final basis set =     -578.6143158591
   44    -578.6143174766      4.93e-07  Convergence criterion met
 Total energy in the final basis set =     -578.6143174766
   43    -578.6143200994      5.21e-07  Convergence criterion met
 Total energy in the final basis set =     -578.6143200994

             Standard Nuclear Orientation (Angstroms)
    I     Atom           X                Y                Z
 ----------------------------------------------------------------
    1      Cl      2.1785665887    -1.4063953181    -0.4831297600
    2      C      -0.8868623709     0.6901843964    -0.2918974759
    3      C       0.4153002772     0.9967675029     0.3687513693
    4      C      -1.5422184996    -0.6022316743     0.2132808843
    5      H      -0.7479568715     0.6351599041    -1.3804657168
    6      H      -1.5961400100     1.5252810604    -0.1388249316
    7      H       0.5902894965     0.7124643242     1.4015331325
    8      H       1.1263796021     1.6760253853    -0.0900056644
    9      H      -1.7024130637    -0.5640524502     1.2965516728
   10      H      -2.5126978774    -0.7723504166    -0.2635823049
   11      H      -0.9066452715    -1.4692547142     0.0024797948
 ----------------------------------------------------------------

   60    -578.6143207148      4.36e-07  Convergence criterion met
 Total energy in the final basis set =     -578.6143207148

                    Orbital Energies (a.u.)
 --------------------------------------------------------------

 Alpha MOs
 -- Occupied --
******* -10.184 -10.180 -10.174  -9.504  -7.279  -7.256  -7.256
 -0.840  -0.777  -0.670  -0.578  -0.450  -0.437  -0.403  -0.402
 -0.357  -0.350  -0.347  -0.345  -0.338  -0.188

 Beta MOs
 -- Occupied --
******* -10.185 -10.174 -10.166  -9.498  -7.258  -7.252  -7.251
 -0.786  -0.768  -0.653  -0.562  -0.444  -0.430  -0.396  -0.349
 -0.343  -0.335  -0.330  -0.328

          Ground-State Mulliken Net Atomic Charges

     Atom                 Charge (a.u.)    Spin (a.u.)
  --------------------------------------------------------
      1 Cl                    0.001486       1.008654
      2 C                    -0.179714      -0.074695
      3 C                    -0.213708       1.066269
      4 C                    -0.314789       0.016459
      5 H                     0.103227       0.018079
      6 H                     0.104550       0.059188
      7 H                     0.097710      -0.046730
      8 H                     0.092151      -0.046974
      9 H                     0.104628      -0.000690
     10 H                     0.100633       0.000875
     11 H                     0.103826      -0.000436
  --------------------------------------------------------
  Sum of atomic charges =     0.000000

                    Cartesian Multipole Moments
 -----------------------------------------------------------------
    Charge (ESU x 10^10)
                -0.0000
    Dipole Moment (Debye)
         X      -0.2430      Y       0.1039      Z      -0.0605
       Tot       0.2711
    Quadrupole Moments (Debye-Ang)
        XX     -32.8531     XY       1.1263     YY     -33.2156
        XZ      -0.3948     YZ      -0.9855     ZZ     -32.8788

 Final energy is   -578.614320714817
 **  OPTIMIZATION CONVERGED  **
 Total job time:  114.39s(wall), 1289.41s(cpu)
        *  Thank you very much for using Q-Chem.  Have a nice day.  *
