 Q-Chem 5.1, Q-Chem, Inc., Pleasanton, CA (2018)
 Q-Chem 5.1.1 for Intel X86 EM64T Linux

User input:
--------------------------------------------------------------

$comment
potential surface scanner
$end

$rem
JOBTYPE  PES_SCAN
UNRESTRICTED TRUE
SYM_IGNORE  TRUE
GEOM_OPT_MAX_CYCLES 400
SCF_MAX_CYCLES 400
METHOD   B3LYP
BASIS   6-31G**
PDB_PRINT 2
SCF_CONVERGENCE 6
THRESH 14
SCF_PRINT 1
$end
$molecule
0 3
Cl 2.706094 0.233008 -0.903535
C -0.799464 0.452837 -0.315404
C 0.485474 0.465621 0.428657
C -1.816129 -0.525005 0.303584
H -0.613907 0.189063 -1.363935
H -1.241408 1.464838 -0.334250
H 0.549033 0.491523 1.514983
H 1.370916 0.960066 -0.070170
H -2.023786 -0.270696 1.347986
H -2.761535 -0.488448 -0.246312
H -1.439688 -1.551209 0.273087
$end
$scan
stre 1 3 2.500000 2.501000 0.100000
$end
--------------------------------------------------------------

   10    -578.6122533197      9.65e-07  Convergence criterion met
 Total energy in the final basis set =     -578.6122533197
   11    -578.6069706952      5.35e-07  Convergence criterion met
 Total energy in the final basis set =     -578.6069706952
   11    -578.6072662598      4.80e-07  Convergence criterion met
 Total energy in the final basis set =     -578.6072662598
   11    -578.6073946254      4.58e-07  Convergence criterion met
 Total energy in the final basis set =     -578.6073946254
   11    -578.6074173296      4.70e-07  Convergence criterion met
 Total energy in the final basis set =     -578.6074173296
   11    -578.6074489245      5.17e-07  Convergence criterion met
 Total energy in the final basis set =     -578.6074489245
   11    -578.6074583545      5.51e-07  Convergence criterion met
 Total energy in the final basis set =     -578.6074583545
   11    -578.6074609519      5.69e-07  Convergence criterion met
 Total energy in the final basis set =     -578.6074609519

             Standard Nuclear Orientation (Angstroms)
    I     Atom           X                Y                Z
 ----------------------------------------------------------------
    1      Cl      2.5986447493     0.1221484282    -0.8806751235
    2      C      -0.7915970698     0.4647961325    -0.3148094265
    3      C       0.4967608880     0.4803132341     0.4246235468
    4      C      -1.7942170048    -0.5330925191     0.2950684478
    5      H      -0.6072808753     0.2176431561    -1.3675385316
    6      H      -1.2465367335     1.4713188018    -0.3162610412
    7      H       0.5459636124     0.5271104601     1.5121026074
    8      H       1.3618791852     1.0216785624    -0.0602748640
    9      H      -2.0036443695    -0.2930828754     1.3425435108
   10      H      -2.7408329583    -0.5036917342    -0.2530326368
   11      H      -1.4035394236    -1.5535436464     0.2529445106
 ----------------------------------------------------------------

   11    -578.6074617523      5.75e-07  Convergence criterion met
 Total energy in the final basis set =     -578.6074617523

                    Orbital Energies (a.u.)
 --------------------------------------------------------------

 Alpha MOs
 -- Occupied --
******* -10.224 -10.207 -10.191  -9.459  -7.230  -7.212  -7.212
 -0.828  -0.796  -0.697  -0.605  -0.495  -0.465  -0.431  -0.392
 -0.374  -0.363  -0.324  -0.316  -0.300  -0.220

 Beta MOs
 -- Occupied --
******* -10.207 -10.205 -10.191  -9.454  -7.213  -7.208  -7.208
 -0.797  -0.772  -0.672  -0.585  -0.468  -0.453  -0.421  -0.373
 -0.366  -0.358  -0.306  -0.303

          Ground-State Mulliken Net Atomic Charges

     Atom                 Charge (a.u.)    Spin (a.u.)
  --------------------------------------------------------
      1 Cl                   -0.146830       0.754630
      2 C                    -0.192661      -0.059778
      3 C                    -0.200746       1.223090
      4 C                    -0.318931       0.028630
      5 H                     0.129389       0.017592
      6 H                     0.119540       0.059854
      7 H                     0.127740      -0.023268
      8 H                     0.133595      -0.007334
      9 H                     0.111251      -0.001479
     10 H                     0.113114       0.006971
     11 H                     0.124538       0.001091
  --------------------------------------------------------
  Sum of atomic charges =     0.000000

                    Cartesian Multipole Moments
 -----------------------------------------------------------------
    Charge (ESU x 10^10)
                -0.0000
    Dipole Moment (Debye)
         X      -2.2691      Y       0.5565      Z       0.8412
       Tot       2.4831
    Quadrupole Moments (Debye-Ang)
        XX     -37.3887     XY      -0.0852     YY     -32.9821
        XZ       1.6649     YZ       0.5712     ZZ     -33.0069

 Final energy is   -578.607461752292
 **  OPTIMIZATION CONVERGED  **
 Total job time:  31.35s(wall), 331.89s(cpu)
        *  Thank you very much for using Q-Chem.  Have a nice day.  *
