 Q-Chem 5.1, Q-Chem, Inc., Pleasanton, CA (2018)
 Q-Chem 5.1.1 for Intel X86 EM64T Linux

User input:
--------------------------------------------------------------

$comment
potential surface scanner
$end

$rem
JOBTYPE  PES_SCAN
UNRESTRICTED TRUE
SYM_IGNORE  TRUE
GEOM_OPT_MAX_CYCLES 400
SCF_MAX_CYCLES 400
METHOD   B3LYP
BASIS   6-31G**
PDB_PRINT 2
SCF_CONVERGENCE 6
THRESH 14
SCF_PRINT 1
$end
$molecule
0 3
Cl 2.388951 -1.150959 -0.365062
C -0.894163 0.665723 -0.300433
C 0.447112 0.893525 0.312688
C -1.604999 -0.590812 0.219864
H -0.799650 0.612200 -1.394421
H -1.546813 1.540224 -0.117393
H 0.637603 0.594507 1.339468
H 1.145611 1.596712 -0.129948
H -1.718346 -0.552657 1.309223
H -2.604193 -0.693175 -0.215470
H -1.035512 -1.493691 -0.023825
$end
$scan
stre 1 3 2.800000 2.801000 0.100000
$end
--------------------------------------------------------------

   11    -578.6114812113      7.87e-07  Convergence criterion met
 Total energy in the final basis set =     -578.6114812113
   11    -578.6091257291      8.29e-07  Convergence criterion met
 Total energy in the final basis set =     -578.6091257291
   11    -578.6091907131      8.12e-07  Convergence criterion met
 Total energy in the final basis set =     -578.6091907131
   11    -578.6092047215      7.84e-07  Convergence criterion met
 Total energy in the final basis set =     -578.6092047215
   11    -578.6092072904      7.58e-07  Convergence criterion met
 Total energy in the final basis set =     -578.6092072904
   11    -578.6092097740      7.10e-07  Convergence criterion met
 Total energy in the final basis set =     -578.6092097740
   11    -578.6092109163      6.81e-07  Convergence criterion met
 Total energy in the final basis set =     -578.6092109163
   11    -578.6092137268      6.44e-07  Convergence criterion met
 Total energy in the final basis set =     -578.6092137268
   11    -578.6092153178      6.69e-07  Convergence criterion met
 Total energy in the final basis set =     -578.6092153178

             Standard Nuclear Orientation (Angstroms)
    I     Atom           X                Y                Z
 ----------------------------------------------------------------
    1      Cl      2.3190589757    -1.0995397845    -0.3758477279
    2      C      -0.8825986272     0.6573008948    -0.3022049877
    3      C       0.4598037465     0.8778775225     0.3118964376
    4      C      -1.6017595956    -0.5934103084     0.2209550727
    5      H      -0.7876441451     0.5990568319    -1.3959595834
    6      H      -1.5301804577     1.5362190133    -0.1225381777
    7      H       0.6399897373     0.5950246823     1.3456737785
    8      H       1.1536000320     1.5923640590    -0.1220246956
    9      H      -1.7237262795    -0.5478660571     1.3090738294
   10      H      -2.5976777519    -0.6957026925    -0.2218409883
   11      H      -1.0332646345    -1.4997271612    -0.0124919577
 ----------------------------------------------------------------

   11    -578.6092158795      6.87e-07  Convergence criterion met
 Total energy in the final basis set =     -578.6092158795

                    Orbital Energies (a.u.)
 --------------------------------------------------------------

 Alpha MOs
 -- Occupied --
******* -10.183 -10.178 -10.173  -9.504  -7.278  -7.255  -7.255
 -0.841  -0.776  -0.670  -0.577  -0.448  -0.437  -0.406  -0.398
 -0.360  -0.349  -0.347  -0.341  -0.336  -0.181

 Beta MOs
 -- Occupied --
******* -10.184 -10.172 -10.164  -9.497  -7.256  -7.251  -7.250
 -0.786  -0.767  -0.652  -0.562  -0.442  -0.429  -0.395  -0.348
 -0.342  -0.335  -0.330  -0.324

          Ground-State Mulliken Net Atomic Charges

     Atom                 Charge (a.u.)    Spin (a.u.)
  --------------------------------------------------------
      1 Cl                    0.011200       1.018773
      2 C                    -0.176813      -0.072220
      3 C                    -0.220721       1.049632
      4 C                    -0.317476       0.010289
      5 H                     0.100269       0.019429
      6 H                     0.102822       0.059119
      7 H                     0.095846      -0.042489
      8 H                     0.093475      -0.042806
      9 H                     0.102742      -0.000672
     10 H                     0.099572      -0.000019
     11 H                     0.109086       0.000963
  --------------------------------------------------------
  Sum of atomic charges =     0.000000

                    Cartesian Multipole Moments
 -----------------------------------------------------------------
    Charge (ESU x 10^10)
                -0.0000
    Dipole Moment (Debye)
         X      -0.1983      Y       0.1199      Z      -0.0352
       Tot       0.2344
    Quadrupole Moments (Debye-Ang)
        XX     -33.6724     XY       0.6069     YY     -33.4696
        XZ      -0.2266     YZ      -1.2727     ZZ     -31.9744

 Final energy is   -578.609215879465
 **  OPTIMIZATION CONVERGED  **
 Total job time:  36.24s(wall), 379.41s(cpu)
        *  Thank you very much for using Q-Chem.  Have a nice day.  *
