 Q-Chem 5.1, Q-Chem, Inc., Pleasanton, CA (2018)
 Q-Chem 5.1.1 for Intel X86 EM64T Linux

User input:
--------------------------------------------------------------

$comment
potential surface scanner
$end

$rem
JOBTYPE  PES_SCAN
UNRESTRICTED TRUE
SYM_IGNORE  TRUE
GEOM_OPT_MAX_CYCLES 400
SCF_MAX_CYCLES 400
METHOD   B3LYP
BASIS   6-31G**
PDB_PRINT 2
SCF_CONVERGENCE 6
THRESH 14
SCF_PRINT 1
$end
$molecule
0 3
Cl 2.276664 -1.549118 -0.489817
C -0.904249 0.706746 -0.286264
C 0.397485 1.023889 0.369440
C -1.540432 -0.598470 0.210455
H -0.771880 0.665124 -1.376277
H -1.622360 1.532137 -0.121156
H 0.581425 0.733522 1.399010
H 1.102296 1.708028 -0.091446
H -1.703737 -0.567747 1.293547
H -2.508174 -0.778488 -0.268401
H -0.891437 -1.454024 -0.004399
$end
$scan
stre 1 3 3.200000 3.201000 0.100000
$end
--------------------------------------------------------------

   54    -578.6160387993      5.91e-07  Convergence criterion met
 Total energy in the final basis set =     -578.6160387993
   52    -578.6148661616      2.69e-07  Convergence criterion met
 Total energy in the final basis set =     -578.6148661616
   51    -578.6151892446      5.68e-07  Convergence criterion met
 Total energy in the final basis set =     -578.6151892446
   50    -578.6152872356      3.21e-07  Convergence criterion met
 Total energy in the final basis set =     -578.6152872356
   55    -578.6152909295      4.22e-07  Convergence criterion met
 Total energy in the final basis set =     -578.6152909295
   55    -578.6152975956      5.29e-07  Convergence criterion met
 Total energy in the final basis set =     -578.6152975956
   60    -578.6153000408      3.00e-07  Convergence criterion met
 Total energy in the final basis set =     -578.6153000408
   57    -578.6153039616      5.82e-07  Convergence criterion met
 Total energy in the final basis set =     -578.6153039616
   57    -578.6153059613      7.91e-07  Convergence criterion met
 Total energy in the final basis set =     -578.6153059613
   53    -578.6153071042      5.13e-07  Convergence criterion met
 Total energy in the final basis set =     -578.6153071042

             Standard Nuclear Orientation (Angstroms)
    I     Atom           X                Y                Z
 ----------------------------------------------------------------
    1      Cl      2.2153339080    -1.4833889101    -0.4856051388
    2      C      -0.8951814331     0.6993731777    -0.2891714887
    3      C       0.4058715757     1.0134471973     0.3697642203
    4      C      -1.5386920928    -0.6007293228     0.2113921822
    5      H      -0.7586336655     0.6511663755    -1.3783690375
    6      H      -1.6108188334     1.5279933100    -0.1303367020
    7      H       0.5862806569     0.7240644232     1.4002550121
    8      H       1.1135638540     1.6958069980    -0.0896975878
    9      H      -1.7003520124    -0.5673059411     1.2946039163
   10      H      -2.5071800442    -0.7781249561    -0.2668917389
   11      H      -0.8945909130    -1.4607033515    -0.0012516372
 ----------------------------------------------------------------

   54    -578.6153074746      2.55e-07  Convergence criterion met
 Total energy in the final basis set =     -578.6153074746

                    Orbital Energies (a.u.)
 --------------------------------------------------------------

 Alpha MOs
 -- Occupied --
******* -10.184 -10.180 -10.174  -9.505  -7.280  -7.256  -7.256
 -0.840  -0.778  -0.670  -0.578  -0.450  -0.437  -0.403  -0.402
 -0.356  -0.351  -0.347  -0.345  -0.338  -0.189

 Beta MOs
 -- Occupied --
******* -10.185 -10.174 -10.167  -9.498  -7.258  -7.252  -7.252
 -0.786  -0.769  -0.653  -0.562  -0.444  -0.430  -0.396  -0.349
 -0.343  -0.335  -0.330  -0.328

          Ground-State Mulliken Net Atomic Charges

     Atom                 Charge (a.u.)    Spin (a.u.)
  --------------------------------------------------------
      1 Cl                    0.000055       1.007173
      2 C                    -0.180764      -0.074958
      3 C                    -0.212727       1.068569
      4 C                    -0.314843       0.015965
      5 H                     0.103493       0.017955
      6 H                     0.104829       0.059629
      7 H                     0.097863      -0.047006
      8 H                     0.092511      -0.047308
      9 H                     0.104486      -0.000701
     10 H                     0.100399       0.000979
     11 H                     0.104697      -0.000296
  --------------------------------------------------------
  Sum of atomic charges =    -0.000000

                    Cartesian Multipole Moments
 -----------------------------------------------------------------
    Charge (ESU x 10^10)
                -0.0000
    Dipole Moment (Debye)
         X      -0.2461      Y       0.1060      Z      -0.0598
       Tot       0.2746
    Quadrupole Moments (Debye-Ang)
        XX     -32.8356     XY       1.1217     YY     -33.1553
        XZ      -0.3788     YZ      -0.9656     ZZ     -32.8985

 Final energy is   -578.615307474584
 **  OPTIMIZATION CONVERGED  **
 Total job time:  120.69s(wall), 1397.67s(cpu)
        *  Thank you very much for using Q-Chem.  Have a nice day.  *
