 Q-Chem 5.1, Q-Chem, Inc., Pleasanton, CA (2018)
 Q-Chem 5.1.1 for Intel X86 EM64T Linux

User input:
--------------------------------------------------------------

$comment
potential surface scanner
$end

$rem
JOBTYPE  PES_SCAN
UNRESTRICTED TRUE
SYM_IGNORE  TRUE
GEOM_OPT_MAX_CYCLES 400
SCF_MAX_CYCLES 400
METHOD   B3LYP
BASIS   6-31G**
PDB_PRINT 2
SCF_CONVERGENCE 6
THRESH 14
SCF_PRINT 1
$end
$molecule
0 3
Cl 2.403871 0.079343 -0.978472
C -0.758248 0.456240 -0.314469
C 0.516438 0.481166 0.448461
C -1.772880 -0.532948 0.287427
H -0.555524 0.199585 -1.361074
H -1.212738 1.463138 -0.333192
H 0.513041 0.537634 1.539379
H 1.375270 1.084054 0.032635
H -2.007916 -0.277587 1.325933
H -2.706553 -0.515893 -0.282697
H -1.379161 -1.553135 0.270761
$end
$scan
stre 1 3 2.300000 2.301000 0.100000
$end
--------------------------------------------------------------

   11    -578.6012148535      7.27e-07  Convergence criterion met
 Total energy in the final basis set =     -578.6012148535
   11    -578.5928037645      7.82e-07  Convergence criterion met
 Total energy in the final basis set =     -578.5928037645
   11    -578.5928848573      7.35e-07  Convergence criterion met
 Total energy in the final basis set =     -578.5928848573
   11    -578.5929757302      7.19e-07  Convergence criterion met
 Total energy in the final basis set =     -578.5929757302
   11    -578.5930038087      7.31e-07  Convergence criterion met
 Total energy in the final basis set =     -578.5930038087
   11    -578.5930165813      7.59e-07  Convergence criterion met
 Total energy in the final basis set =     -578.5930165813
   11    -578.5930191480      7.77e-07  Convergence criterion met
 Total energy in the final basis set =     -578.5930191480

             Standard Nuclear Orientation (Angstroms)
    I     Atom           X                Y                Z
 ----------------------------------------------------------------
    1      Cl      2.3382900066     0.0093616356    -0.9130230856
    2      C      -0.7547745280     0.4632146738    -0.3193678708
    3      C       0.5305930883     0.4794385672     0.4290875491
    4      C      -1.7579974907    -0.5378971332     0.2819728983
    5      H      -0.5656541900     0.2217260718    -1.3721882019
    6      H      -1.2138467465     1.4682550217    -0.3164591059
    7      H       0.5164637499     0.5573387754     1.5203403206
    8      H       1.3622132859     1.1307819952     0.0266239086
    9      H      -1.9788747663    -0.2986353457     1.3274208494
   10      H      -2.6996819066    -0.5156640644    -0.2745580727
   11      H      -1.3611305024    -1.5563231975     0.2448428109
 ----------------------------------------------------------------

   11    -578.5930199248      7.88e-07  Convergence criterion met
 Total energy in the final basis set =     -578.5930199248

                    Orbital Energies (a.u.)
 --------------------------------------------------------------

 Alpha MOs
 -- Occupied --
******* -10.222 -10.203 -10.189  -9.458  -7.229  -7.212  -7.211
 -0.836  -0.791  -0.695  -0.603  -0.495  -0.464  -0.427  -0.389
 -0.374  -0.360  -0.332  -0.315  -0.297  -0.202

 Beta MOs
 -- Occupied --
******* -10.203 -10.203 -10.188  -9.452  -7.211  -7.207  -7.207
 -0.802  -0.770  -0.670  -0.584  -0.467  -0.453  -0.416  -0.371
 -0.365  -0.355  -0.308  -0.302

          Ground-State Mulliken Net Atomic Charges

     Atom                 Charge (a.u.)    Spin (a.u.)
  --------------------------------------------------------
      1 Cl                   -0.127717       0.783928
      2 C                    -0.181819      -0.057167
      3 C                    -0.238727       1.152675
      4 C                    -0.318388       0.023878
      5 H                     0.127375       0.017250
      6 H                     0.116330       0.057650
      7 H                     0.121918      -0.008620
      8 H                     0.155549       0.025513
      9 H                     0.109699      -0.001206
     10 H                     0.111829       0.004897
     11 H                     0.123951       0.001202
  --------------------------------------------------------
  Sum of atomic charges =     0.000000

                    Cartesian Multipole Moments
 -----------------------------------------------------------------
    Charge (ESU x 10^10)
                -0.0000
    Dipole Moment (Debye)
         X      -1.9856      Y       0.7288      Z       0.8746
       Tot       2.2888
    Quadrupole Moments (Debye-Ang)
        XX     -36.9340     XY       0.3382     YY     -32.4665
        XZ       1.7622     YZ       0.6826     ZZ     -33.2645

 Final energy is   -578.593019924825
 **  OPTIMIZATION CONVERGED  **
 Total job time:  27.84s(wall), 298.24s(cpu)
        *  Thank you very much for using Q-Chem.  Have a nice day.  *
