 Q-Chem 5.1, Q-Chem, Inc., Pleasanton, CA (2018)
 Q-Chem 5.1.1 for Intel X86 EM64T Linux

User input:
--------------------------------------------------------------

$comment
potential surface scanner
$end

$rem
JOBTYPE  PES_SCAN
UNRESTRICTED TRUE
SYM_IGNORE  TRUE
GEOM_OPT_MAX_CYCLES 400
SCF_MAX_CYCLES 400
METHOD   B3LYP
BASIS   6-31G**
PDB_PRINT 2
SCF_CONVERGENCE 6
THRESH 14
SCF_PRINT 1
$end
$molecule
0 1
Cl 1.787534 -0.610432 -0.222202
C -0.793585 0.560751 -0.323531
C 0.577706 0.760973 0.293127
C -1.535176 -0.684895 0.164162
H -0.698602 0.548586 -1.414862
H -1.373022 1.461683 -0.072489
H 0.567413 0.714948 1.382839
H 1.061923 1.678384 -0.039562
H -1.667152 -0.666091 1.251776
H -2.527532 -0.748832 -0.292189
H -0.983907 -1.593474 -0.092367
$end
$scan
stre 1 3 2.000000 2.001000 0.100000
$end
--------------------------------------------------------------

    9    -578.7481398323      3.68e-07  Convergence criterion met
 Total energy in the final basis set =     -578.7481398323
    9    -578.7427088822      4.12e-07  Convergence criterion met
 Total energy in the final basis set =     -578.7427088822
    9    -578.7429017299      3.99e-07  Convergence criterion met
 Total energy in the final basis set =     -578.7429017299
    9    -578.7429896915      3.90e-07  Convergence criterion met
 Total energy in the final basis set =     -578.7429896915

             Standard Nuclear Orientation (Angstroms)
    I     Atom           X                Y                Z
 ----------------------------------------------------------------
    1      Cl      1.8230659456    -0.6592738201    -0.2393283203
    2      C      -0.8022610870     0.5670300935    -0.3220467349
    3      C       0.5535637288     0.7877900432     0.3032301685
    4      C      -1.5353022274    -0.6834736086     0.1653689731
    5      H      -0.7007287493     0.5561495091    -1.4124206128
    6      H      -1.3904970670     1.4653391196    -0.0762063882
    7      H       0.5687935299     0.7122583234     1.3896242849
    8      H       1.0680042596     1.6818914958    -0.0421611145
    9      H      -1.6740723919    -0.6628479279     1.2519537356
   10      H      -2.5237800501    -0.7578811827    -0.2974536508
   11      H      -0.9711858914    -1.5853810452    -0.0858583406
 ----------------------------------------------------------------

    9    -578.7429912864      3.91e-07  Convergence criterion met
 Total energy in the final basis set =     -578.7429912864

                    Orbital Energies (a.u.)
 --------------------------------------------------------------

 Alpha MOs
 -- Occupied --
******* -10.260 -10.207 -10.184  -9.434  -7.198  -7.188  -7.188
 -0.828  -0.769  -0.687  -0.598  -0.478  -0.465  -0.430  -0.384
 -0.370  -0.361  -0.341  -0.288  -0.286

 Beta MOs
 -- Occupied --
******* -10.260 -10.207 -10.184  -9.434  -7.198  -7.188  -7.188
 -0.828  -0.769  -0.687  -0.598  -0.478  -0.465  -0.430  -0.384
 -0.370  -0.361  -0.341  -0.288  -0.286

          Ground-State Mulliken Net Atomic Charges

     Atom                 Charge (a.u.)    Spin (a.u.)
  --------------------------------------------------------
      1 Cl                   -0.191369      -0.000000
      2 C                    -0.178339       0.000000
      3 C                    -0.232806      -0.000000
      4 C                    -0.318241      -0.000000
      5 H                     0.129791      -0.000000
      6 H                     0.114953       0.000000
      7 H                     0.160974       0.000000
      8 H                     0.161595      -0.000000
      9 H                     0.105361       0.000000
     10 H                     0.108937      -0.000000
     11 H                     0.139145       0.000000
  --------------------------------------------------------
  Sum of atomic charges =     0.000000

                    Cartesian Multipole Moments
 -----------------------------------------------------------------
    Charge (ESU x 10^10)
                 0.0000
    Dipole Moment (Debye)
         X      -2.1503      Y       1.8696      Z       0.5838
       Tot       2.9086
    Quadrupole Moments (Debye-Ang)
        XX     -36.5595     XY       1.7945     YY     -31.9975
        XZ       0.7874     YZ       0.2648     ZZ     -32.5610

 Final energy is   -578.742991286408
 **  OPTIMIZATION CONVERGED  **
 Total job time:  17.11s(wall), 178.21s(cpu)
        *  Thank you very much for using Q-Chem.  Have a nice day.  *
