 Q-Chem 5.1, Q-Chem, Inc., Pleasanton, CA (2018)
 Q-Chem 5.1.1 for Intel X86 EM64T Linux

User input:
--------------------------------------------------------------

$comment
potential surface scanner
$end

$rem
JOBTYPE  PES_SCAN
UNRESTRICTED TRUE
SYM_IGNORE  TRUE
GEOM_OPT_MAX_CYCLES 400
SCF_MAX_CYCLES 400
METHOD   B3LYP
BASIS   6-31G**
PDB_PRINT 2
SCF_CONVERGENCE 6
THRESH 14
SCF_PRINT 1
$end
$molecule
0 1
Cl 2.071823 -0.961585 -0.324733
C -0.849667 0.605088 -0.310298
C 0.424316 0.931122 0.355989
C -1.535589 -0.673570 0.172025
H -0.713246 0.612520 -1.396227
H -1.490776 1.484400 -0.090498
H 0.554544 0.712211 1.411035
H 1.070609 1.697017 -0.058301
H -1.700266 -0.652004 1.254220
H -2.506158 -0.795416 -0.316090
H -0.909987 -1.538183 -0.062418
$end
$scan
stre 1 3 2.700000 2.701000 0.100000
$end
--------------------------------------------------------------

   10    -578.6932525956      3.31e-07  Convergence criterion met
 Total energy in the final basis set =     -578.6932525956
   10    -578.6850459134      5.29e-07  Convergence criterion met
 Total energy in the final basis set =     -578.6850459134
   10    -578.6851184984      5.43e-07  Convergence criterion met
 Total energy in the final basis set =     -578.6851184984
   10    -578.6852976329      5.56e-07  Convergence criterion met
 Total energy in the final basis set =     -578.6852976329
   10    -578.6853140690      5.58e-07  Convergence criterion met
 Total energy in the final basis set =     -578.6853140690
   10    -578.6853311398      5.60e-07  Convergence criterion met
 Total energy in the final basis set =     -578.6853311398
   10    -578.6853341604      5.59e-07  Convergence criterion met
 Total energy in the final basis set =     -578.6853341604
   10    -578.6853365314      5.57e-07  Convergence criterion met
 Total energy in the final basis set =     -578.6853365314
   10    -578.6853382959      5.56e-07  Convergence criterion met
 Total energy in the final basis set =     -578.6853382959
   10    -578.6853396559      5.55e-07  Convergence criterion met
 Total energy in the final basis set =     -578.6853396559

             Standard Nuclear Orientation (Angstroms)
    I     Atom           X                Y                Z
 ----------------------------------------------------------------
    1      Cl      2.0920905040    -1.0436920592    -0.3073962046
    2      C      -0.8600611588     0.6177029388    -0.3072855697
    3      C       0.4061433453     0.9575211872     0.3579799910
    4      C      -1.5269461755    -0.6745292272     0.1675814406
    5      H      -0.7290301749     0.6377285674    -1.3937663888
    6      H      -1.5133569866     1.4866786867    -0.0760703232
    7      H       0.5452855909     0.7379617328     1.4118169764
    8      H       1.0711848993     1.6975376586    -0.0734709853
    9      H      -1.6827750729    -0.6665237269     1.2511667782
   10      H      -2.4992473261    -0.8038312607    -0.3148610238
   11      H      -0.8876844446    -1.5249544975    -0.0809906908
 ----------------------------------------------------------------

   10    -578.6853403278      5.55e-07  Convergence criterion met
 Total energy in the final basis set =     -578.6853403278

                    Orbital Energies (a.u.)
 --------------------------------------------------------------

 Alpha MOs
 -- Occupied --
******* -10.300 -10.236 -10.199  -9.394  -7.157  -7.149  -7.149
 -0.836  -0.725  -0.711  -0.624  -0.508  -0.480  -0.457  -0.397
 -0.386  -0.380  -0.279  -0.253  -0.252

 Beta MOs
 -- Occupied --
******* -10.300 -10.236 -10.199  -9.394  -7.157  -7.149  -7.149
 -0.836  -0.725  -0.711  -0.624  -0.508  -0.480  -0.457  -0.397
 -0.386  -0.380  -0.279  -0.253  -0.252

          Ground-State Mulliken Net Atomic Charges

     Atom                 Charge (a.u.)    Spin (a.u.)
  --------------------------------------------------------
      1 Cl                   -0.442659       0.000000
      2 C                    -0.214551       0.000000
      3 C                    -0.088965       0.000000
      4 C                    -0.323725      -0.000000
      5 H                     0.160965       0.000000
      6 H                     0.144141      -0.000000
      7 H                     0.183668      -0.000000
      8 H                     0.183564       0.000000
      9 H                     0.112207      -0.000000
     10 H                     0.115877      -0.000000
     11 H                     0.169478       0.000000
  --------------------------------------------------------
  Sum of atomic charges =     0.000000

                    Cartesian Multipole Moments
 -----------------------------------------------------------------
    Charge (ESU x 10^10)
                 0.0000
    Dipole Moment (Debye)
         X      -4.3869      Y       3.8542      Z       1.0216
       Tot       5.9282
    Quadrupole Moments (Debye-Ang)
        XX     -40.4978     XY       4.6987     YY     -32.3644
        XZ       1.6820     YZ      -0.0631     ZZ     -32.3042

 Final energy is   -578.685340327801
 **  OPTIMIZATION CONVERGED  **
 Total job time:  40.38s(wall), 414.50s(cpu)
        *  Thank you very much for using Q-Chem.  Have a nice day.  *
