 Q-Chem 5.1, Q-Chem, Inc., Pleasanton, CA (2018)
 Q-Chem 5.1.1 for Intel X86 EM64T Linux

User input:
--------------------------------------------------------------

$comment
potential surface scanner
$end

$rem
JOBTYPE  PES_SCAN
UNRESTRICTED TRUE
SYM_IGNORE  TRUE
GEOM_OPT_MAX_CYCLES 400
SCF_MAX_CYCLES 400
METHOD   B3LYP
BASIS   6-31G**
PDB_PRINT 2
SCF_CONVERGENCE 6
THRESH 14
SCF_PRINT 1
$end
$molecule
0 3
Cl 2.411462 -2.488154 -0.509207
C -0.978522 0.803812 -0.259594
C 0.281486 1.253156 0.399526
C -1.429845 -0.598813 0.171708
H -0.861936 0.839068 -1.351549
H -1.793413 1.519613 -0.040055
H 0.519018 0.933952 1.409998
H 0.897440 2.030935 -0.039808
H -1.573695 -0.646286 1.256844
H -2.376351 -0.876540 -0.303099
H -0.680042 -1.349141 -0.100065
$end
$scan
stre 1 3 4.300000 4.301000 0.100000
$end
--------------------------------------------------------------

   34    -578.6176264035      9.81e-07  Convergence criterion met
 Total energy in the final basis set =     -578.6176264035
   30    -578.6175828915      7.56e-07  Convergence criterion met
 Total energy in the final basis set =     -578.6175828915
   26    -578.6175950974      4.54e-07  Convergence criterion met
 Total energy in the final basis set =     -578.6175950974
   26    -578.6176191734      3.32e-07  Convergence criterion met
 Total energy in the final basis set =     -578.6176191734
   26    -578.6176204721      2.89e-07  Convergence criterion met
 Total energy in the final basis set =     -578.6176204721
   26    -578.6176246794      1.24e-07  Convergence criterion met
 Total energy in the final basis set =     -578.6176246794
   26    -578.6176258046      5.86e-08  Convergence criterion met
 Total energy in the final basis set =     -578.6176258046
   26    -578.6176286731      5.48e-07  Convergence criterion met
   30    -578.6176369991      4.82e-07  Convergence criterion met
 Total energy in the final basis set =     -578.6176369991
   32    -578.6176420438      7.31e-07  Convergence criterion met
 Total energy in the final basis set =     -578.6176420438
   31    -578.6176473613      6.49e-07  Convergence criterion met
 Total energy in the final basis set =     -578.6176473613
   32    -578.6176533459      3.77e-07  Convergence criterion met
 Total energy in the final basis set =     -578.6176533459
   28    -578.6176568837      5.57e-07  Convergence criterion met
 Total energy in the final basis set =     -578.6176568837
   31    -578.6176584001      8.90e-07  Convergence criterion met
 Total energy in the final basis set =     -578.6176584001

             Standard Nuclear Orientation (Angstroms)
    I     Atom           X                Y                Z
 ----------------------------------------------------------------
    1      Cl      2.4880897963    -2.3344660810    -0.6088161836
    2      C      -0.9587478165     0.7784294595    -0.2706393116
    3      C       0.2898989544     1.2157596947     0.4177579251
    4      C      -1.4708278424    -0.5919973659     0.1945403203
    5      H      -0.7995531698     0.7671220959    -1.3578488479
    6      H      -1.7588720408     1.5248753616    -0.1093897317
    7      H       0.4721322226     0.9443165986     1.4535698686
    8      H       0.9551628689     1.9433965975    -0.0350216982
    9      H      -1.6183174409    -0.6051268285     1.2804140718
   10      H      -2.4278919081    -0.8379620349    -0.2761710291
   11      H      -0.7554716237    -1.3827454976    -0.0536963837
 ----------------------------------------------------------------

   27    -578.6176593640      4.10e-07  Convergence criterion met
 Total energy in the final basis set =     -578.6176593640

                    Orbital Energies (a.u.)
 --------------------------------------------------------------

 Alpha MOs
 -- Occupied --
******* -10.185 -10.183 -10.173  -9.509  -7.284  -7.261  -7.260
 -0.843  -0.778  -0.670  -0.578  -0.450  -0.435  -0.406  -0.402
 -0.357  -0.351  -0.350  -0.347  -0.338  -0.194

 Beta MOs
 -- Occupied --
******* -10.185 -10.172 -10.169  -9.502  -7.262  -7.257  -7.256
 -0.790  -0.769  -0.653  -0.563  -0.445  -0.428  -0.396  -0.349
 -0.342  -0.335  -0.334  -0.333

          Ground-State Mulliken Net Atomic Charges

     Atom                 Charge (a.u.)    Spin (a.u.)
  --------------------------------------------------------
      1 Cl                    0.000823       1.001014
      2 C                    -0.182839      -0.076017
      3 C                    -0.217676       1.079457
      4 C                    -0.318313       0.012671
      5 H                     0.102730       0.016122
      6 H                     0.106229       0.060606
      7 H                     0.097646      -0.047785
      8 H                     0.096457      -0.048128
      9 H                     0.102724      -0.000875
     10 H                     0.099108       0.001700
     11 H                     0.113111       0.001235
  --------------------------------------------------------
  Sum of atomic charges =     0.000000

                    Cartesian Multipole Moments
 -----------------------------------------------------------------
    Charge (ESU x 10^10)
                 0.0000
    Dipole Moment (Debye)
         X      -0.2016      Y       0.0464      Z      -0.0877
       Tot       0.2247
    Quadrupole Moments (Debye-Ang)
        XX     -33.2535     XY       0.4596     YY     -33.5257
        XZ      -0.5480     YZ      -1.1203     ZZ     -31.7836

 Final energy is   -578.617659363976
 **  OPTIMIZATION CONVERGED  **
 Total job time:  101.21s(wall), 1151.56s(cpu)
        *  Thank you very much for using Q-Chem.  Have a nice day.  *
