 Q-Chem 5.1, Q-Chem, Inc., Pleasanton, CA (2018)
 Q-Chem 5.1.1 for Intel X86 EM64T Linux

User input:
--------------------------------------------------------------

$comment
potential surface scanner
$end

$rem
JOBTYPE  PES_SCAN
UNRESTRICTED TRUE
SYM_IGNORE  TRUE
GEOM_OPT_MAX_CYCLES 400
SCF_MAX_CYCLES 400
METHOD   B3LYP
BASIS   6-31G**
PDB_PRINT 2
SCF_CONVERGENCE 6
THRESH 14
SCF_PRINT 1
$end
$molecule
0 3
Cl 2.500672 -3.171952 -0.808428
C -0.988989 0.839548 -0.263212
C 0.177277 1.418754 0.463283
C -1.364956 -0.572581 0.206504
H -0.787732 0.832517 -1.343578
H -1.871620 1.495979 -0.144895
H 0.371830 1.153468 1.498286
H 0.758792 2.227902 0.033789
H -1.592744 -0.579722 1.278364
H -2.245531 -0.948570 -0.324128
H -0.541403 -1.273744 0.038717
$end
$scan
stre 1 3 5.200000 5.201000 0.100000
$end
--------------------------------------------------------------

   11    -578.6179413554      7.13e-07  Convergence criterion met
 Total energy in the final basis set =     -578.6179413554
   11    -578.6178133061      7.38e-07  Convergence criterion met
 Total energy in the final basis set =     -578.6178133061
   11    -578.6178441316      7.29e-07  Convergence criterion met
 Total energy in the final basis set =     -578.6178441316
   11    -578.6179026119      6.90e-07  Convergence criterion met
 Total energy in the final basis set =     -578.6179026119
   11    -578.6179058822      6.85e-07  Convergence criterion met
 Total energy in the final basis set =     -578.6179058822
   11    -578.6179111673      6.76e-07  Convergence criterion met
 Total energy in the final basis set =     -578.6179111673

             Standard Nuclear Orientation (Angstroms)
    I     Atom           X                Y                Z
 ----------------------------------------------------------------
    1      Cl      2.4682628631    -3.1040276854    -0.7780526356
    2      C      -0.9875274561     0.8357195448    -0.2627020119
    3      C       0.1893131332     1.4042401233     0.4556045410
    4      C      -1.3663689111    -0.5766392988     0.2029908183
    5      H      -0.7962917319     0.8332100091    -1.3450398795
    6      H      -1.8652828219     1.4957959878    -0.1323324871
    7      H       0.3897986153     1.1342091408     1.4883571971
    8      H       0.7701537260     2.2138055916     0.0260963070
    9      H      -1.5940469513    -0.5858850294     1.2749469373
   10      H      -2.2474403351    -0.9486559092    -0.3293548883
   11      H      -0.5449741301    -1.2801734748     0.0341881017
 ----------------------------------------------------------------

   11    -578.6179119724      6.76e-07  Convergence criterion met
 Total energy in the final basis set =     -578.6179119724

                    Orbital Energies (a.u.)
 --------------------------------------------------------------

 Alpha MOs
 -- Occupied --
******* -10.185 -10.183 -10.172  -9.510  -7.285  -7.262  -7.262
 -0.845  -0.778  -0.670  -0.578  -0.450  -0.436  -0.407  -0.402
 -0.356  -0.352  -0.351  -0.347  -0.338  -0.195

 Beta MOs
 -- Occupied --
******* -10.185 -10.172 -10.169  -9.504  -7.263  -7.258  -7.258
 -0.791  -0.769  -0.653  -0.563  -0.444  -0.429  -0.397  -0.348
 -0.342  -0.336  -0.336  -0.334

          Ground-State Mulliken Net Atomic Charges

     Atom                 Charge (a.u.)    Spin (a.u.)
  --------------------------------------------------------
      1 Cl                    0.001631       1.000305
      2 C                    -0.182688      -0.076080
      3 C                    -0.219375       1.080751
      4 C                    -0.319904       0.010810
      5 H                     0.102888       0.017880
      6 H                     0.106388       0.060088
      7 H                     0.097773      -0.047898
      8 H                     0.096759      -0.048127
      9 H                     0.103147      -0.000796
     10 H                     0.099171       0.001221
     11 H                     0.114211       0.001848
  --------------------------------------------------------
  Sum of atomic charges =    -0.000000

                    Cartesian Multipole Moments
 -----------------------------------------------------------------
    Charge (ESU x 10^10)
                 0.0000
    Dipole Moment (Debye)
         X      -0.1944      Y      -0.0098      Z      -0.0966
       Tot       0.2173
    Quadrupole Moments (Debye-Ang)
        XX     -33.5674     XY       0.0357     YY     -33.8329
        XZ       0.4049     YZ      -0.2833     ZZ     -31.0739

 Final energy is   -578.617911972360
 **  OPTIMIZATION CONVERGED  **
 Total job time:  24.27s(wall), 246.81s(cpu)
        *  Thank you very much for using Q-Chem.  Have a nice day.  *
