 Q-Chem 5.1, Q-Chem, Inc., Pleasanton, CA (2018)
 Q-Chem 5.1.1 for Intel X86 EM64T Linux

User input:
--------------------------------------------------------------

$comment
potential surface scanner
$end

$rem
JOBTYPE  PES_SCAN
UNRESTRICTED TRUE
SYM_IGNORE  TRUE
GEOM_OPT_MAX_CYCLES 400
SCF_MAX_CYCLES 400
METHOD   B3LYP
BASIS   6-31G**
PDB_PRINT 2
SCF_CONVERGENCE 6
THRESH 14
SCF_PRINT 1
$end
$molecule
0 3
Cl 2.178567 -1.406395 -0.483130
C -0.886862 0.690184 -0.291897
C 0.415300 0.996768 0.368751
C -1.542218 -0.602232 0.213281
H -0.747957 0.635160 -1.380466
H -1.596140 1.525281 -0.138825
H 0.590289 0.712464 1.401533
H 1.126380 1.676025 -0.090006
H -1.702413 -0.564052 1.296552
H -2.512698 -0.772350 -0.263582
H -0.906645 -1.469255 0.002480
$end
$scan
stre 1 3 3.000000 3.001000 0.100000
$end
--------------------------------------------------------------

   60    -578.6143207183      8.10e-07  Convergence criterion met
 Total energy in the final basis set =     -578.6143207183
   30    -578.6126092986      1.67e-07  Convergence criterion met
 Total energy in the final basis set =     -578.6126092986
   40    -578.6129251613      3.85e-07  Convergence criterion met
 Total energy in the final basis set =     -578.6129251613
   42    -578.6130125858      2.54e-07  Convergence criterion met
 Total energy in the final basis set =     -578.6130125858
   40    -578.6130154089      7.57e-07  Convergence criterion met
 Total energy in the final basis set =     -578.6130154089
   44    -578.6130190716      8.05e-08  Convergence criterion met
 Total energy in the final basis set =     -578.6130190716
   44    -578.6130209120      7.82e-07  Convergence criterion met
 Total energy in the final basis set =     -578.6130209120
   37    -578.6130238621      3.66e-07  Convergence criterion met
   15    -578.6130920685      9.45e-07  Convergence criterion met
 Total energy in the final basis set =     -578.6130920685
   19    -578.6131018024      8.34e-07  Convergence criterion met
 Total energy in the final basis set =     -578.6131018024
   19    -578.6131157538      6.40e-07  Convergence criterion met
 Total energy in the final basis set =     -578.6131157538
   19    -578.6131200996      5.94e-07  Convergence criterion met
 Total energy in the final basis set =     -578.6131200996
   19    -578.6131215258      6.59e-07  Convergence criterion met
 Total energy in the final basis set =     -578.6131215258
   19    -578.6131227917      6.16e-07  Convergence criterion met
 Total energy in the final basis set =     -578.6131227917

             Standard Nuclear Orientation (Angstroms)
    I     Atom           X                Y                Z
 ----------------------------------------------------------------
    1      Cl      2.4796299206    -1.1573592934    -0.4481157099
    2      C      -0.8978307332     0.6646257503    -0.2983076632
    3      C       0.4350779663     0.8951058485     0.3311115268
    4      C      -1.6200159877    -0.5822279928     0.2291974984
    5      H      -0.7870946245     0.5949812638    -1.3899413578
    6      H      -1.5492478132     1.5442534253    -0.1376894604
    7      H       0.6212179130     0.5817355914     1.3543314256
    8      H       1.1446890427     1.5880224044    -0.1095521647
    9      H      -1.7675130834    -0.5193577656     1.3132517342
   10      H      -2.6044050072    -0.7004560053    -0.2348730313
   11      H      -1.0389045934    -1.4877252264     0.0252782022
 ----------------------------------------------------------------

   19    -578.6131233935      4.77e-07  Convergence criterion met
 Total energy in the final basis set =     -578.6131233935

                    Orbital Energies (a.u.)
 --------------------------------------------------------------

 Alpha MOs
 -- Occupied --
******* -10.184 -10.179 -10.173  -9.504  -7.279  -7.256  -7.256
 -0.840  -0.777  -0.670  -0.577  -0.448  -0.436  -0.405  -0.399
 -0.358  -0.349  -0.347  -0.342  -0.338  -0.186

 Beta MOs
 -- Occupied --
******* -10.185 -10.172 -10.165  -9.498  -7.257  -7.252  -7.251
 -0.786  -0.768  -0.652  -0.562  -0.442  -0.429  -0.396  -0.348
 -0.342  -0.335  -0.330  -0.326

          Ground-State Mulliken Net Atomic Charges

     Atom                 Charge (a.u.)    Spin (a.u.)
  --------------------------------------------------------
      1 Cl                    0.004437       1.013569
      2 C                    -0.180321      -0.074372
      3 C                    -0.212178       1.061096
      4 C                    -0.317727       0.009551
      5 H                     0.102053       0.020815
      6 H                     0.103691       0.059423
      7 H                     0.095186      -0.045226
      8 H                     0.093273      -0.045690
      9 H                     0.103168      -0.000612
     10 H                     0.099682       0.000192
     11 H                     0.108737       0.001254
  --------------------------------------------------------
  Sum of atomic charges =    -0.000000

                    Cartesian Multipole Moments
 -----------------------------------------------------------------
    Charge (ESU x 10^10)
                 0.0000
    Dipole Moment (Debye)
         X      -0.2048      Y       0.1144      Z      -0.0522
       Tot       0.2403
    Quadrupole Moments (Debye-Ang)
        XX     -33.5516     XY       0.5967     YY     -33.4267
        XZ      -0.3132     YZ      -1.2770     ZZ     -31.9861

 Final energy is   -578.613123393521
 **  OPTIMIZATION CONVERGED  **
 Total job time:  156.36s(wall), 1677.37s(cpu)
        *  Thank you very much for using Q-Chem.  Have a nice day.  *
