 Q-Chem 5.1, Q-Chem, Inc., Pleasanton, CA (2018)
 Q-Chem 5.1.1 for Intel X86 EM64T Linux

User input:
--------------------------------------------------------------

$comment
potential surface scanner
$end

$rem
JOBTYPE  PES_SCAN
UNRESTRICTED TRUE
SYM_IGNORE  TRUE
GEOM_OPT_MAX_CYCLES 400
SCF_MAX_CYCLES 400
METHOD   B3LYP
BASIS   6-31G**
PDB_PRINT 2
SCF_CONVERGENCE 6
THRESH 14
SCF_PRINT 1
$end
$molecule
0 1
Cl 1.823066 -0.659274 -0.239328
C -0.802261 0.567030 -0.322047
C 0.553564 0.787790 0.303230
C -1.535302 -0.683474 0.165369
H -0.700729 0.556150 -1.412421
H -1.390497 1.465339 -0.076206
H 0.568794 0.712258 1.389624
H 1.068004 1.681891 -0.042161
H -1.674072 -0.662848 1.251954
H -2.523780 -0.757881 -0.297454
H -0.971186 -1.585381 -0.085858
$end
$scan
stre 1 3 2.100000 2.101000 0.100000
$end
--------------------------------------------------------------

    9    -578.7429912974      3.91e-07  Convergence criterion met
 Total energy in the final basis set =     -578.7429912974
    9    -578.7356223703      4.68e-07  Convergence criterion met
 Total energy in the final basis set =     -578.7356223703
    9    -578.7357121793      4.30e-07  Convergence criterion met
 Total energy in the final basis set =     -578.7357121793
    9    -578.7358073347      4.18e-07  Convergence criterion met
 Total energy in the final basis set =     -578.7358073347

             Standard Nuclear Orientation (Angstroms)
    I     Atom           X                Y                Z
 ----------------------------------------------------------------
    1      Cl      1.8637135630    -0.7046310852    -0.2588972228
    2      C      -0.8101102969     0.5721814229    -0.3205288994
    3      C       0.5300334335     0.8130923246     0.3136517474
    4      C      -1.5363873376    -0.6819471863     0.1668938987
    5      H      -0.7014780888     0.5631733830    -1.4099465720
    6      H      -1.4067783079     1.4682417347    -0.0801879335
    7      H       0.5694031417     0.7086318628     1.3957869259
    8      H       1.0715716691     1.6846799590    -0.0439057676
    9      H      -1.6825351725    -0.6581955991     1.2523194147
   10      H      -2.5208562334    -0.7653714006    -0.3025893472
   11      H      -0.9609753701    -1.5782554160    -0.0778942441
 ----------------------------------------------------------------

    9    -578.7358087873      4.18e-07  Convergence criterion met
 Total energy in the final basis set =     -578.7358087873

                    Orbital Energies (a.u.)
 --------------------------------------------------------------

 Alpha MOs
 -- Occupied --
******* -10.267 -10.212 -10.186  -9.428  -7.192  -7.182  -7.182
 -0.823  -0.764  -0.692  -0.602  -0.482  -0.466  -0.433  -0.381
 -0.373  -0.364  -0.334  -0.284  -0.282

 Beta MOs
 -- Occupied --
******* -10.267 -10.212 -10.186  -9.428  -7.192  -7.182  -7.182
 -0.823  -0.764  -0.692  -0.602  -0.482  -0.466  -0.433  -0.381
 -0.373  -0.364  -0.334  -0.284  -0.282

          Ground-State Mulliken Net Atomic Charges

     Atom                 Charge (a.u.)    Spin (a.u.)
  --------------------------------------------------------
      1 Cl                   -0.238196       0.000000
      2 C                    -0.181431       0.000000
      3 C                    -0.207828       0.000000
      4 C                    -0.318836      -0.000000
      5 H                     0.135243      -0.000000
      6 H                     0.119176      -0.000000
      7 H                     0.165825      -0.000000
      8 H                     0.166374      -0.000000
      9 H                     0.106149       0.000000
     10 H                     0.109851       0.000000
     11 H                     0.143672       0.000000
  --------------------------------------------------------
  Sum of atomic charges =    -0.000000

                    Cartesian Multipole Moments
 -----------------------------------------------------------------
    Charge (ESU x 10^10)
                -0.0000
    Dipole Moment (Debye)
         X      -2.4742      Y       2.1301      Z       0.6638
       Tot       3.3316
    Quadrupole Moments (Debye-Ang)
        XX     -37.1064     XY       2.1243     YY     -31.9636
        XZ       0.9374     YZ       0.2375     ZZ     -32.5252

 Final energy is   -578.735808787339
 **  OPTIMIZATION CONVERGED  **
 Total job time:  17.29s(wall), 177.80s(cpu)
        *  Thank you very much for using Q-Chem.  Have a nice day.  *
