 Q-Chem 5.1, Q-Chem, Inc., Pleasanton, CA (2018)
 Q-Chem 5.1.1 for Intel X86 EM64T Linux

User input:
--------------------------------------------------------------

$comment
potential surface scanner
$end

$rem
JOBTYPE  PES_SCAN
UNRESTRICTED TRUE
SYM_IGNORE  TRUE
GEOM_OPT_MAX_CYCLES 400
SCF_MAX_CYCLES 400
METHOD   B3LYP
BASIS   6-31G**
PDB_PRINT 2
SCF_CONVERGENCE 6
THRESH 14
SCF_PRINT 1
$end
$molecule
0 1
Cl 1.759445 -0.576646 -0.207865
C -0.787170 0.556755 -0.324447
C 0.595837 0.741625 0.285548
C -1.534253 -0.685854 0.163299
H -0.697481 0.544007 -1.416574
H -1.360732 1.459349 -0.069835
H 0.565226 0.717231 1.377000
H 1.057152 1.675548 -0.038205
H -1.660479 -0.669448 1.251751
H -2.529632 -0.742170 -0.287655
H -0.992314 -1.598796 -0.098317
$end
$scan
stre 1 3 1.500000 1.501000 0.100000
$end
--------------------------------------------------------------

    9    -578.7495578000      3.58e-07  Convergence criterion met
 Total energy in the final basis set =     -578.7495578000
    9    -578.7399653932      3.39e-07  Convergence criterion met
 Total energy in the final basis set =     -578.7399653932
    9    -578.7011100352      3.56e-07  Convergence criterion met
 Total energy in the final basis set =     -578.7011100352
    9    -578.6916397378      3.69e-07  Convergence criterion met
 Total energy in the final basis set =     -578.6916397378
    9    -578.6928712626      3.85e-07  Convergence criterion met
 Total energy in the final basis set =     -578.6928712626
    9    -578.6929598653      3.90e-07  Convergence criterion met
 Total energy in the final basis set =     -578.6929598653
    9    -578.6929915045      3.93e-07  Convergence criterion met
 Total energy in the final basis set =     -578.6929915045
    9    -578.6929992429      3.93e-07  Convergence criterion met
    9    -578.6930012423      3.93e-07  Convergence criterion met
 Total energy in the final basis set =     -578.6930012423
    9    -578.6930034736      3.92e-07  Convergence criterion met
 Total energy in the final basis set =     -578.6930034736
    9    -578.6930054208      3.92e-07  Convergence criterion met
 Total energy in the final basis set =     -578.6930054208
    9    -578.6930076014      3.92e-07  Convergence criterion met
 Total energy in the final basis set =     -578.6930076014
    9    -578.6930095680      3.93e-07  Convergence criterion met
 Total energy in the final basis set =     -578.6930095680
    9    -578.6930109403      3.93e-07  Convergence criterion met
 Total energy in the final basis set =     -578.6930109403

             Standard Nuclear Orientation (Angstroms)
    I     Atom           X                Y                Z
 ----------------------------------------------------------------
    1      Cl      1.6295018004    -0.4434077824    -0.1237043524
    2      C      -0.7635119052     0.5424613721    -0.3245671753
    3      C       0.6778665421     0.6537561870     0.2512911558
    4      C      -1.5285958284    -0.6923317470     0.1568455609
    5      H      -0.6991523340     0.5379676037    -1.4204161097
    6      H      -1.3043917876     1.4527951171    -0.0397576483
    7      H       0.5514881655     0.7515828418     1.3439220180
    8      H       1.0376591305     1.6507807394    -0.0530115092
    9      H      -1.6325913462    -0.6925209200     1.2481812329
   10      H      -2.5341369381    -0.7222787430    -0.2740840940
   11      H      -1.0185364990    -1.6172036687    -0.1299990788
 ----------------------------------------------------------------

    9    -578.6930115219      3.93e-07  Convergence criterion met
 Total energy in the final basis set =     -578.6930115219

                    Orbital Energies (a.u.)
 --------------------------------------------------------------

 Alpha MOs
 -- Occupied --
******* -10.223 -10.190 -10.176  -9.458  -7.221  -7.211  -7.211
 -0.938  -0.764  -0.663  -0.584  -0.483  -0.479  -0.440  -0.418
 -0.373  -0.359  -0.343  -0.277  -0.276

 Beta MOs
 -- Occupied --
******* -10.223 -10.190 -10.176  -9.458  -7.221  -7.211  -7.211
 -0.938  -0.764  -0.663  -0.584  -0.483  -0.479  -0.440  -0.418
 -0.373  -0.359  -0.343  -0.277  -0.276

          Ground-State Mulliken Net Atomic Charges

     Atom                 Charge (a.u.)    Spin (a.u.)
  --------------------------------------------------------
      1 Cl                    0.020878      -0.000000
      2 C                    -0.184220       0.000000
      3 C                    -0.306211       0.000000
      4 C                    -0.319598       0.000000
      5 H                     0.105887      -0.000000
      6 H                     0.098702      -0.000000
      7 H                     0.125861      -0.000000
      8 H                     0.128066      -0.000000
      9 H                     0.102809      -0.000000
     10 H                     0.107019       0.000000
     11 H                     0.120807      -0.000000
  --------------------------------------------------------
  Sum of atomic charges =    -0.000000

                    Cartesian Multipole Moments
 -----------------------------------------------------------------
    Charge (ESU x 10^10)
                -0.0000
    Dipole Moment (Debye)
         X      -0.9164      Y       0.8748      Z       0.2680
       Tot       1.2950
    Quadrupole Moments (Debye-Ang)
        XX     -34.4293     XY       0.7574     YY     -32.3270
        XZ       0.2884     YZ       0.2269     ZZ     -32.6111

 Final energy is   -578.693011521882
 **  OPTIMIZATION CONVERGED  **
 Total job time:  64.77s(wall), 606.72s(cpu)
        *  Thank you very much for using Q-Chem.  Have a nice day.  *
