 Q-Chem 5.1, Q-Chem, Inc., Pleasanton, CA (2018)
 Q-Chem 5.1.1 for Intel X86 EM64T Linux

User input:
--------------------------------------------------------------

$comment
potential surface scanner
$end

$rem
JOBTYPE  PES_SCAN
UNRESTRICTED TRUE
SYM_IGNORE  TRUE
GEOM_OPT_MAX_CYCLES 400
SCF_MAX_CYCLES 400
METHOD   B3LYP
BASIS   6-31G**
PDB_PRINT 2
SCF_CONVERGENCE 6
THRESH 14
SCF_PRINT 1
$end
$molecule
0 3
Cl 2.437364 -2.017497 -0.542433
C -0.942269 0.752628 -0.274908
C 0.337045 1.133419 0.390514
C -1.505666 -0.594329 0.199164
H -0.804406 0.736858 -1.364974
H -1.705579 1.533453 -0.097774
H 0.526655 0.850335 1.421816
H 1.018905 1.841416 -0.068794
H -1.661908 -0.591539 1.283865
H -2.467678 -0.811028 -0.276128
H -0.816864 -1.412115 -0.035650
$end
$scan
stre 1 3 3.800000 3.801000 0.100000
$end
--------------------------------------------------------------

   11    -578.6176580522      6.96e-07  Convergence criterion met
 Total energy in the final basis set =     -578.6176580522
   11    -578.6175358190      8.65e-07  Convergence criterion met
 Total energy in the final basis set =     -578.6175358190
   11    -578.6175432248      8.71e-07  Convergence criterion met
 Total energy in the final basis set =     -578.6175432248
   11    -578.6175601946      8.84e-07  Convergence criterion met
 Total energy in the final basis set =     -578.6175601946
   11    -578.6175610690      8.86e-07  Convergence criterion met
 Total energy in the final basis set =     -578.6175610690

             Standard Nuclear Orientation (Angstroms)
    I     Atom           X                Y                Z
 ----------------------------------------------------------------
    1      Cl      2.4157161683    -1.9401365664    -0.5271610194
    2      C      -0.9377161902     0.7462827613    -0.2762224314
    3      C       0.3475692627     1.1145151990     0.3849089265
    4      C      -1.5122686766    -0.5951500489     0.2002918980
    5      H      -0.8031383920     0.7282565966    -1.3666772087
    6      H      -1.6928291946     1.5346892251    -0.0976085070
    7      H       0.5381459201     0.8286714601     1.4152503863
    8      H       1.0338096874     1.8174706618    -0.0755941188
    9      H      -1.6689954467    -0.5888808347     1.2849003854
   10      H      -2.4755026075    -0.8057496749    -0.2752067037
   11      H      -0.8291915309    -1.4183677792    -0.0321836073
 ----------------------------------------------------------------

   11    -578.6175630690      8.92e-07  Convergence criterion met
 Total energy in the final basis set =     -578.6175630690

                    Orbital Energies (a.u.)
 --------------------------------------------------------------

 Alpha MOs
 -- Occupied --
******* -10.184 -10.183 -10.172  -9.508  -7.283  -7.259  -7.259
 -0.842  -0.777  -0.670  -0.577  -0.450  -0.435  -0.405  -0.401
 -0.356  -0.351  -0.349  -0.345  -0.337  -0.193

 Beta MOs
 -- Occupied --
******* -10.185 -10.172 -10.169  -9.501  -7.261  -7.256  -7.255
 -0.789  -0.768  -0.652  -0.562  -0.444  -0.428  -0.396  -0.348
 -0.342  -0.335  -0.332  -0.331

          Ground-State Mulliken Net Atomic Charges

     Atom                 Charge (a.u.)    Spin (a.u.)
  --------------------------------------------------------
      1 Cl                    0.001112       1.004412
      2 C                    -0.183059      -0.075689
      3 C                    -0.214751       1.076426
      4 C                    -0.319188       0.011618
      5 H                     0.101435       0.016557
      6 H                     0.105701       0.060378
      7 H                     0.096225      -0.047645
      8 H                     0.096301      -0.047870
      9 H                     0.102441      -0.000838
     10 H                     0.098440       0.001423
     11 H                     0.115343       0.001228
  --------------------------------------------------------
  Sum of atomic charges =    -0.000000

                    Cartesian Multipole Moments
 -----------------------------------------------------------------
    Charge (ESU x 10^10)
                -0.0000
    Dipole Moment (Debye)
         X      -0.1887      Y       0.0562      Z      -0.0740
       Tot       0.2104
    Quadrupole Moments (Debye-Ang)
        XX     -33.5768     XY       0.0840     YY     -33.8297
        XZ       0.1660     YZ      -0.8408     ZZ     -31.1874

 Final energy is   -578.617563069047
 **  OPTIMIZATION CONVERGED  **
 Total job time:  19.65s(wall), 214.63s(cpu)
        *  Thank you very much for using Q-Chem.  Have a nice day.  *
