 Q-Chem 5.1, Q-Chem, Inc., Pleasanton, CA (2018)
 Q-Chem 5.1.1 for Intel X86 EM64T Linux

User input:
--------------------------------------------------------------

$comment
potential surface scanner
$end

$rem
JOBTYPE  PES_SCAN
UNRESTRICTED TRUE
SYM_IGNORE  TRUE
GEOM_OPT_MAX_CYCLES 400
SCF_MAX_CYCLES 400
METHOD   B3LYP
BASIS   6-31G**
PDB_PRINT 2
SCF_CONVERGENCE 6
THRESH 14
SCF_PRINT 1
$end
$molecule
0 3
Cl 2.415716 -1.940137 -0.527161
C -0.937716 0.746283 -0.276222
C 0.347569 1.114515 0.384909
C -1.512269 -0.595150 0.200292
H -0.803138 0.728257 -1.366677
H -1.692829 1.534689 -0.097609
H 0.538146 0.828671 1.415250
H 1.033810 1.817471 -0.075594
H -1.668995 -0.588881 1.284900
H -2.475503 -0.805750 -0.275207
H -0.829192 -1.418368 -0.032184
$end
$scan
stre 1 3 3.700000 3.701000 0.100000
$end
--------------------------------------------------------------

   11    -578.6175630691      8.92e-07  Convergence criterion met
 Total energy in the final basis set =     -578.6175630691
   12    -578.6173854573      9.91e-07  Convergence criterion met
 Total energy in the final basis set =     -578.6173854573
   12    -578.6173914359      9.99e-07  Convergence criterion met
 Total energy in the final basis set =     -578.6173914359
   15    -578.6174045577      9.66e-07  Convergence criterion met
 Total energy in the final basis set =     -578.6174045577
   15    -578.6174053674      9.69e-07  Convergence criterion met
 Total energy in the final basis set =     -578.6174053674

             Standard Nuclear Orientation (Angstroms)
    I     Atom           X                Y                Z
 ----------------------------------------------------------------
    1      Cl      2.3944746669    -1.8625845207    -0.5109857404
    2      C      -0.9331728375     0.7399022719    -0.2775340838
    3      C       0.3580140016     1.0955305901     0.3791735856
    4      C      -1.5188428970    -0.5958576561     0.2013739787
    5      H      -0.8022947555     0.7200430364    -1.3684428944
    6      H      -1.6801396950     1.5356332995    -0.0971139986
    7      H       0.5500765646     0.8064769937     1.4082611897
    8      H       1.0485566984     1.7933721567    -0.0826660205
    9      H      -1.6759003122    -0.5864328683     1.2858888733
   10      H      -2.4834231556    -0.8000783807    -0.2741832214
   11      H      -0.8417492788    -1.4244049226    -0.0290746682
 ----------------------------------------------------------------

   15    -578.6174070035      9.75e-07  Convergence criterion met
 Total energy in the final basis set =     -578.6174070035

                    Orbital Energies (a.u.)
 --------------------------------------------------------------

 Alpha MOs
 -- Occupied --
******* -10.184 -10.182 -10.172  -9.507  -7.282  -7.259  -7.259
 -0.842  -0.777  -0.669  -0.577  -0.450  -0.435  -0.405  -0.401
 -0.356  -0.351  -0.348  -0.345  -0.337  -0.193

 Beta MOs
 -- Occupied --
******* -10.185 -10.171 -10.169  -9.501  -7.260  -7.255  -7.255
 -0.788  -0.768  -0.652  -0.562  -0.444  -0.428  -0.396  -0.348
 -0.342  -0.335  -0.332  -0.331

          Ground-State Mulliken Net Atomic Charges

     Atom                 Charge (a.u.)    Spin (a.u.)
  --------------------------------------------------------
      1 Cl                    0.001129       1.005238
      2 C                    -0.183089      -0.075575
      3 C                    -0.214102       1.075508
      4 C                    -0.319097       0.011555
      5 H                     0.101184       0.016674
      6 H                     0.105620       0.060330
      7 H                     0.096172      -0.047607
      8 H                     0.096045      -0.047830
      9 H                     0.102438      -0.000830
     10 H                     0.098403       0.001365
     11 H                     0.115296       0.001173
  --------------------------------------------------------
  Sum of atomic charges =     0.000000

                    Cartesian Multipole Moments
 -----------------------------------------------------------------
    Charge (ESU x 10^10)
                 0.0000
    Dipole Moment (Debye)
         X      -0.1870      Y       0.0587      Z      -0.0703
       Tot       0.2082
    Quadrupole Moments (Debye-Ang)
        XX     -33.5826     XY       0.0891     YY     -33.7932
        XZ       0.1678     YZ      -0.9268     ZZ     -31.2425

 Final energy is   -578.617407003549
 **  OPTIMIZATION CONVERGED  **
 Total job time:  25.09s(wall), 256.72s(cpu)
        *  Thank you very much for using Q-Chem.  Have a nice day.  *
