 Q-Chem 5.1, Q-Chem, Inc., Pleasanton, CA (2018)
 Q-Chem 5.1.1 for Intel X86 EM64T Linux

User input:
--------------------------------------------------------------

$comment
potential surface scanner
$end

$rem
JOBTYPE  PES_SCAN
UNRESTRICTED TRUE
SYM_IGNORE  TRUE
GEOM_OPT_MAX_CYCLES 400
SCF_MAX_CYCLES 400
METHOD   B3LYP
BASIS   6-31G**
PDB_PRINT 2
SCF_CONVERGENCE 6
THRESH 14
SCF_PRINT 1
$end
$molecule
0 3
Cl 2.345949 -2.678600 -0.536719
C -0.985092 0.818171 -0.256571
C 0.255113 1.307502 0.411644
C -1.388235 -0.600844 0.166688
H -0.862512 0.861200 -1.347790
H -1.826313 1.503196 -0.039844
H 0.498638 0.991014 1.421695
H 0.843964 2.110685 -0.018959
H -1.544992 -0.655281 1.249870
H -2.315691 -0.914893 -0.322405
H -0.605229 -1.320549 -0.092907
$end
$scan
stre 1 3 4.500000 4.501000 0.100000
$end
--------------------------------------------------------------

   30    -578.6176889205      9.27e-07  Convergence criterion met
 Total energy in the final basis set =     -578.6176889205
   27    -578.6176002701      6.71e-07  Convergence criterion met
 Total energy in the final basis set =     -578.6176002701
   27    -578.6176137564      7.99e-07  Convergence criterion met
 Total energy in the final basis set =     -578.6176137564
   27    -578.6176385661      9.56e-08  Convergence criterion met
 Total energy in the final basis set =     -578.6176385661
   27    -578.6176399574      1.04e-07  Convergence criterion met
 Total energy in the final basis set =     -578.6176399574
   27    -578.6176428986      1.92e-07  Convergence criterion met
 Total energy in the final basis set =     -578.6176428986

             Standard Nuclear Orientation (Angstroms)
    I     Atom           X                Y                Z
 ----------------------------------------------------------------
    1      Cl      2.3496068221    -2.5961963956    -0.5141136004
    2      C      -0.9827763476     0.8127656275    -0.2567847202
    3      C       0.2674537555     1.2858979933     0.4045714121
    4      C      -1.4008381462    -0.6017579280     0.1664293295
    5      H      -0.8659036180     0.8560956502    -1.3486211792
    6      H      -1.8142770706     1.5072162149    -0.0332846250
    7      H       0.5135800845     0.9653058526     1.4126982457
    8      H       0.8633245942     2.0823121408    -0.0289489092
    9      H      -1.5529423225    -0.6563870095     1.2502981208
   10      H      -2.3340856667    -0.9037508857    -0.3192175012
   11      H      -0.6275420845    -1.3299002604    -0.0983245729
 ----------------------------------------------------------------

   27    -578.6176434410      2.55e-07  Convergence criterion met
 Total energy in the final basis set =     -578.6176434410

                    Orbital Energies (a.u.)
 --------------------------------------------------------------

 Alpha MOs
 -- Occupied --
******* -10.185 -10.183 -10.173  -9.510  -7.284  -7.261  -7.261
 -0.844  -0.778  -0.670  -0.578  -0.450  -0.436  -0.406  -0.402
 -0.357  -0.351  -0.351  -0.346  -0.338  -0.195

 Beta MOs
 -- Occupied --
******* -10.186 -10.172 -10.169  -9.503  -7.263  -7.257  -7.257
 -0.790  -0.769  -0.653  -0.563  -0.444  -0.429  -0.396  -0.349
 -0.343  -0.336  -0.334  -0.332

          Ground-State Mulliken Net Atomic Charges

     Atom                 Charge (a.u.)    Spin (a.u.)
  --------------------------------------------------------
      1 Cl                    0.001025       0.999762
      2 C                    -0.182831      -0.075865
      3 C                    -0.218308       1.080150
      4 C                    -0.319578       0.012731
      5 H                     0.103074       0.017178
      6 H                     0.106321       0.060357
      7 H                     0.098347      -0.047801
      8 H                     0.096267      -0.048071
      9 H                     0.102995      -0.000834
     10 H                     0.099285       0.001412
     11 H                     0.113402       0.000982
  --------------------------------------------------------
  Sum of atomic charges =     0.000000

                    Cartesian Multipole Moments
 -----------------------------------------------------------------
    Charge (ESU x 10^10)
                 0.0000
    Dipole Moment (Debye)
         X      -0.2069      Y       0.0380      Z      -0.0752
       Tot       0.2234
    Quadrupole Moments (Debye-Ang)
        XX     -32.8855     XY       0.5992     YY     -33.4440
        XZ      -0.6654     YZ      -1.0489     ZZ     -32.2112

 Final energy is   -578.617643441010
 **  OPTIMIZATION CONVERGED  **
 Total job time:  44.97s(wall), 483.26s(cpu)
        *  Thank you very much for using Q-Chem.  Have a nice day.  *
