 Q-Chem 5.1, Q-Chem, Inc., Pleasanton, CA (2018)
 Q-Chem 5.1.1 for Intel X86 EM64T Linux

User input:
--------------------------------------------------------------

$comment
potential surface scanner
$end

$rem
JOBTYPE  PES_SCAN
UNRESTRICTED TRUE
SYM_IGNORE  TRUE
GEOM_OPT_MAX_CYCLES 400
SCF_MAX_CYCLES 400
METHOD   B3LYP
BASIS   6-31G**
PDB_PRINT 2
SCF_CONVERGENCE 6
THRESH 14
SCF_PRINT 1
$end
$molecule
0 3
Cl 2.250146 -2.877365 -0.548123
C -0.993851 0.834301 -0.251736
C 0.226106 1.365543 0.421924
C -1.336360 -0.604602 0.157274
H -0.871458 0.893034 -1.342329
H -1.862456 1.481830 -0.029070
H 0.482098 1.048984 1.428922
H 0.782805 2.195800 -0.000138
H -1.506185 -0.673014 1.237788
H -2.240301 -0.959911 -0.347368
H -0.514946 -1.282999 -0.092442
$end
$scan
stre 1 3 4.700000 4.701000 0.100000
$end
--------------------------------------------------------------

   11    -578.6177998838      5.01e-07  Convergence criterion met
 Total energy in the final basis set =     -578.6177998838
   11    -578.6176188060      3.17e-07  Convergence criterion met
 Total energy in the final basis set =     -578.6176188060
   11    -578.6176484969      3.03e-07  Convergence criterion met
 Total energy in the final basis set =     -578.6176484969
   11    -578.6176945314      4.68e-07  Convergence criterion met
 Total energy in the final basis set =     -578.6176945314
   11    -578.6176995047      5.39e-07  Convergence criterion met
 Total energy in the final basis set =     -578.6176995047
   11    -578.6177087708      6.81e-07  Convergence criterion met
 Total energy in the final basis set =     -578.6177087708
   11    -578.6177108078      6.45e-07  Convergence criterion met
 Total energy in the final basis set =     -578.6177108078
   11    -578.6177142812      4.68e-07  Convergence criterion met
 Total energy in the final basis set =     -578.6177142812
   11    -578.6177199479      2.91e-07  Convergence criterion met
 Total energy in the final basis set =     -578.6177199479
   11    -578.6177344017      6.59e-07  Convergence criterion met
 Total energy in the final basis set =     -578.6177344017
   25    -578.6177357943      8.66e-07  Convergence criterion met
 Total energy in the final basis set =     -578.6177357943
   27    -578.6177401117      4.75e-07  Convergence criterion met
 Total energy in the final basis set =     -578.6177401117
   25    -578.6177436558      8.49e-07  Convergence criterion met
 Total energy in the final basis set =     -578.6177436558

             Standard Nuclear Orientation (Angstroms)
    I     Atom           X                Y                Z
 ----------------------------------------------------------------
    1      Cl      2.3189045282    -2.7781890479    -0.5332477729
    2      C      -0.9920790592     0.8280452713    -0.2525104661
    3      C       0.2442306173     1.3317464153     0.4123521357
    4      C      -1.3672696856    -0.6018217033     0.1607017161
    5      H      -0.8772263439     0.8830546601    -1.3440364463
    6      H      -1.8431646193     1.4970393492    -0.0244301772
    7      H       0.4971345026     1.0126295473     1.4193160443
    8      H       0.8159044253     2.1498366124    -0.0134293419
    9      H      -1.5334551632    -0.6639106960     1.2420709225
   10      H      -2.2824719570    -0.9351166531    -0.3385808597
   11      H      -0.5649092454    -1.3017127553    -0.0935037545
 ----------------------------------------------------------------

   24    -578.6177443936      8.51e-07  Convergence criterion met
 Total energy in the final basis set =     -578.6177443936

                    Orbital Energies (a.u.)
 --------------------------------------------------------------

 Alpha MOs
 -- Occupied --
******* -10.185 -10.183 -10.172  -9.510  -7.285  -7.262  -7.262
 -0.844  -0.778  -0.670  -0.578  -0.450  -0.436  -0.407  -0.402
 -0.357  -0.351  -0.351  -0.346  -0.338  -0.195

 Beta MOs
 -- Occupied --
******* -10.185 -10.172 -10.169  -9.504  -7.263  -7.258  -7.258
 -0.791  -0.769  -0.652  -0.563  -0.444  -0.429  -0.396  -0.349
 -0.343  -0.336  -0.335  -0.332

          Ground-State Mulliken Net Atomic Charges

     Atom                 Charge (a.u.)    Spin (a.u.)
  --------------------------------------------------------
      1 Cl                    0.002016       1.000193
      2 C                    -0.182938      -0.075819
      3 C                    -0.218531       1.080233
      4 C                    -0.320771       0.011937
      5 H                     0.102651       0.017162
      6 H                     0.106166       0.060258
      7 H                     0.098093      -0.047729
      8 H                     0.096300      -0.048006
      9 H                     0.102684      -0.000844
     10 H                     0.099086       0.001368
     11 H                     0.115244       0.001245
  --------------------------------------------------------
  Sum of atomic charges =    -0.000000

                    Cartesian Multipole Moments
 -----------------------------------------------------------------
    Charge (ESU x 10^10)
                -0.0000
    Dipole Moment (Debye)
         X      -0.1937      Y       0.0122      Z      -0.0765
       Tot       0.2086
    Quadrupole Moments (Debye-Ang)
        XX     -33.1846     XY       0.3586     YY     -33.4863
        XZ      -0.5676     YZ      -1.0474     ZZ     -31.8040

 Final energy is   -578.617744393648
 **  OPTIMIZATION CONVERGED  **
 Total job time:  56.60s(wall), 621.75s(cpu)
        *  Thank you very much for using Q-Chem.  Have a nice day.  *
