 Q-Chem 5.1, Q-Chem, Inc., Pleasanton, CA (2018)
 Q-Chem 5.1.1 for Intel X86 EM64T Linux

User input:
--------------------------------------------------------------

$comment
potential surface scanner
$end

$rem
JOBTYPE  PES_SCAN
UNRESTRICTED TRUE
SYM_IGNORE  TRUE
GEOM_OPT_MAX_CYCLES 400
SCF_MAX_CYCLES 400
METHOD   B3LYP
BASIS   6-31G**
PDB_PRINT 2
SCF_CONVERGENCE 6
THRESH 14
SCF_PRINT 1
$end
$molecule
0 3
Cl 2.293826 -0.083725 -0.807169
C -0.758975 0.479561 -0.324052
C 0.543119 0.480721 0.399655
C -1.741548 -0.543040 0.276511
H -0.590198 0.258943 -1.385500
H -1.227640 1.479569 -0.291845
H 0.532285 0.570206 1.491120
H 1.337713 1.181539 -0.004675
H -1.945219 -0.325636 1.330164
H -2.693388 -0.520439 -0.262518
H -1.334375 -1.556101 0.213003
$end
$scan
stre 1 3 2.100000 2.101000 0.100000
$end
--------------------------------------------------------------

   11    -578.5825767561      9.12e-07  Convergence criterion met
 Total energy in the final basis set =     -578.5825767561
   11    -578.5692495390      8.06e-07  Convergence criterion met
 Total energy in the final basis set =     -578.5692495390
   11    -578.5691886885      7.80e-07  Convergence criterion met
 Total energy in the final basis set =     -578.5691886885
   11    -578.5694009286      8.00e-07  Convergence criterion met
 Total energy in the final basis set =     -578.5694009286
   11    -578.5694618579      8.45e-07  Convergence criterion met
 Total energy in the final basis set =     -578.5694618579
   11    -578.5694929442      9.06e-07  Convergence criterion met
 Total energy in the final basis set =     -578.5694929442
   11    -578.5694990701      9.35e-07  Convergence criterion met
 Total energy in the final basis set =     -578.5694990701
   11    -578.5695017809      9.52e-07  Convergence criterion met
 Total energy in the final basis set =     -578.5695017809
   11    -578.5695033801      9.64e-07  Convergence criterion met
 Total energy in the final basis set =     -578.5695033801

             Standard Nuclear Orientation (Angstroms)
    I     Atom           X                Y                Z
 ----------------------------------------------------------------
    1      Cl      2.2195988053    -0.1448463817    -0.7507396971
    2      C      -0.7528302471     0.4852904809    -0.3295136450
    3      C       0.5610476134     0.4727395496     0.3796571766
    4      C      -1.7258973619    -0.5456816492     0.2721012827
    5      H      -0.5978734858     0.2747390091    -1.3955986331
    6      H      -1.2239903719     1.4833887249    -0.2814587174
    7      H       0.5353804882     0.5817458880     1.4720001455
    8      H       1.3178930068     1.2316322180    -0.0008190763
    9      H      -1.9176279432    -0.3393282472     1.3302301355
   10      H      -2.6840361410    -0.5212387338    -0.2556014904
   11      H      -1.3160643629    -1.5568428586     0.1944365191
 ----------------------------------------------------------------

   11    -578.5695039045      9.68e-07  Convergence criterion met
 Total energy in the final basis set =     -578.5695039045

                    Orbital Energies (a.u.)
 --------------------------------------------------------------

 Alpha MOs
 -- Occupied --
******* -10.216 -10.199 -10.187  -9.462  -7.231  -7.216  -7.214
 -0.849  -0.786  -0.691  -0.600  -0.493  -0.464  -0.422  -0.388
 -0.376  -0.358  -0.343  -0.317  -0.300  -0.163

 Beta MOs
 -- Occupied --
******* -10.200 -10.198 -10.186  -9.455  -7.213  -7.210  -7.209
 -0.809  -0.769  -0.666  -0.581  -0.464  -0.452  -0.412  -0.368
 -0.365  -0.351  -0.316  -0.302

          Ground-State Mulliken Net Atomic Charges

     Atom                 Charge (a.u.)    Spin (a.u.)
  --------------------------------------------------------
      1 Cl                   -0.077718       0.845160
      2 C                    -0.171900      -0.042040
      3 C                    -0.287539       1.035514
      4 C                    -0.315938       0.025032
      5 H                     0.117888       0.015251
      6 H                     0.110962       0.051224
      7 H                     0.118129       0.000745
      8 H                     0.163583       0.064877
      9 H                     0.109566      -0.001186
     10 H                     0.110621       0.004701
     11 H                     0.122346       0.000722
  --------------------------------------------------------
  Sum of atomic charges =    -0.000000

                    Cartesian Multipole Moments
 -----------------------------------------------------------------
    Charge (ESU x 10^10)
                 0.0000
    Dipole Moment (Debye)
         X      -1.7422      Y       0.8587      Z       0.6883
       Tot       2.0607
    Quadrupole Moments (Debye-Ang)
        XX     -36.8132     XY       0.8235     YY     -31.9321
        XZ       1.5889     YZ       0.3814     ZZ     -33.5440

 Final energy is   -578.569503904543
 **  OPTIMIZATION CONVERGED  **
 Total job time:  42.77s(wall), 390.30s(cpu)
        *  Thank you very much for using Q-Chem.  Have a nice day.  *
