 Q-Chem 5.1, Q-Chem, Inc., Pleasanton, CA (2018)
 Q-Chem 5.1.1 for Intel X86 EM64T Linux

User input:
--------------------------------------------------------------

$comment
potential surface scanner
$end

$rem
JOBTYPE  PES_SCAN
UNRESTRICTED TRUE
SYM_IGNORE  TRUE
GEOM_OPT_MAX_CYCLES 400
SCF_MAX_CYCLES 400
METHOD   B3LYP
BASIS   6-31G**
PDB_PRINT 2
SCF_CONVERGENCE 6
THRESH 14
SCF_PRINT 1
$end
$molecule
0 1
Cl 1.759445 -0.576646 -0.207865
C -0.787170 0.556755 -0.324447
C 0.595837 0.741625 0.285548
C -1.534253 -0.685854 0.163299
H -0.697481 0.544007 -1.416574
H -1.360732 1.459349 -0.069835
H 0.565226 0.717231 1.377000
H 1.057152 1.675548 -0.038205
H -1.660479 -0.669448 1.251751
H -2.529632 -0.742170 -0.287655
H -0.992314 -1.598796 -0.098317
$end
$scan
stre 1 3 3.600000 3.601000 0.100000
$end
--------------------------------------------------------------

    9    -578.7495578000      3.58e-07  Convergence criterion met
 Total energy in the final basis set =     -578.7495578000
    9    -578.7435169914      4.18e-07  Convergence criterion met
 Total energy in the final basis set =     -578.7435169914
    9    -578.7315821041      4.88e-07  Convergence criterion met
 Total energy in the final basis set =     -578.7315821041
    9    -578.7188383402      5.82e-07  Convergence criterion met
 Total energy in the final basis set =     -578.7188383402
    9    -578.7070916918      7.12e-07  Convergence criterion met
 Total energy in the final basis set =     -578.7070916918
    9    -578.6961919782      9.97e-07  Convergence criterion met
 Total energy in the final basis set =     -578.6961919782
   10    -578.6857803592      4.49e-07  Convergence criterion met
 Total energy in the final basis set =     -578.6857803592
   10    -578.6759398299      9.68e-07  Convergence criterion met
   12    -578.6340446329      2.49e-07  Convergence criterion met
 Total energy in the final basis set =     -578.6340446329
   12    -578.6340464629      2.50e-07  Convergence criterion met
 Total energy in the final basis set =     -578.6340464629
   12    -578.6340489665      2.52e-07  Convergence criterion met
 Total energy in the final basis set =     -578.6340489665
   12    -578.6340521624      2.54e-07  Convergence criterion met
 Total energy in the final basis set =     -578.6340521624
   12    -578.6340551860      2.57e-07  Convergence criterion met
 Total energy in the final basis set =     -578.6340551860
   12    -578.6340569910      2.59e-07  Convergence criterion met
 Total energy in the final basis set =     -578.6340569910

             Standard Nuclear Orientation (Angstroms)
    I     Atom           X                Y                Z
 ----------------------------------------------------------------
    1      Cl      2.1448582162    -1.8085983619    -0.2961097569
    2      C      -0.9256847353     0.7194006172    -0.2808223620
    3      C       0.2715999738     1.1864458703     0.3971532092
    4      C      -1.4072053405    -0.6857232163     0.1227118716
    5      H      -0.8355643614     0.8384674240    -1.3647339455
    6      H      -1.7056729255     1.4540308097     0.0338392809
    7      H       0.4416281147     0.9500161907     1.4440666295
    8      H       0.9847627631     1.8495605217    -0.0830260587
    9      H      -1.5335393793    -0.7638761562     1.2066184083
   10      H      -2.3657550938    -0.9022845477    -0.3547350623
   11      H      -0.6538282322    -1.4158381516    -0.1902622139
 ----------------------------------------------------------------

   12    -578.6340576892      2.60e-07  Convergence criterion met
 Total energy in the final basis set =     -578.6340576892

                    Orbital Energies (a.u.)
 --------------------------------------------------------------

 Alpha MOs
 -- Occupied --
******* -10.317 -10.255 -10.210  -9.369  -7.131  -7.124  -7.124
 -0.855  -0.730  -0.694  -0.641  -0.532  -0.494  -0.472  -0.411
 -0.399  -0.389  -0.239  -0.230  -0.229

 Beta MOs
 -- Occupied --
******* -10.317 -10.255 -10.210  -9.369  -7.131  -7.124  -7.124
 -0.855  -0.730  -0.694  -0.641  -0.532  -0.494  -0.472  -0.411
 -0.399  -0.389  -0.239  -0.230  -0.229

          Ground-State Mulliken Net Atomic Charges

     Atom                 Charge (a.u.)    Spin (a.u.)
  --------------------------------------------------------
      1 Cl                   -0.515603      -0.000000
      2 C                    -0.239155      -0.000000
      3 C                    -0.065737       0.000000
      4 C                    -0.325745       0.000000
      5 H                     0.165258       0.000000
      6 H                     0.167561       0.000000
      7 H                     0.189974       0.000000
      8 H                     0.188418       0.000000
      9 H                     0.119606      -0.000000
     10 H                     0.121120       0.000000
     11 H                     0.194304       0.000000
  --------------------------------------------------------
  Sum of atomic charges =    -0.000000

                    Cartesian Multipole Moments
 -----------------------------------------------------------------
    Charge (ESU x 10^10)
                -0.0000
    Dipole Moment (Debye)
         X      -5.5719      Y       6.4280      Z       1.1793
       Tot       8.5881
    Quadrupole Moments (Debye-Ang)
        XX     -41.9566     XY       9.2112     YY     -36.5994
        XZ       1.8460     YZ      -0.5134     ZZ     -32.2043

 Final energy is   -578.634057689173
 **  OPTIMIZATION CONVERGED  **
 Total job time:  125.30s(wall), 1320.30s(cpu)
        *  Thank you very much for using Q-Chem.  Have a nice day.  *
