 Q-Chem 5.1, Q-Chem, Inc., Pleasanton, CA (2018)
 Q-Chem 5.1.1 for Intel X86 EM64T Linux

User input:
--------------------------------------------------------------

$comment
potential surface scanner
$end

$rem
JOBTYPE  PES_SCAN
UNRESTRICTED TRUE
SYM_IGNORE  TRUE
GEOM_OPT_MAX_CYCLES 400
SCF_MAX_CYCLES 400
METHOD   B3LYP
BASIS   6-31G**
PDB_PRINT 2
SCF_CONVERGENCE 6
THRESH 14
SCF_PRINT 1
$end
$molecule
0 3
Cl 2.219599 -0.144846 -0.750740
C -0.752830 0.485290 -0.329514
C 0.561048 0.472740 0.379657
C -1.725897 -0.545682 0.272101
H -0.597873 0.274739 -1.395599
H -1.223990 1.483389 -0.281459
H 0.535380 0.581746 1.472000
H 1.317893 1.231632 -0.000819
H -1.917628 -0.339328 1.330230
H -2.684036 -0.521239 -0.255601
H -1.316064 -1.556843 0.194437
$end
$scan
stre 1 3 2.000000 2.001000 0.100000
$end
--------------------------------------------------------------

   11    -578.5695038950      9.68e-07  Convergence criterion met
 Total energy in the final basis set =     -578.5695038950
   11    -578.5527482784      6.51e-07  Convergence criterion met
 Total energy in the final basis set =     -578.5527482784
   11    -578.5529498269      7.80e-07  Convergence criterion met
 Total energy in the final basis set =     -578.5529498269
   11    -578.5531900139      9.02e-07  Convergence criterion met
 Total energy in the final basis set =     -578.5531900139
   11    -578.5532038449      9.26e-07  Convergence criterion met
 Total energy in the final basis set =     -578.5532038449
   11    -578.5532062438      9.29e-07  Convergence criterion met
 Total energy in the final basis set =     -578.5532062438
   11    -578.5532075312      9.26e-07  Convergence criterion met
 Total energy in the final basis set =     -578.5532075312
   11    -578.5532088247      9.21e-07  Convergence criterion met
   11    -578.5562581868      3.65e-07  Convergence criterion met
 Total energy in the final basis set =     -578.5562581868
   11    -578.5562613624      3.65e-07  Convergence criterion met
 Total energy in the final basis set =     -578.5562613624
   11    -578.5562653000      3.65e-07  Convergence criterion met
 Total energy in the final basis set =     -578.5562653000
   11    -578.5562677800      3.65e-07  Convergence criterion met
 Total energy in the final basis set =     -578.5562677800
   11    -578.5562704427      3.65e-07  Convergence criterion met
 Total energy in the final basis set =     -578.5562704427
   11    -578.5562714868      3.65e-07  Convergence criterion met
 Total energy in the final basis set =     -578.5562714868

             Standard Nuclear Orientation (Angstroms)
    I     Atom           X                Y                Z
 ----------------------------------------------------------------
    1      Cl      2.6185171586     0.1025424520     0.4092033607
    2      C      -0.8704365297     0.5367640169    -0.3684524207
    3      C       0.6741031100     0.3527800373     0.0134316967
    4      C      -1.7389194943    -0.5278112275     0.2951360186
    5      H      -0.9321456213     0.4814538013    -1.4613730218
    6      H      -1.1995696784     1.5454989997    -0.0778019941
    7      H       0.6266173614     0.2563793038     1.0954636608
    8      H       1.1357061811     1.0700355117    -0.6638650756
    9      H      -1.6974460505    -0.4528052170     1.3873607307
   10      H      -2.7854725482    -0.4093527916    -0.0073885892
   11      H      -1.4153518887    -1.5338868866     0.0129786340
 ----------------------------------------------------------------

   11    -578.5562717813      3.65e-07  Convergence criterion met
 Total energy in the final basis set =     -578.5562717813

                    Orbital Energies (a.u.)
 --------------------------------------------------------------

 Alpha MOs
 -- Occupied --
******* -10.230 -10.217 -10.192  -9.442  -7.211  -7.197  -7.194
 -0.842  -0.789  -0.691  -0.604  -0.506  -0.464  -0.443  -0.392
 -0.378  -0.369  -0.335  -0.293  -0.266  -0.194

 Beta MOs
 -- Occupied --
******* -10.215 -10.213 -10.192  -9.436  -7.195  -7.191  -7.191
 -0.807  -0.772  -0.667  -0.583  -0.486  -0.452  -0.425  -0.379
 -0.363  -0.356  -0.302  -0.279

          Ground-State Mulliken Net Atomic Charges

     Atom                 Charge (a.u.)    Spin (a.u.)
  --------------------------------------------------------
      1 Cl                   -0.126809       0.703738
      2 C                    -0.212820       0.167126
      3 C                    -0.320677       0.962284
      4 C                    -0.318144       0.010238
      5 H                     0.123506       0.009401
      6 H                     0.119243       0.032916
      7 H                     0.188836       0.043943
      8 H                     0.194258       0.056823
      9 H                     0.111432       0.000255
     10 H                     0.115829       0.010333
     11 H                     0.125346       0.002943
  --------------------------------------------------------
  Sum of atomic charges =    -0.000000

                    Cartesian Multipole Moments
 -----------------------------------------------------------------
    Charge (ESU x 10^10)
                 0.0000
    Dipole Moment (Debye)
         X      -2.8855      Y       0.7526      Z      -0.3453
       Tot       3.0020
    Quadrupole Moments (Debye-Ang)
        XX     -39.7666     XY       0.1497     YY     -32.8329
        XZ      -1.2166     YZ      -0.6305     ZZ     -32.4438

 Final energy is   -578.556271781328
 **  OPTIMIZATION CONVERGED  **
 Total job time:  117.50s(wall), 1253.83s(cpu)
        *  Thank you very much for using Q-Chem.  Have a nice day.  *
