 Q-Chem 5.1, Q-Chem, Inc., Pleasanton, CA (2018)
 Q-Chem 5.1.1 for Intel X86 EM64T Linux

User input:
--------------------------------------------------------------

$comment
potential surface scanner
$end

$rem
JOBTYPE  PES_SCAN
UNRESTRICTED TRUE
SYM_IGNORE  TRUE
GEOM_OPT_MAX_CYCLES 400
SCF_MAX_CYCLES 400
METHOD   B3LYP
BASIS   6-31G**
PDB_PRINT 2
SCF_CONVERGENCE 6
THRESH 14
SCF_PRINT 1
$end
$molecule
0 1
Cl 1.759445 -0.576646 -0.207865
C -0.787170 0.556755 -0.324447
C 0.595837 0.741625 0.285548
C -1.534253 -0.685854 0.163299
H -0.697481 0.544007 -1.416574
H -1.360732 1.459349 -0.069835
H 0.565226 0.717231 1.377000
H 1.057152 1.675548 -0.038205
H -1.660479 -0.669448 1.251751
H -2.529632 -0.742170 -0.287655
H -0.992314 -1.598796 -0.098317
$end
$scan
stre 1 3 1.600000 1.601000 0.100000
$end
--------------------------------------------------------------

    9    -578.7495578000      3.58e-07  Convergence criterion met
 Total energy in the final basis set =     -578.7495578000
    9    -578.7399653932      3.39e-07  Convergence criterion met
 Total energy in the final basis set =     -578.7399653932
    9    -578.7261264170      3.49e-07  Convergence criterion met
 Total energy in the final basis set =     -578.7261264170
    9    -578.7267907996      3.56e-07  Convergence criterion met
 Total energy in the final basis set =     -578.7267907996
    9    -578.7273773614      3.68e-07  Convergence criterion met
 Total energy in the final basis set =     -578.7273773614
    9    -578.7273929044      3.69e-07  Convergence criterion met
 Total energy in the final basis set =     -578.7273929044

             Standard Nuclear Orientation (Angstroms)
    I     Atom           X                Y                Z
 ----------------------------------------------------------------
    1      Cl      1.6768718416    -0.4724896045    -0.1628728618
    2      C      -0.7681149151     0.5440769315    -0.3273229703
    3      C       0.6525846784     0.6808206915     0.2622284982
    4      C      -1.5318206837    -0.6890798609     0.1607210454
    5      H      -0.6945211504     0.5314767535    -1.4220137151
    6      H      -1.3207942828     1.4534598440    -0.0599019322
    7      H       0.5555843763     0.7257419221     1.3561250849
    8      H       1.0392134588     1.6645392878    -0.0340741510
    9      H      -1.6415748429    -0.6789692095     1.2513781929
   10      H      -2.5352765295    -0.7238872376    -0.2746604234
   11      H      -1.0165529506    -1.6140885178    -0.1149067676
 ----------------------------------------------------------------

    9    -578.7274039971      3.69e-07  Convergence criterion met
 Total energy in the final basis set =     -578.7274039971

                    Orbital Energies (a.u.)
 --------------------------------------------------------------

 Alpha MOs
 -- Occupied --
******* -10.229 -10.192 -10.178  -9.454  -7.217  -7.208  -7.207
 -0.905  -0.766  -0.668  -0.586  -0.476  -0.472  -0.432  -0.414
 -0.370  -0.359  -0.344  -0.285  -0.284

 Beta MOs
 -- Occupied --
******* -10.229 -10.192 -10.178  -9.454  -7.217  -7.208  -7.207
 -0.905  -0.766  -0.668  -0.586  -0.476  -0.472  -0.432  -0.414
 -0.370  -0.359  -0.344  -0.285  -0.284

          Ground-State Mulliken Net Atomic Charges

     Atom                 Charge (a.u.)    Spin (a.u.)
  --------------------------------------------------------
      1 Cl                   -0.014401       0.000000
      2 C                    -0.180746       0.000000
      3 C                    -0.303381       0.000000
      4 C                    -0.318429       0.000000
      5 H                     0.110255       0.000000
      6 H                     0.100992       0.000000
      7 H                     0.135092      -0.000000
      8 H                     0.136955      -0.000000
      9 H                     0.103054      -0.000000
     10 H                     0.107087       0.000000
     11 H                     0.123521       0.000000
  --------------------------------------------------------
  Sum of atomic charges =    -0.000000

                    Cartesian Multipole Moments
 -----------------------------------------------------------------
    Charge (ESU x 10^10)
                -0.0000
    Dipole Moment (Debye)
         X      -1.1219      Y       1.0263      Z       0.3335
       Tot       1.5567
    Quadrupole Moments (Debye-Ang)
        XX     -34.8086     XY       0.8717     YY     -32.2370
        XZ       0.3739     YZ       0.2547     ZZ     -32.6218

 Final energy is   -578.727403997054
 **  OPTIMIZATION CONVERGED  **
 Total job time:  26.11s(wall), 275.96s(cpu)
        *  Thank you very much for using Q-Chem.  Have a nice day.  *
