 Q-Chem 5.1, Q-Chem, Inc., Pleasanton, CA (2018)
 Q-Chem 5.1.1 for Intel X86 EM64T Linux

User input:
--------------------------------------------------------------

$comment
potential surface scanner
$end

$rem
JOBTYPE  PES_SCAN
UNRESTRICTED TRUE
SYM_IGNORE  TRUE
GEOM_OPT_MAX_CYCLES 400
SCF_MAX_CYCLES 400
METHOD   B3LYP
BASIS   6-31G**
PDB_PRINT 2
SCF_CONVERGENCE 6
THRESH 14
SCF_PRINT 1
$end
$molecule
0 3
Cl 2.139929 -3.331394 -0.799881
C -0.977635 0.844239 -0.259790
C 0.125339 1.509313 0.491979
C -1.238418 -0.603957 0.180478
H -0.765230 0.875917 -1.337312
H -1.914106 1.420202 -0.138360
H 0.286973 1.289857 1.543662
H 0.674483 2.340908 0.062886
H -1.471510 -0.650797 1.250290
H -2.083592 -1.039341 -0.362946
H -0.360637 -1.233347 0.003695
$end
$scan
stre 1 3 5.400000 5.401000 0.100000
$end
--------------------------------------------------------------

   11    -578.6178038179      5.56e-07  Convergence criterion met
 Total energy in the final basis set =     -578.6178038179
   11    -578.6178049337      5.54e-07  Convergence criterion met
 Total energy in the final basis set =     -578.6178049337

             Standard Nuclear Orientation (Angstroms)
    I     Atom           X                Y                Z
 ----------------------------------------------------------------
    1      Cl      2.1395953079    -3.3305716063    -0.8006411481
    2      C      -0.9782543938     0.8444819921    -0.2595387017
    3      C       0.1247798216     1.5098330197     0.4920311283
    4      C      -1.2380952315    -0.6036456779     0.1811976887
    5      H      -0.7651715279     0.8741890063    -1.3367508163
    6      H      -1.9155899412     1.4200075692    -0.1399326539
    7      H       0.2875193719     1.2882412697     1.5428142029
    8      H       0.6755043924     2.3407649901     0.0635066920
    9      H      -1.4721664770    -0.6501016310     1.2506346741
   10      H      -2.0825470837    -1.0382944076    -0.3634003501
   11      H      -0.3599782386    -1.2333045242     0.0047802841
 ----------------------------------------------------------------

   11    -578.6178054450      5.52e-07  Convergence criterion met
 Total energy in the final basis set =     -578.6178054450

                    Orbital Energies (a.u.)
 --------------------------------------------------------------

 Alpha MOs
 -- Occupied --
******* -10.184 -10.183 -10.172  -9.511  -7.286  -7.263  -7.263
 -0.845  -0.777  -0.670  -0.578  -0.450  -0.434  -0.408  -0.401
 -0.358  -0.352  -0.351  -0.346  -0.337  -0.195

 Beta MOs
 -- Occupied --
******* -10.185 -10.172 -10.169  -9.505  -7.265  -7.259  -7.259
 -0.792  -0.768  -0.652  -0.563  -0.445  -0.427  -0.396  -0.350
 -0.342  -0.336  -0.336  -0.332

          Ground-State Mulliken Net Atomic Charges

     Atom                 Charge (a.u.)    Spin (a.u.)
  --------------------------------------------------------
      1 Cl                    0.002646       1.000517
      2 C                    -0.183272      -0.076007
      3 C                    -0.219807       1.080613
      4 C                    -0.320619       0.012872
      5 H                     0.102438       0.014874
      6 H                     0.106242       0.060486
      7 H                     0.097541      -0.047747
      8 H                     0.097069      -0.048178
      9 H                     0.103081      -0.000949
     10 H                     0.098316       0.001910
     11 H                     0.116364       0.001609
  --------------------------------------------------------
  Sum of atomic charges =     0.000000

                    Cartesian Multipole Moments
 -----------------------------------------------------------------
    Charge (ESU x 10^10)
                -0.0000
    Dipole Moment (Debye)
         X      -0.1799      Y      -0.0492      Z      -0.1079
       Tot       0.2154
    Quadrupole Moments (Debye-Ang)
        XX     -32.9798     XY       0.4152     YY     -33.5090
        XZ       1.0054     YZ       0.2919     ZZ     -31.9307

 Final energy is   -578.617805445021
 **  OPTIMIZATION CONVERGED  **
 Total job time:  10.50s(wall), 107.91s(cpu)
        *  Thank you very much for using Q-Chem.  Have a nice day.  *
