 Q-Chem 5.1, Q-Chem, Inc., Pleasanton, CA (2018)
 Q-Chem 5.1.1 for Intel X86 EM64T Linux

User input:
--------------------------------------------------------------

$comment
potential surface scanner
$end

$rem
JOBTYPE  PES_SCAN
UNRESTRICTED TRUE
SYM_IGNORE  TRUE
GEOM_OPT_MAX_CYCLES 400
SCF_MAX_CYCLES 400
METHOD   B3LYP
BASIS   6-31G**
PDB_PRINT 2
SCF_CONVERGENCE 6
THRESH 14
SCF_PRINT 1
$end
$molecule
0 3
Cl 2.472201 -2.174989 -0.570468
C -0.951712 0.766142 -0.272076
C 0.314810 1.173108 0.402112
C -1.490234 -0.593092 0.196186
H -0.806749 0.755124 -1.361291
H -1.732284 1.530487 -0.098490
H 0.503545 0.894108 1.434682
H 0.987956 1.890864 -0.054880
H -1.643306 -0.598573 1.281331
H -2.449847 -0.823105 -0.277647
H -0.788779 -1.398472 -0.044760
$end
$scan
stre 1 3 4.000000 4.001000 0.100000
$end
--------------------------------------------------------------

   11    -578.6177117319      4.51e-07  Convergence criterion met
 Total energy in the final basis set =     -578.6177117319
   11    -578.6176728236      4.07e-07  Convergence criterion met
 Total energy in the final basis set =     -578.6176728236
   11    -578.6176816856      4.13e-07  Convergence criterion met
 Total energy in the final basis set =     -578.6176816856
   11    -578.6176989630      4.23e-07  Convergence criterion met
 Total energy in the final basis set =     -578.6176989630
   11    -578.6176999080      4.24e-07  Convergence criterion met
 Total energy in the final basis set =     -578.6176999080
   11    -578.6177023339      4.29e-07  Convergence criterion met
 Total energy in the final basis set =     -578.6177023339

             Standard Nuclear Orientation (Angstroms)
    I     Atom           X                Y                Z
 ----------------------------------------------------------------
    1      Cl      2.4577231263    -2.0952900216    -0.5565522469
    2      C      -0.9471619309     0.7593578235    -0.2734631452
    3      C       0.3261677464     1.1526251224     0.3960858806
    4      C      -1.4987069509    -0.5935475679     0.1978279161
    5      H      -0.8059913911     0.7458804091    -1.3631341107
    6      H      -1.7186686194     1.5324167516    -0.0978390615
    7      H       0.5152343038     0.8717255249     1.4280912426
    8      H       1.0039572531     1.8651723388    -0.0622011688
    9      H      -1.6536017431    -0.5946902810     1.2827174756
   10      H      -2.4595465507    -0.8166266900    -0.2768760335
   11      H      -0.8038042434    -1.4054214098    -0.0399577484
 ----------------------------------------------------------------

   11    -578.6177027272      4.29e-07  Convergence criterion met
 Total energy in the final basis set =     -578.6177027272

                    Orbital Energies (a.u.)
 --------------------------------------------------------------

 Alpha MOs
 -- Occupied --
******* -10.184 -10.183 -10.172  -9.508  -7.283  -7.260  -7.260
 -0.843  -0.777  -0.670  -0.577  -0.450  -0.435  -0.405  -0.401
 -0.356  -0.351  -0.350  -0.346  -0.337  -0.194

 Beta MOs
 -- Occupied --
******* -10.185 -10.172 -10.169  -9.502  -7.261  -7.256  -7.256
 -0.789  -0.768  -0.652  -0.562  -0.444  -0.428  -0.396  -0.349
 -0.342  -0.335  -0.333  -0.332

          Ground-State Mulliken Net Atomic Charges

     Atom                 Charge (a.u.)    Spin (a.u.)
  --------------------------------------------------------
      1 Cl                    0.001265       1.003099
      2 C                    -0.183198      -0.075833
      3 C                    -0.215982       1.077888
      4 C                    -0.319156       0.011738
      5 H                     0.101460       0.016313
      6 H                     0.105932       0.060491
      7 H                     0.096838      -0.047711
      8 H                     0.096425      -0.047986
      9 H                     0.102584      -0.000852
     10 H                     0.098433       0.001505
     11 H                     0.115399       0.001348
  --------------------------------------------------------
  Sum of atomic charges =    -0.000000

                    Cartesian Multipole Moments
 -----------------------------------------------------------------
    Charge (ESU x 10^10)
                -0.0000
    Dipole Moment (Debye)
         X      -0.1888      Y       0.0460      Z      -0.0749
       Tot       0.2082
    Quadrupole Moments (Debye-Ang)
        XX     -33.5602     XY       0.0507     YY     -33.7918
        XZ       0.2268     YZ      -0.8775     ZZ     -31.2058

 Final energy is   -578.617702727208
 **  OPTIMIZATION CONVERGED  **
 Total job time:  24.52s(wall), 256.06s(cpu)
        *  Thank you very much for using Q-Chem.  Have a nice day.  *
