 Q-Chem 5.1, Q-Chem, Inc., Pleasanton, CA (2018)
 Q-Chem 5.1.1 for Intel X86 EM64T Linux

User input:
--------------------------------------------------------------

$comment
potential surface scanner
$end

$rem
JOBTYPE  PES_SCAN
UNRESTRICTED TRUE
SYM_IGNORE  TRUE
GEOM_OPT_MAX_CYCLES 400
SCF_MAX_CYCLES 400
METHOD   B3LYP
BASIS   6-31G**
PDB_PRINT 2
SCF_CONVERGENCE 6
THRESH 14
SCF_PRINT 1
$end
$molecule
0 1
Cl 1.945429 -0.800420 -0.292801
C -0.825685 0.584015 -0.316764
C 0.484995 0.862608 0.332873
C -1.537338 -0.678537 0.169917
H -0.704001 0.579484 -1.404500
H -1.439819 1.474906 -0.087358
H 0.567183 0.703553 1.404276
H 1.074937 1.689909 -0.047899
H -1.695508 -0.651822 1.253329
H -2.514469 -0.779360 -0.310732
H -0.940120 -1.562736 -0.065638
$end
$scan
stre 1 3 2.400000 2.401000 0.100000
$end
--------------------------------------------------------------

    9    -578.7187989988      5.52e-07  Convergence criterion met
 Total energy in the final basis set =     -578.7187989988
    9    -578.7100718549      6.88e-07  Convergence criterion met
 Total energy in the final basis set =     -578.7100718549
    9    -578.7099738361      6.84e-07  Convergence criterion met
 Total energy in the final basis set =     -578.7099738361
    9    -578.7100810911      6.74e-07  Convergence criterion met
 Total energy in the final basis set =     -578.7100810911
    9    -578.7100828524      6.74e-07  Convergence criterion met
 Total energy in the final basis set =     -578.7100828524

             Standard Nuclear Orientation (Angstroms)
    I     Atom           X                Y                Z
 ----------------------------------------------------------------
    1      Cl      1.9873224674    -0.8520465414    -0.3040211785
    2      C      -0.8334614183     0.5904227295    -0.3145923209
    3      C       0.4637727186     0.8864869101     0.3411895784
    4      C      -1.5372321245    -0.6771577295     0.1706468728
    5      H      -0.7065829150     0.5897680615    -1.4016787805
    6      H      -1.4564452972     1.4779285023    -0.0885626113
    7      H       0.5640961816     0.7060628451     1.4072165463
    8      H       1.0749994747     1.6917458180    -0.0519876515
    9      H      -1.6978514042    -0.6519215822     1.2536066622
   10      H      -2.5121932389    -0.7845503675    -0.3126857999
   11      H      -0.9308204441    -1.5551386458    -0.0644283171
 ----------------------------------------------------------------

    9    -578.7100833830      6.75e-07  Convergence criterion met
 Total energy in the final basis set =     -578.7100833830

                    Orbital Energies (a.u.)
 --------------------------------------------------------------

 Alpha MOs
 -- Occupied --
******* -10.286 -10.225 -10.193  -9.409  -7.173  -7.164  -7.164
 -0.826  -0.743  -0.704  -0.614  -0.496  -0.473  -0.446  -0.388
 -0.379  -0.373  -0.305  -0.267  -0.266

 Beta MOs
 -- Occupied --
******* -10.286 -10.225 -10.193  -9.409  -7.173  -7.164  -7.164
 -0.826  -0.743  -0.704  -0.614  -0.496  -0.473  -0.446  -0.388
 -0.379  -0.373  -0.305  -0.267  -0.266

          Ground-State Mulliken Net Atomic Charges

     Atom                 Charge (a.u.)    Spin (a.u.)
  --------------------------------------------------------
      1 Cl                   -0.360748       0.000000
      2 C                    -0.197308      -0.000000
      3 C                    -0.136324      -0.000000
      4 C                    -0.321578       0.000000
      5 H                     0.150753       0.000000
      6 H                     0.132126       0.000000
      7 H                     0.176810       0.000000
      8 H                     0.177107       0.000000
      9 H                     0.108974      -0.000000
     10 H                     0.113024       0.000000
     11 H                     0.157163       0.000000
  --------------------------------------------------------
  Sum of atomic charges =    -0.000000

                    Cartesian Multipole Moments
 -----------------------------------------------------------------
    Charge (ESU x 10^10)
                 0.0000
    Dipole Moment (Debye)
         X      -3.4903      Y       2.9701      Z       0.8948
       Tot       4.6695
    Quadrupole Moments (Debye-Ang)
        XX     -38.8831     XY       3.2966     YY     -31.9835
        XZ       1.4048     YZ       0.0954     ZZ     -32.4097

 Final energy is   -578.710083382970
 **  OPTIMIZATION CONVERGED  **
 Total job time:  20.48s(wall), 212.99s(cpu)
        *  Thank you very much for using Q-Chem.  Have a nice day.  *
