 Q-Chem 5.1, Q-Chem, Inc., Pleasanton, CA (2018)
 Q-Chem 5.1.1 for Intel X86 EM64T Linux

User input:
--------------------------------------------------------------

$comment
potential surface scanner
$end

$rem
JOBTYPE  PES_SCAN
UNRESTRICTED TRUE
SYM_IGNORE  TRUE
GEOM_OPT_MAX_CYCLES 400
SCF_MAX_CYCLES 400
METHOD   B3LYP
BASIS   6-31G**
PDB_PRINT 2
SCF_CONVERGENCE 6
THRESH 14
SCF_PRINT 1
$end
$molecule
0 1
Cl 1.759445 -0.576646 -0.207865
C -0.787170 0.556755 -0.324447
C 0.595837 0.741625 0.285548
C -1.534253 -0.685854 0.163299
H -0.697481 0.544007 -1.416574
H -1.360732 1.459349 -0.069835
H 0.565226 0.717231 1.377000
H 1.057152 1.675548 -0.038205
H -1.660479 -0.669448 1.251751
H -2.529632 -0.742170 -0.287655
H -0.992314 -1.598796 -0.098317
$end
$scan
stre 1 3 1.200000 1.201000 0.100000
$end
--------------------------------------------------------------

    9    -578.7495578000      3.58e-07  Convergence criterion met
 Total energy in the final basis set =     -578.7495578000
    9    -578.7399653932      3.39e-07  Convergence criterion met
 Total energy in the final basis set =     -578.7399653932
    9    -578.7011100352      3.56e-07  Convergence criterion met
 Total energy in the final basis set =     -578.7011100352
    8    -578.6285177424      8.90e-07  Convergence criterion met
 Total energy in the final basis set =     -578.6285177424
    8    -578.5138189206      6.22e-07  Convergence criterion met
 Total energy in the final basis set =     -578.5138189206
    9    -578.3518390865      5.98e-07  Convergence criterion met
 Total energy in the final basis set =     -578.3518390865
    9    -578.3423334161      6.16e-07  Convergence criterion met
 Total energy in the final basis set =     -578.3423334161
    9    -578.3410830547      6.32e-07  Convergence criterion met
    9    -578.3415219877      6.74e-07  Convergence criterion met
 Total energy in the final basis set =     -578.3415219877
    9    -578.3415300124      6.74e-07  Convergence criterion met
 Total energy in the final basis set =     -578.3415300124
    9    -578.3415351674      6.73e-07  Convergence criterion met
 Total energy in the final basis set =     -578.3415351674
    9    -578.3415378906      6.72e-07  Convergence criterion met
 Total energy in the final basis set =     -578.3415378906
    9    -578.3415398096      6.71e-07  Convergence criterion met
 Total energy in the final basis set =     -578.3415398096
    9    -578.3415412172      6.70e-07  Convergence criterion met
 Total energy in the final basis set =     -578.3415412172

             Standard Nuclear Orientation (Angstroms)
    I     Atom           X                Y                Z
 ----------------------------------------------------------------
    1      Cl      1.5121863089    -0.3348335657    -0.0563878447
    2      C      -0.7581650066     0.5355987745    -0.3246772274
    3      C       0.7630636802     0.5601894243     0.2224474787
    4      C      -1.5251908716    -0.6959950390     0.1519480523
    5      H      -0.7061910575     0.5473336455    -1.4228666802
    6      H      -1.2527349050     1.4572115652    -0.0007024805
    7      H       0.5375665394     0.7829861575     1.3128591950
    8      H       1.0228001533     1.6224514354    -0.0751954146
    9      H      -1.6274688610    -0.6999359244     1.2438011131
   10      H      -2.5314798294    -0.7298377128    -0.2772732880
   11      H      -1.0187871507    -1.6235677606    -0.1392529038
 ----------------------------------------------------------------

    9    -578.3415418581      6.71e-07  Convergence criterion met
 Total energy in the final basis set =     -578.3415418581

                    Orbital Energies (a.u.)
 --------------------------------------------------------------

 Alpha MOs
 -- Occupied --
******* -10.220 -10.181 -10.174  -9.478  -7.242  -7.228  -7.228
 -1.059  -0.758  -0.647  -0.581  -0.529  -0.516  -0.471  -0.426
 -0.385  -0.359  -0.341  -0.242  -0.237

 Beta MOs
 -- Occupied --
******* -10.220 -10.181 -10.174  -9.478  -7.242  -7.228  -7.228
 -1.059  -0.758  -0.647  -0.581  -0.529  -0.516  -0.471  -0.426
 -0.385  -0.359  -0.341  -0.242  -0.237

          Ground-State Mulliken Net Atomic Charges

     Atom                 Charge (a.u.)    Spin (a.u.)
  --------------------------------------------------------
      1 Cl                    0.147883      -0.000000
      2 C                    -0.202734       0.000000
      3 C                    -0.290516       0.000000
      4 C                    -0.326151       0.000000
      5 H                     0.093310      -0.000000
      6 H                     0.094807      -0.000000
      7 H                     0.078521      -0.000000
      8 H                     0.081135      -0.000000
      9 H                     0.103064      -0.000000
     10 H                     0.108759       0.000000
     11 H                     0.111922      -0.000000
  --------------------------------------------------------
  Sum of atomic charges =    -0.000000

                    Cartesian Multipole Moments
 -----------------------------------------------------------------
    Charge (ESU x 10^10)
                -0.0000
    Dipole Moment (Debye)
         X      -0.3440      Y       0.3464      Z       0.1036
       Tot       0.4991
    Quadrupole Moments (Debye-Ang)
        XX     -33.2716     XY       0.4836     YY     -32.8338
        XZ       0.1859     YZ       0.0265     ZZ     -32.5860

 Final energy is   -578.341541858056
 **  OPTIMIZATION CONVERGED  **
 Total job time:  93.47s(wall), 958.68s(cpu)
        *  Thank you very much for using Q-Chem.  Have a nice day.  *
