 Q-Chem 5.1, Q-Chem, Inc., Pleasanton, CA (2018)
 Q-Chem 5.1.1 for Intel X86 EM64T Linux

User input:
--------------------------------------------------------------

$comment
potential surface scanner
$end

$rem
JOBTYPE  PES_SCAN
UNRESTRICTED TRUE
SYM_IGNORE  TRUE
GEOM_OPT_MAX_CYCLES 400
SCF_MAX_CYCLES 400
METHOD   B3LYP
BASIS   6-31G**
PDB_PRINT 2
SCF_CONVERGENCE 6
THRESH 14
SCF_PRINT 1
$end
$molecule
0 1
Cl 1.905829 -0.749944 -0.278916
C -0.817706 0.577424 -0.318914
C 0.507098 0.837609 0.323770
C -1.537513 -0.680142 0.168719
H -0.701934 0.570037 -1.407398
H -1.422642 1.471457 -0.084592
H 0.568925 0.704413 1.400763
H 1.073480 1.687508 -0.044665
H -1.691017 -0.653357 1.252931
H -2.517852 -0.772537 -0.307369
H -0.951065 -1.570868 -0.069626
$end
$scan
stre 1 3 2.300000 2.301000 0.100000
$end
--------------------------------------------------------------

    9    -578.7275290838      4.74e-07  Convergence criterion met
 Total energy in the final basis set =     -578.7275290838
    9    -578.7187397627      5.71e-07  Convergence criterion met
 Total energy in the final basis set =     -578.7187397627
    9    -578.7186948449      5.62e-07  Convergence criterion met
 Total energy in the final basis set =     -578.7186948449
    9    -578.7187969930      5.52e-07  Convergence criterion met
 Total energy in the final basis set =     -578.7187969930
    9    -578.7187986234      5.52e-07  Convergence criterion met
 Total energy in the final basis set =     -578.7187986234

             Standard Nuclear Orientation (Angstroms)
    I     Atom           X                Y                Z
 ----------------------------------------------------------------
    1      Cl      1.9454294221    -0.8004201620    -0.2928012885
    2      C      -0.8256847020     0.5840153073    -0.3167636570
    3      C       0.4849949064     0.8626076486     0.3328734229
    4      C      -1.5373381501    -0.6785371238     0.1699171216
    5      H      -0.7040011634     0.5794841043    -1.4045004227
    6      H      -1.4398194339     1.4749057068    -0.0873582657
    7      H       0.5671827545     0.7035528843     1.4042764934
    8      H       1.0749368244     1.6899092882    -0.0478986401
    9      H      -1.6955082282    -0.6518217441     1.2533287072
   10      H      -2.5144687586    -0.7793603960    -0.3107321972
   11      H      -0.9401204712    -1.5627355137    -0.0656382739
 ----------------------------------------------------------------

    9    -578.7187989651      5.52e-07  Convergence criterion met
 Total energy in the final basis set =     -578.7187989651

                    Orbital Energies (a.u.)
 --------------------------------------------------------------

 Alpha MOs
 -- Occupied --
******* -10.280 -10.220 -10.191  -9.415  -7.179  -7.170  -7.170
 -0.823  -0.750  -0.700  -0.610  -0.491  -0.471  -0.442  -0.384
 -0.377  -0.370  -0.315  -0.273  -0.272

 Beta MOs
 -- Occupied --
******* -10.280 -10.220 -10.191  -9.415  -7.179  -7.170  -7.170
 -0.823  -0.750  -0.700  -0.610  -0.491  -0.471  -0.442  -0.384
 -0.377  -0.370  -0.315  -0.273  -0.272

          Ground-State Mulliken Net Atomic Charges

     Atom                 Charge (a.u.)    Spin (a.u.)
  --------------------------------------------------------
      1 Cl                   -0.323931      -0.000000
      2 C                    -0.191367       0.000000
      3 C                    -0.158331      -0.000000
      4 C                    -0.320635      -0.000000
      5 H                     0.145936      -0.000000
      6 H                     0.127838       0.000000
      7 H                     0.173741       0.000000
      8 H                     0.174072       0.000000
      9 H                     0.107947       0.000000
     10 H                     0.111933      -0.000000
     11 H                     0.152796       0.000000
  --------------------------------------------------------
  Sum of atomic charges =     0.000000

                    Cartesian Multipole Moments
 -----------------------------------------------------------------
    Charge (ESU x 10^10)
                 0.0000
    Dipole Moment (Debye)
         X      -3.1507      Y       2.6848      Z       0.8247
       Tot       4.2209
    Quadrupole Moments (Debye-Ang)
        XX     -38.2775     XY       2.8790     YY     -31.9498
        XZ       1.2578     YZ       0.1486     ZZ     -32.4487

 Final energy is   -578.718798965117
 **  OPTIMIZATION CONVERGED  **
 Total job time:  20.70s(wall), 215.36s(cpu)
        *  Thank you very much for using Q-Chem.  Have a nice day.  *
