 Q-Chem 5.1, Q-Chem, Inc., Pleasanton, CA (2018)
 Q-Chem 5.1.1 for Intel X86 EM64T Linux

User input:
--------------------------------------------------------------

$comment
potential surface scanner
$end

$rem
JOBTYPE  PES_SCAN
UNRESTRICTED TRUE
SYM_IGNORE  TRUE
GEOM_OPT_MAX_CYCLES 400
SCF_MAX_CYCLES 400
METHOD   B3LYP
BASIS   6-31G**
PDB_PRINT 2
SCF_CONVERGENCE 6
THRESH 14
SCF_PRINT 1
$end
$molecule
0 3
Cl 2.618517 0.102542 0.409203
C -0.870437 0.536764 -0.368452
C 0.674103 0.352780 0.013432
C -1.738919 -0.527811 0.295136
H -0.932146 0.481454 -1.461373
H -1.199570 1.545499 -0.077802
H 0.626617 0.256379 1.095464
H 1.135706 1.070036 -0.663865
H -1.697446 -0.452805 1.387361
H -2.785473 -0.409353 -0.007389
H -1.415352 -1.533887 0.012979
$end
$scan
stre 1 3 1.900000 1.901000 0.100000
$end
--------------------------------------------------------------

   11    -578.5562717614      3.65e-07  Convergence criterion met
 Total energy in the final basis set =     -578.5562717614
   11    -578.5382752560      2.98e-07  Convergence criterion met
 Total energy in the final basis set =     -578.5382752560
   10    -578.5389524024      9.96e-07  Convergence criterion met
 Total energy in the final basis set =     -578.5389524024
   10    -578.5411327653      8.79e-07  Convergence criterion met
 Total energy in the final basis set =     -578.5411327653
   10    -578.5432207266      9.46e-07  Convergence criterion met
 Total energy in the final basis set =     -578.5432207266
   11    -578.5491119335      3.98e-07  Convergence criterion met
 Total energy in the final basis set =     -578.5491119335
   11    -578.5580392598      3.63e-07  Convergence criterion met
 Total energy in the final basis set =     -578.5580392598
   11    -578.5678704872      3.23e-07  Convergence criterion met
   10    -578.5971404539      8.52e-07  Convergence criterion met
 Total energy in the final basis set =     -578.5971404539
   10    -578.5971460906      8.53e-07  Convergence criterion met
 Total energy in the final basis set =     -578.5971460906
   10    -578.5971521925      8.54e-07  Convergence criterion met
 Total energy in the final basis set =     -578.5971521925
   10    -578.5971603505      8.55e-07  Convergence criterion met
 Total energy in the final basis set =     -578.5971603505
   10    -578.5971665995      8.53e-07  Convergence criterion met
 Total energy in the final basis set =     -578.5971665995
   10    -578.5971685598      8.50e-07  Convergence criterion met
 Total energy in the final basis set =     -578.5971685598

             Standard Nuclear Orientation (Angstroms)
    I     Atom           X                Y                Z
 ----------------------------------------------------------------
    1      Cl      3.6596286750     0.1815501461     0.5495517782
    2      C      -1.6052767596     0.6437741115    -0.4687351911
    3      C       1.7983801875     0.3138749976     0.1914386802
    4      C      -2.1816704250    -0.5323591562     0.2391911827
    5      H      -1.2385153769     0.5490762073    -1.4859254407
    6      H      -1.7438514091     1.6482163401    -0.0818175776
    7      H       1.1947641641     0.2638430528     1.0861225348
    8      H       1.5819792140     0.9172349555    -0.6783608417
    9      H      -2.1849765599    -0.3954760943     1.3261127947
   10      H      -3.2302501815    -0.7139012145    -0.0545202437
   11      H      -1.6346115285    -1.4542353458     0.0116363241
 ----------------------------------------------------------------

   10    -578.5971688663      8.49e-07  Convergence criterion met
 Total energy in the final basis set =     -578.5971688663

                    Orbital Energies (a.u.)
 --------------------------------------------------------------

 Alpha MOs
 -- Occupied --
******* -10.270 -10.199 -10.190  -9.462  -7.226  -7.218  -7.216
 -0.833  -0.762  -0.672  -0.615  -0.471  -0.456  -0.420  -0.409
 -0.397  -0.364  -0.347  -0.308  -0.240  -0.209

 Beta MOs
 -- Occupied --
******* -10.255 -10.191 -10.186  -9.462  -7.226  -7.216  -7.216
 -0.823  -0.745  -0.640  -0.591  -0.461  -0.450  -0.405  -0.400
 -0.389  -0.359  -0.322  -0.306

          Ground-State Mulliken Net Atomic Charges

     Atom                 Charge (a.u.)    Spin (a.u.)
  --------------------------------------------------------
      1 Cl                   -0.093780       0.049041
      2 C                    -0.230023       1.066115
      3 C                    -0.257023       1.031885
      4 C                    -0.333986      -0.078575
      5 H                     0.107235      -0.046332
      6 H                     0.108274      -0.046384
      7 H                     0.170765      -0.035040
      8 H                     0.169205      -0.034565
      9 H                     0.115435       0.012628
     10 H                     0.122762       0.064852
     11 H                     0.121136       0.016376
  --------------------------------------------------------
  Sum of atomic charges =    -0.000000

                    Cartesian Multipole Moments
 -----------------------------------------------------------------
    Charge (ESU x 10^10)
                -0.0000
    Dipole Moment (Debye)
         X      -2.3201      Y       0.3920      Z      -0.1791
       Tot       2.3598
    Quadrupole Moments (Debye-Ang)
        XX     -41.3048     XY       0.7008     YY     -33.3501
        XZ      -1.6729     YZ      -0.3348     ZZ     -32.5940

 Final energy is   -578.597168866295
 **  OPTIMIZATION CONVERGED  **
 Total job time:  109.99s(wall), 1139.25s(cpu)
        *  Thank you very much for using Q-Chem.  Have a nice day.  *
