 Q-Chem 5.1, Q-Chem, Inc., Pleasanton, CA (2018)
 Q-Chem 5.1.1 for Intel X86 EM64T Linux

User input:
--------------------------------------------------------------

$comment
potential surface scanner
$end

$rem
JOBTYPE  PES_SCAN
UNRESTRICTED TRUE
SYM_IGNORE  TRUE
GEOM_OPT_MAX_CYCLES 400
SCF_MAX_CYCLES 400
METHOD   B3LYP
BASIS   6-31G**
PDB_PRINT 2
SCF_CONVERGENCE 6
THRESH 14
SCF_PRINT 1
$end
$molecule
0 1
Cl 1.759445 -0.576646 -0.207865
C -0.787170 0.556755 -0.324447
C 0.595837 0.741625 0.285548
C -1.534253 -0.685854 0.163299
H -0.697481 0.544007 -1.416574
H -1.360732 1.459349 -0.069835
H 0.565226 0.717231 1.377000
H 1.057152 1.675548 -0.038205
H -1.660479 -0.669448 1.251751
H -2.529632 -0.742170 -0.287655
H -0.992314 -1.598796 -0.098317
$end
$scan
stre 1 3 3.800000 3.801000 0.100000
$end
--------------------------------------------------------------

    9    -578.7495578000      3.58e-07  Convergence criterion met
 Total energy in the final basis set =     -578.7495578000
    9    -578.7435169914      4.18e-07  Convergence criterion met
 Total energy in the final basis set =     -578.7435169914
    9    -578.7315821041      4.88e-07  Convergence criterion met
 Total energy in the final basis set =     -578.7315821041
    9    -578.7188383402      5.82e-07  Convergence criterion met
 Total energy in the final basis set =     -578.7188383402
    9    -578.7070916918      7.12e-07  Convergence criterion met
 Total energy in the final basis set =     -578.7070916918
    9    -578.6961919782      9.97e-07  Convergence criterion met
 Total energy in the final basis set =     -578.6961919782
   10    -578.6857803592      4.49e-07  Convergence criterion met
 Total energy in the final basis set =     -578.6857803592
   10    -578.6759398299      9.68e-07  Convergence criterion met
   14    -578.6272546210      4.20e-07  Convergence criterion met
 Total energy in the final basis set =     -578.6272546210
   14    -578.6272586517      4.16e-07  Convergence criterion met
 Total energy in the final basis set =     -578.6272586517
   13    -578.6272639257      9.99e-07  Convergence criterion met
 Total energy in the final basis set =     -578.6272639257
   14    -578.6272705846      4.04e-07  Convergence criterion met
 Total energy in the final basis set =     -578.6272705846
   14    -578.6272761079      3.99e-07  Convergence criterion met
 Total energy in the final basis set =     -578.6272761079
   14    -578.6272787313      3.95e-07  Convergence criterion met
 Total energy in the final basis set =     -578.6272787313

             Standard Nuclear Orientation (Angstroms)
    I     Atom           X                Y                Z
 ----------------------------------------------------------------
    1      Cl      2.0331983573    -2.0269103275    -0.2667380634
    2      C      -0.9368161723     0.7457942986    -0.2722384466
    3      C       0.2390190154     1.2542414341     0.4077711983
    4      C      -1.3452528215    -0.6949403153     0.0971027950
    5      H      -0.8709995692     0.9003326035    -1.3528798214
    6      H      -1.7537005345     1.4193531037     0.0830844268
    7      H       0.4047177993     1.0357042541     1.4596703859
    8      H       0.9496340738     1.9157544006    -0.0791438939
    9      H      -1.4541851488    -0.8114250450     1.1792366120
   10      H      -2.2966151139    -0.9434824696    -0.3790388533
   11      H      -0.5534008857    -1.3728209373    -0.2421263394
 ----------------------------------------------------------------

   14    -578.6272798372      3.92e-07  Convergence criterion met
 Total energy in the final basis set =     -578.6272798372

                    Orbital Energies (a.u.)
 --------------------------------------------------------------

 Alpha MOs
 -- Occupied --
******* -10.318 -10.256 -10.210  -9.365  -7.128  -7.121  -7.121
 -0.857  -0.731  -0.691  -0.642  -0.535  -0.495  -0.472  -0.412
 -0.400  -0.388  -0.235  -0.227  -0.227

 Beta MOs
 -- Occupied --
******* -10.318 -10.256 -10.210  -9.365  -7.128  -7.121  -7.121
 -0.857  -0.731  -0.691  -0.642  -0.535  -0.495  -0.472  -0.412
 -0.400  -0.388  -0.235  -0.227  -0.227

          Ground-State Mulliken Net Atomic Charges

     Atom                 Charge (a.u.)    Spin (a.u.)
  --------------------------------------------------------
      1 Cl                   -0.515700      -0.000000
      2 C                    -0.242591      -0.000000
      3 C                    -0.068923       0.000000
      4 C                    -0.323211       0.000000
      5 H                     0.162585       0.000000
      6 H                     0.171777       0.000000
      7 H                     0.188780      -0.000000
      8 H                     0.187242      -0.000000
      9 H                     0.121420      -0.000000
     10 H                     0.121347       0.000000
     11 H                     0.197274       0.000000
  --------------------------------------------------------
  Sum of atomic charges =    -0.000000

                    Cartesian Multipole Moments
 -----------------------------------------------------------------
    Charge (ESU x 10^10)
                -0.0000
    Dipole Moment (Debye)
         X      -5.4365      Y       7.0488      Z       1.1454
       Tot       8.9751
    Quadrupole Moments (Debye-Ang)
        XX     -40.9259     XY       9.8621     YY     -38.4690
        XZ       1.6090     YZ      -0.4919     ZZ     -32.1726

 Final energy is   -578.627279837187
 **  OPTIMIZATION CONVERGED  **
 Total job time:  153.47s(wall), 1604.51s(cpu)
        *  Thank you very much for using Q-Chem.  Have a nice day.  *
