 Q-Chem 5.1, Q-Chem, Inc., Pleasanton, CA (2018)
 Q-Chem 5.1.1 for Intel X86 EM64T Linux

User input:
--------------------------------------------------------------

$comment
potential surface scanner
$end

$rem
JOBTYPE  PES_SCAN
UNRESTRICTED TRUE
SYM_IGNORE  TRUE
GEOM_OPT_MAX_CYCLES 400
SCF_MAX_CYCLES 400
METHOD   B3LYP
BASIS   6-31G**
PDB_PRINT 2
SCF_CONVERGENCE 6
THRESH 14
SCF_PRINT 1
$end
$molecule
0 1
F -0.790599 -1.155327 0.949689
F 0.539896 -0.232114 -2.244443
C -0.567508 0.146577 0.650125
C 0.531861 0.740684 1.117640
C -1.647368 0.715642 -0.208950
H 0.795246 -0.045336 -1.367806
H 0.717811 1.786418 0.906985
H 1.236073 0.199444 1.738079
H -2.624273 0.553597 0.257123
H -1.498058 1.785614 -0.365199
H -1.639383 0.215207 -1.181542
$end
$scan
stre 2 4 3.600000 3.601000 0.100000
$end
--------------------------------------------------------------

   10    -317.5888982863      3.62e-07  Convergence criterion met
 Total energy in the final basis set =     -317.5888982863
   10    -317.5854781096      4.51e-07  Convergence criterion met
 Total energy in the final basis set =     -317.5854781096
   10    -317.5872358158      4.17e-07  Convergence criterion met
 Total energy in the final basis set =     -317.5872358158
   10    -317.5883028883      3.58e-07  Convergence criterion met
 Total energy in the final basis set =     -317.5883028883
   10    -317.5883749077      3.70e-07  Convergence criterion met
 Total energy in the final basis set =     -317.5883749077
   10    -317.5883790160      3.69e-07  Convergence criterion met
 Total energy in the final basis set =     -317.5883790160
   10    -317.5883830657      3.68e-07  Convergence criterion met
 Total energy in the final basis set =     -317.5883830657
   10    -317.5883847981      3.68e-07  Convergence criterion met
   10    -317.5883885445      3.69e-07  Convergence criterion met
 Total energy in the final basis set =     -317.5883885445
   10    -317.5883900897      3.70e-07  Convergence criterion met
 Total energy in the final basis set =     -317.5883900897
   10    -317.5883914249      3.70e-07  Convergence criterion met
 Total energy in the final basis set =     -317.5883914249
   10    -317.5883930320      3.70e-07  Convergence criterion met
 Total energy in the final basis set =     -317.5883930320
   10    -317.5883948675      3.70e-07  Convergence criterion met
 Total energy in the final basis set =     -317.5883948675
   10    -317.5883963892      3.70e-07  Convergence criterion met
 Total energy in the final basis set =     -317.5883963892

             Standard Nuclear Orientation (Angstroms)
    I     Atom           X                Y                Z
 ----------------------------------------------------------------
    1      F      -0.7728420482    -1.1548235467     0.9427778986
    2      F       0.4953154238    -0.2660293153    -2.2985087160
    3      C      -0.5589512450     0.1531453656     0.6596394848
    4      C       0.5241659709     0.7546828617     1.1536378394
    5      C      -1.6329632343     0.7188031265    -0.2093470718
    6      H       0.7889950236    -0.0751947221    -1.4358447103
    7      H       0.7043281303     1.8036571022     0.9548210737
    8      H       1.2232551879     0.2141351402     1.7804750431
    9      H      -2.6140373440     0.5418330609     0.2427499396
   10      H      -1.4945188978     1.7921925009    -0.3520258190
   11      H      -1.6090489672     0.2280044262    -1.1866739621
 ----------------------------------------------------------------

   10    -317.5883972087      3.70e-07  Convergence criterion met
 Total energy in the final basis set =     -317.5883972087

                    Orbital Energies (a.u.)
 --------------------------------------------------------------

 Alpha MOs
 -- Occupied --
-24.706 -24.663 -10.286 -10.200 -10.194  -1.218  -1.165  -0.802
 -0.717  -0.586  -0.517  -0.500  -0.489  -0.472  -0.421  -0.413
 -0.398  -0.376  -0.373  -0.368  -0.266

 Beta MOs
 -- Occupied --
-24.706 -24.663 -10.286 -10.200 -10.194  -1.218  -1.165  -0.802
 -0.717  -0.586  -0.517  -0.500  -0.489  -0.472  -0.421  -0.413
 -0.398  -0.376  -0.373  -0.368  -0.266

          Ground-State Mulliken Net Atomic Charges

     Atom                 Charge (a.u.)    Spin (a.u.)
  --------------------------------------------------------
      1 F                    -0.286194       0.000000
      2 F                    -0.359227       0.000000
      3 C                     0.369522      -0.000000
      4 C                    -0.336916       0.000000
      5 C                    -0.389375      -0.000000
      6 H                     0.350781       0.000000
      7 H                     0.115258      -0.000000
      8 H                     0.120934      -0.000000
      9 H                     0.135574      -0.000000
     10 H                     0.123159       0.000000
     11 H                     0.156483      -0.000000
  --------------------------------------------------------
  Sum of atomic charges =    -0.000000

                    Cartesian Multipole Moments
 -----------------------------------------------------------------
    Charge (ESU x 10^10)
                 0.0000
    Dipole Moment (Debye)
         X       0.0059      Y       1.6154      Z       1.2582
       Tot       2.0476
    Quadrupole Moments (Debye-Ang)
        XX     -26.5626     XY      -0.7780     YY     -29.1732
        XZ       1.6993     YZ      -0.3062     ZZ     -35.3246

 Final energy is   -317.588397208657
 **  OPTIMIZATION CONVERGED  **
 Total job time:  50.98s(wall), 570.81s(cpu)
        *  Thank you very much for using Q-Chem.  Have a nice day.  *
