 Q-Chem 5.1, Q-Chem, Inc., Pleasanton, CA (2018)
 Q-Chem 5.1.1 for Intel X86 EM64T Linux

User input:
--------------------------------------------------------------

$comment
potential surface scanner
$end

$rem
JOBTYPE  PES_SCAN
UNRESTRICTED TRUE
SYM_IGNORE  TRUE
GEOM_OPT_MAX_CYCLES 400
SCF_MAX_CYCLES 400
METHOD   B3LYP
BASIS   6-31G**
PDB_PRINT 2
SCF_CONVERGENCE 6
THRESH 14
SCF_PRINT 1
$end
$molecule
0 3
F -0.531519 -1.079327 -0.434776
F 1.791003 -0.462616 -0.056683
C -0.690856 0.196367 0.248991
C 0.556365 0.884712 0.463296
C -2.002155 0.784407 -0.128249
H 1.082418 -1.023247 -0.344990
H 0.914477 1.609544 -0.266784
H 0.970703 0.968842 1.462091
H -2.804173 0.042122 -0.058520
H -2.240556 1.623838 0.530147
H -1.992009 1.165763 -1.162813
$end
$scan
stre 2 4 1.800000 1.801000 0.100000
$end
--------------------------------------------------------------

   10    -317.4510234582      9.26e-07  Convergence criterion met
 Total energy in the final basis set =     -317.4510234582
   10    -317.4363596073      9.68e-07  Convergence criterion met
 Total energy in the final basis set =     -317.4363596073
   11    -317.4362249662      2.67e-07  Convergence criterion met
 Total energy in the final basis set =     -317.4362249662
   11    -317.4363354615      2.69e-07  Convergence criterion met
 Total energy in the final basis set =     -317.4363354615
   11    -317.4364293622      2.73e-07  Convergence criterion met
 Total energy in the final basis set =     -317.4364293622
   11    -317.4364647370      2.79e-07  Convergence criterion met
 Total energy in the final basis set =     -317.4364647370
   11    -317.4364884776      2.86e-07  Convergence criterion met
 Total energy in the final basis set =     -317.4364884776
   11    -317.4365027682      2.92e-07  Convergence criterion met
   11    -317.4365109431      2.97e-07  Convergence criterion met
 Total energy in the final basis set =     -317.4365109431
   11    -317.4365158346      3.00e-07  Convergence criterion met
 Total energy in the final basis set =     -317.4365158346
   11    -317.4365187558      3.03e-07  Convergence criterion met
 Total energy in the final basis set =     -317.4365187558
   11    -317.4365202940      3.03e-07  Convergence criterion met
 Total energy in the final basis set =     -317.4365202940
   11    -317.4365214508      3.03e-07  Convergence criterion met
 Total energy in the final basis set =     -317.4365214508
   11    -317.4365226572      3.02e-07  Convergence criterion met
 Total energy in the final basis set =     -317.4365226572

             Standard Nuclear Orientation (Angstroms)
    I     Atom           X                Y                Z
 ----------------------------------------------------------------
    1      F      -0.5255194929    -1.1188272692    -0.4013125881
    2      F       1.7242800786    -0.4106646782    -0.0825858288
    3      C      -0.6806502945     0.2047724155     0.2842478774
    4      C       0.5774687689     0.8657571027     0.4610792954
    5      C      -1.9838826080     0.7803869610    -0.1304731614
    6      H       1.0133126042    -0.9999570034    -0.3447544416
    7      H       0.9000544042     1.6156267506    -0.2609917335
    8      H       1.0033802574     0.9595031249     1.4549221571
    9      H      -2.7798087550     0.0298218243    -0.0939010602
   10      H      -2.2533400453     1.6124478786     0.5259510098
   11      H      -1.9415969174     1.1715378932    -1.1604715261
 ----------------------------------------------------------------

   11    -317.4365236063      3.00e-07  Convergence criterion met
 Total energy in the final basis set =     -317.4365236063

                    Orbital Energies (a.u.)
 --------------------------------------------------------------

 Alpha MOs
 -- Occupied --
-24.690 -24.686 -10.263 -10.195 -10.195  -1.208  -1.169  -0.793
 -0.707  -0.580  -0.557  -0.485  -0.475  -0.450  -0.428  -0.423
 -0.401  -0.396  -0.383  -0.372  -0.201  -0.149

 Beta MOs
 -- Occupied --
-24.684 -24.680 -10.248 -10.195 -10.184  -1.195  -1.156  -0.766
 -0.685  -0.562  -0.545  -0.460  -0.451  -0.437  -0.415  -0.400
 -0.389  -0.385  -0.373  -0.363

          Ground-State Mulliken Net Atomic Charges

     Atom                 Charge (a.u.)    Spin (a.u.)
  --------------------------------------------------------
      1 F                    -0.357047       0.092361
      2 F                    -0.288888       0.089903
      3 C                     0.253403       0.975423
      4 C                    -0.231857       0.767891
      5 C                    -0.360478      -0.060142
      6 H                     0.371645       0.018441
      7 H                     0.110516       0.025239
      8 H                     0.122006      -0.003942
      9 H                     0.130653       0.022884
     10 H                     0.127685       0.006265
     11 H                     0.122362       0.065676
  --------------------------------------------------------
  Sum of atomic charges =    -0.000000

                    Cartesian Multipole Moments
 -----------------------------------------------------------------
    Charge (ESU x 10^10)
                -0.0000
    Dipole Moment (Debye)
         X      -0.8130      Y       0.8089      Z      -0.1342
       Tot       1.1546
    Quadrupole Moments (Debye-Ang)
        XX     -29.6293     XY      -1.3159     YY     -28.7989
        XZ       0.0923     YZ      -0.0201     ZZ     -28.8991

 Final energy is   -317.436523606264
 **  OPTIMIZATION CONVERGED  **
 Total job time:  54.51s(wall), 573.37s(cpu)
        *  Thank you very much for using Q-Chem.  Have a nice day.  *
