 Q-Chem 5.1, Q-Chem, Inc., Pleasanton, CA (2018)
 Q-Chem 5.1.1 for Intel X86 EM64T Linux

User input:
--------------------------------------------------------------

$comment
potential surface scanner
$end

$rem
JOBTYPE  PES_SCAN
UNRESTRICTED TRUE
SYM_IGNORE  TRUE
GEOM_OPT_MAX_CYCLES 400
SCF_MAX_CYCLES 400
METHOD   B3LYP
BASIS   6-31G**
PDB_PRINT 2
SCF_CONVERGENCE 6
THRESH 14
SCF_PRINT 1
$end
$molecule
0 3
F -0.520597 -1.017000 -0.447195
F 1.941112 -0.611149 -0.066135
C -0.717696 0.218925 0.229778
C 0.500929 0.959255 0.481318
C -2.041371 0.794068 -0.127845
H 1.161880 -1.061640 -0.332182
H 0.934981 1.607535 -0.278258
H 0.959541 0.975006 1.463358
H -2.830649 0.039059 -0.049808
H -2.282249 1.625857 0.539138
H -2.052184 1.180488 -1.160460
$end
$scan
stre 2 4 2.100000 2.101000 0.100000
$end
--------------------------------------------------------------

   10    -317.4762473321      7.16e-07  Convergence criterion met
 Total energy in the final basis set =     -317.4762473321
   10    -317.4701609674      7.50e-07  Convergence criterion met
 Total energy in the final basis set =     -317.4701609674
   10    -317.4701840443      7.52e-07  Convergence criterion met
 Total energy in the final basis set =     -317.4701840443
   10    -317.4702212725      7.56e-07  Convergence criterion met
 Total energy in the final basis set =     -317.4702212725
   10    -317.4702270628      7.60e-07  Convergence criterion met
 Total energy in the final basis set =     -317.4702270628
   10    -317.4702285981      7.63e-07  Convergence criterion met
 Total energy in the final basis set =     -317.4702285981

             Standard Nuclear Orientation (Angstroms)
    I     Atom           X                Y                Z
 ----------------------------------------------------------------
    1      F      -0.5258050748    -1.0344985505    -0.4511483707
    2      F       1.8939425038    -0.5627453766    -0.0536213242
    3      C      -0.7085678266     0.2091122488     0.2289021647
    4      C       0.5187748993     0.9344488079     0.4729949422
    5      C      -2.0295153684     0.7909988030    -0.1272157435
    6      H       1.1425054438    -1.0530664877    -0.3355505738
    7      H       0.9320329496     1.6069031100    -0.2771497933
    8      H       0.9578282850     0.9763206587     1.4632179742
    9      H      -2.8236319317     0.0411378482    -0.0479930922
   10      H      -2.2645334982     1.6248216853     0.5393331019
   11      H      -2.0393333818     1.1769712529    -1.1600602855
 ----------------------------------------------------------------

   10    -317.4702288830      7.64e-07  Convergence criterion met
 Total energy in the final basis set =     -317.4702288830

                    Orbital Energies (a.u.)
 --------------------------------------------------------------

 Alpha MOs
 -- Occupied --
-24.708 -24.663 -10.271 -10.197 -10.197  -1.207  -1.168  -0.794
 -0.708  -0.586  -0.538  -0.485  -0.481  -0.461  -0.422  -0.411
 -0.401  -0.397  -0.376  -0.372  -0.199  -0.192

 Beta MOs
 -- Occupied --
-24.703 -24.659 -10.256 -10.197 -10.184  -1.195  -1.160  -0.768
 -0.682  -0.565  -0.533  -0.466  -0.454  -0.450  -0.407  -0.400
 -0.394  -0.377  -0.370  -0.362

          Ground-State Mulliken Net Atomic Charges

     Atom                 Charge (a.u.)    Spin (a.u.)
  --------------------------------------------------------
      1 F                    -0.323868       0.084665
      2 F                    -0.330388       0.059050
      3 C                     0.278550       0.909046
      4 C                    -0.252160       0.892982
      5 C                    -0.363603      -0.054849
      6 H                     0.362415       0.007686
      7 H                     0.117838       0.019090
      8 H                     0.128367      -0.011942
      9 H                     0.130884       0.023822
     10 H                     0.128549       0.004631
     11 H                     0.123417       0.065819
  --------------------------------------------------------
  Sum of atomic charges =     0.000000

                    Cartesian Multipole Moments
 -----------------------------------------------------------------
    Charge (ESU x 10^10)
                 0.0000
    Dipole Moment (Debye)
         X      -1.4545      Y       0.8217      Z      -0.1372
       Tot       1.6762
    Quadrupole Moments (Debye-Ang)
        XX     -30.6900     XY      -0.6733     YY     -28.3304
        XZ      -0.0027     YZ       0.1020     ZZ     -28.6726

 Final energy is   -317.470228883035
 **  OPTIMIZATION CONVERGED  **
 Total job time:  21.83s(wall), 250.75s(cpu)
        *  Thank you very much for using Q-Chem.  Have a nice day.  *
