 Q-Chem 5.1, Q-Chem, Inc., Pleasanton, CA (2018)
 Q-Chem 5.1.1 for Intel X86 EM64T Linux

User input:
--------------------------------------------------------------

$comment
potential surface scanner
$end

$rem
JOBTYPE  PES_SCAN
UNRESTRICTED TRUE
SYM_IGNORE  TRUE
GEOM_OPT_MAX_CYCLES 400
SCF_MAX_CYCLES 400
METHOD   B3LYP
BASIS   6-31G**
PDB_PRINT 2
SCF_CONVERGENCE 6
THRESH 14
SCF_PRINT 1
$end
$molecule
0 3
F -0.500016 -0.967694 -0.429096
F 2.071253 -0.773610 -0.119599
C -0.740396 0.253119 0.238162
C 0.455742 1.028592 0.506655
C -2.071990 0.802801 -0.130102
H 1.218309 -1.096872 -0.327403
H 0.927395 1.630588 -0.269824
H 0.956458 0.984789 1.467976
H -2.845502 0.031393 -0.056209
H -2.334570 1.629948 0.534451
H -2.082985 1.187348 -1.163302
$end
$scan
stre 2 4 2.400000 2.401000 0.100000
$end
--------------------------------------------------------------

   10    -317.4858891362      6.41e-07  Convergence criterion met
 Total energy in the final basis set =     -317.4858891362
   10    -317.4836875075      6.51e-07  Convergence criterion met
 Total energy in the final basis set =     -317.4836875075
   10    -317.4837017579      6.53e-07  Convergence criterion met
 Total energy in the final basis set =     -317.4837017579
   10    -317.4837199197      6.56e-07  Convergence criterion met
 Total energy in the final basis set =     -317.4837199197
   10    -317.4837225204      6.56e-07  Convergence criterion met
 Total energy in the final basis set =     -317.4837225204
   10    -317.4837242895      6.57e-07  Convergence criterion met
 Total energy in the final basis set =     -317.4837242895

             Standard Nuclear Orientation (Angstroms)
    I     Atom           X                Y                Z
 ----------------------------------------------------------------
    1      F      -0.5081737164    -0.9844597976    -0.4334774278
    2      F       2.0315583447    -0.7138593733    -0.1029371100
    3      C      -0.7347581281     0.2407528818     0.2364818979
    4      C       0.4689123173     1.0051891701     0.4995660955
    5      C      -2.0628791250     0.8002505039    -0.1296199574
    6      H       1.1997118961    -1.0794683195    -0.3280804002
    7      H       0.9328402099     1.6155759456    -0.2741977454
    8      H       0.9594412186     0.9768491694     1.4662660663
    9      H      -2.8426182912     0.0352495263    -0.0540785304
   10      H      -2.3176623356     1.6299326379     0.5348005797
   11      H      -2.0726743905     1.1843896553    -1.1630144682
 ----------------------------------------------------------------

   10    -317.4837246256      6.57e-07  Convergence criterion met
 Total energy in the final basis set =     -317.4837246256

                    Orbital Energies (a.u.)
 --------------------------------------------------------------

 Alpha MOs
 -- Occupied --
-24.714 -24.648 -10.277 -10.208 -10.201  -1.213  -1.153  -0.799
 -0.713  -0.593  -0.524  -0.491  -0.487  -0.466  -0.427  -0.414
 -0.405  -0.379  -0.372  -0.363  -0.222  -0.203

 Beta MOs
 -- Occupied --
-24.709 -24.646 -10.263 -10.201 -10.195  -1.202  -1.149  -0.772
 -0.686  -0.572  -0.519  -0.474  -0.459  -0.455  -0.410  -0.404
 -0.399  -0.369  -0.361  -0.359

          Ground-State Mulliken Net Atomic Charges

     Atom                 Charge (a.u.)    Spin (a.u.)
  --------------------------------------------------------
      1 F                    -0.310924       0.088433
      2 F                    -0.363349       0.032206
      3 C                     0.284206       0.890984
      4 C                    -0.256121       0.943539
      5 C                    -0.365392      -0.053618
      6 H                     0.358387       0.003539
      7 H                     0.126418       0.016435
      8 H                     0.137185      -0.014846
      9 H                     0.133666       0.023043
     10 H                     0.130097       0.004316
     11 H                     0.125827       0.065969
  --------------------------------------------------------
  Sum of atomic charges =    -0.000000

                    Cartesian Multipole Moments
 -----------------------------------------------------------------
    Charge (ESU x 10^10)
                -0.0000
    Dipole Moment (Debye)
         X      -1.9849      Y       1.1415      Z      -0.0330
       Tot       2.2899
    Quadrupole Moments (Debye-Ang)
        XX     -31.6017     XY       0.0962     YY     -28.3624
        XZ       0.2626     YZ       0.0536     ZZ     -28.5583

 Final energy is   -317.483724625636
 **  OPTIMIZATION CONVERGED  **
 Total job time:  22.85s(wall), 258.48s(cpu)
        *  Thank you very much for using Q-Chem.  Have a nice day.  *
