 Q-Chem 5.1, Q-Chem, Inc., Pleasanton, CA (2018)
 Q-Chem 5.1.1 for Intel X86 EM64T Linux

User input:
--------------------------------------------------------------

$comment
potential surface scanner
$end

$rem
JOBTYPE  PES_SCAN
UNRESTRICTED TRUE
SYM_IGNORE  TRUE
GEOM_OPT_MAX_CYCLES 400
SCF_MAX_CYCLES 400
METHOD   B3LYP
BASIS   6-31G**
PDB_PRINT 2
SCF_CONVERGENCE 6
THRESH 14
SCF_PRINT 1
$end
$molecule
0 1
F -0.486400 -1.298900 0.159500
F 1.889200 0.001700 -0.126500
C -0.435600 -0.028600 -0.332400
C 0.768200 0.660400 0.276200
C -1.735300 0.665500 0.023300
H -0.320900 -0.108600 -1.417700
H 0.851700 1.700600 -0.050500
H 0.742100 0.621000 1.368800
H -1.880200 0.688200 1.108400
H -1.756200 1.691300 -0.356400
H -2.582900 0.117800 -0.401000
$end
$scan
stre 2 4 3.900000 3.901000 0.100000
$end
--------------------------------------------------------------

    8    -317.6070310312      9.75e-07  Convergence criterion met
 Total energy in the final basis set =     -317.6070310312
    9    -317.6021849023      8.03e-07  Convergence criterion met
 Total energy in the final basis set =     -317.6021849023
    9    -317.5825903811      7.68e-07  Convergence criterion met
 Total energy in the final basis set =     -317.5825903811
   10    -317.5582624614      1.92e-07  Convergence criterion met
 Total energy in the final basis set =     -317.5582624614
   10    -317.5354328380      3.56e-07  Convergence criterion met
 Total energy in the final basis set =     -317.5354328380
   10    -317.5150588861      9.19e-07  Convergence criterion met
 Total energy in the final basis set =     -317.5150588861
   11    -317.4968006584      4.30e-07  Convergence criterion met
 Total energy in the final basis set =     -317.4968006584
   11    -317.4804772877      3.66e-07  Convergence criterion met
    9    -317.5931345887      9.88e-07  Convergence criterion met
 Total energy in the final basis set =     -317.5931345887
    9    -317.5931380163      9.89e-07  Convergence criterion met
 Total energy in the final basis set =     -317.5931380163
    9    -317.5931409000      9.90e-07  Convergence criterion met
 Total energy in the final basis set =     -317.5931409000
    9    -317.5931438809      9.92e-07  Convergence criterion met
 Total energy in the final basis set =     -317.5931438809
    9    -317.5931463648      9.97e-07  Convergence criterion met
 Total energy in the final basis set =     -317.5931463648
   10    -317.5931476627      3.07e-07  Convergence criterion met
 Total energy in the final basis set =     -317.5931476627

             Standard Nuclear Orientation (Angstroms)
    I     Atom           X                Y                Z
 ----------------------------------------------------------------
    1      F      -0.1722491648    -0.9427471465     0.5670445793
    2      F       0.6183117037    -0.9576257564    -1.9397984544
    3      C      -0.4299763464     0.4184920076     0.5347176831
    4      C       0.3190238468     1.2059000293     1.2912357364
    5      C      -1.5389774422     0.7332436558    -0.4048573994
    6      H       0.4537723350    -1.2335021926    -1.0639363738
    7      H       0.1470922352     2.2744506536     1.2978355627
    8      H       1.1077912795     0.7997803311     1.9126559692
    9      H      -2.4590478221     0.2199417892    -0.1039287034
   10      H      -1.7264441063     1.8079694862    -0.4338416496
   11      H      -1.2655965185     0.3844971427    -1.4054269502
 ----------------------------------------------------------------

   10    -317.5931481471      3.10e-07  Convergence criterion met
 Total energy in the final basis set =     -317.5931481471

                    Orbital Energies (a.u.)
 --------------------------------------------------------------

 Alpha MOs
 -- Occupied --
-24.723 -24.648 -10.284 -10.200 -10.192  -1.227  -1.151  -0.803
 -0.718  -0.592  -0.522  -0.501  -0.491  -0.466  -0.422  -0.415
 -0.400  -0.381  -0.363  -0.361  -0.266

 Beta MOs
 -- Occupied --
-24.723 -24.648 -10.284 -10.200 -10.192  -1.227  -1.151  -0.803
 -0.718  -0.592  -0.522  -0.501  -0.491  -0.466  -0.422  -0.415
 -0.400  -0.381  -0.363  -0.361  -0.266

          Ground-State Mulliken Net Atomic Charges

     Atom                 Charge (a.u.)    Spin (a.u.)
  --------------------------------------------------------
      1 F                    -0.315375      -0.000000
      2 F                    -0.377771       0.000000
      3 C                     0.379505       0.000000
      4 C                    -0.301652      -0.000000
      5 C                    -0.390929       0.000000
      6 H                     0.356893       0.000000
      7 H                     0.115752       0.000000
      8 H                     0.118982       0.000000
      9 H                     0.134044       0.000000
     10 H                     0.125278       0.000000
     11 H                     0.155274       0.000000
  --------------------------------------------------------
  Sum of atomic charges =     0.000000

                    Cartesian Multipole Moments
 -----------------------------------------------------------------
    Charge (ESU x 10^10)
                 0.0000
    Dipole Moment (Debye)
         X      -1.0829      Y       1.1410      Z       1.5839
       Tot       2.2323
    Quadrupole Moments (Debye-Ang)
        XX     -27.8086     XY      -0.5364     YY     -27.1844
        XZ       2.8945     YZ      -0.5525     ZZ     -33.7238

 Final energy is   -317.593148147136
 **  OPTIMIZATION CONVERGED  **
 Total job time:  549.10s(wall), 6467.48s(cpu)
        *  Thank you very much for using Q-Chem.  Have a nice day.  *
