 Q-Chem 5.1, Q-Chem, Inc., Pleasanton, CA (2018)
 Q-Chem 5.1.1 for Intel X86 EM64T Linux

User input:
--------------------------------------------------------------

$comment
potential surface scanner
$end

$rem
JOBTYPE  PES_SCAN
UNRESTRICTED TRUE
SYM_IGNORE  TRUE
GEOM_OPT_MAX_CYCLES 400
SCF_MAX_CYCLES 400
METHOD   B3LYP
BASIS   6-31G**
PDB_PRINT 2
SCF_CONVERGENCE 6
THRESH 14
SCF_PRINT 1
$end
$molecule
0 1
F -0.589297 -1.278403 0.391428
F 2.324049 -0.041213 -0.797206
C -0.481417 -0.016246 -0.170394
C 0.592993 0.739551 0.500428
C -1.837113 0.694968 -0.046924
H -0.191326 -0.121162 -1.222781
H 0.776992 1.768128 0.215422
H 0.984894 0.389691 1.448673
H -2.115006 0.828710 1.002053
H -1.814622 1.670754 -0.539045
H -2.596446 0.075623 -0.529951
$end
$scan
stre 2 4 2.400000 2.401000 0.100000
$end
--------------------------------------------------------------

   11    -317.4885236053      3.11e-07  Convergence criterion met
 Total energy in the final basis set =     -317.4885236053
   11    -317.4772263020      7.85e-07  Convergence criterion met
 Total energy in the final basis set =     -317.4772263020
   11    -317.4770149254      8.08e-07  Convergence criterion met
 Total energy in the final basis set =     -317.4770149254
   11    -317.4770490218      7.42e-07  Convergence criterion met
 Total energy in the final basis set =     -317.4770490218
   11    -317.4770535961      7.29e-07  Convergence criterion met
 Total energy in the final basis set =     -317.4770535961
   11    -317.4770601556      7.13e-07  Convergence criterion met
 Total energy in the final basis set =     -317.4770601556
   11    -317.4770641653      7.03e-07  Convergence criterion met
 Total energy in the final basis set =     -317.4770641653
   11    -317.4770713114      6.83e-07  Convergence criterion met
 Total energy in the final basis set =     -317.4770713114
   11    -317.4770767889      6.69e-07  Convergence criterion met
 Total energy in the final basis set =     -317.4770767889
   11    -317.4770801529      6.66e-07  Convergence criterion met
 Total energy in the final basis set =     -317.4770801529
   11    -317.4770815317      6.73e-07  Convergence criterion met
 Total energy in the final basis set =     -317.4770815317

             Standard Nuclear Orientation (Angstroms)
    I     Atom           X                Y                Z
 ----------------------------------------------------------------
    1      F      -0.6131938896    -1.2723030044     0.4457265221
    2      F       2.3249183096    -0.0103214895    -0.9265165743
    3      C      -0.4851940330    -0.0201538936    -0.1341451623
    4      C       0.5810213663     0.7386337616     0.5424590648
    5      C      -1.8414616378     0.6981187798    -0.0643864978
    6      H      -0.1617455206    -0.1427327686    -1.1761177221
    7      H       0.7645639638     1.7694710111     0.2654666414
    8      H       1.0207916599     0.3606423019     1.4585643319
    9      H      -2.1529328692     0.8447226792     0.9732322449
   10      H      -1.7965215218     1.6678373159    -0.5665767908
   11      H      -2.5865448277     0.0764863065    -0.5660030577
 ----------------------------------------------------------------

   11    -317.4770822853      6.85e-07  Convergence criterion met
 Total energy in the final basis set =     -317.4770822853

                    Orbital Energies (a.u.)
 --------------------------------------------------------------

 Alpha MOs
 -- Occupied --
-24.696 -24.566 -10.305 -10.303 -10.221  -1.206  -0.989  -0.831
 -0.733  -0.631  -0.540  -0.511  -0.494  -0.458  -0.428  -0.419
 -0.368  -0.363  -0.278  -0.262  -0.261

 Beta MOs
 -- Occupied --
-24.696 -24.566 -10.305 -10.303 -10.221  -1.206  -0.989  -0.831
 -0.733  -0.631  -0.540  -0.511  -0.494  -0.458  -0.428  -0.419
 -0.368  -0.363  -0.278  -0.262  -0.261

          Ground-State Mulliken Net Atomic Charges

     Atom                 Charge (a.u.)    Spin (a.u.)
  --------------------------------------------------------
      1 F                    -0.310308       0.000000
      2 F                    -0.416364      -0.000000
      3 C                     0.222080      -0.000000
      4 C                    -0.086027       0.000000
      5 C                    -0.361233       0.000000
      6 H                     0.176774       0.000000
      7 H                     0.178214      -0.000000
      8 H                     0.191375      -0.000000
      9 H                     0.130861      -0.000000
     10 H                     0.124929      -0.000000
     11 H                     0.149697      -0.000000
  --------------------------------------------------------
  Sum of atomic charges =    -0.000000

                    Cartesian Multipole Moments
 -----------------------------------------------------------------
    Charge (ESU x 10^10)
                -0.0000
    Dipole Moment (Debye)
         X      -4.1956      Y       2.7965      Z       1.9706
       Tot       5.4136
    Quadrupole Moments (Debye-Ang)
        XX     -37.1003     XY      -0.1806     YY     -28.1561
        XZ       5.8107     YZ       1.3742     ZZ     -28.0838

 Final energy is   -317.477082285313
 **  OPTIMIZATION CONVERGED  **
 Total job time:  38.61s(wall), 449.19s(cpu)
        *  Thank you very much for using Q-Chem.  Have a nice day.  *
