 Q-Chem 5.1, Q-Chem, Inc., Pleasanton, CA (2018)
 Q-Chem 5.1.1 for Intel X86 EM64T Linux

User input:
--------------------------------------------------------------

$comment
potential surface scanner
$end

$rem
JOBTYPE  PES_SCAN
UNRESTRICTED TRUE
SYM_IGNORE  TRUE
GEOM_OPT_MAX_CYCLES 400
SCF_MAX_CYCLES 400
METHOD   B3LYP
BASIS   6-31G**
PDB_PRINT 2
SCF_CONVERGENCE 6
THRESH 14
SCF_PRINT 1
$end
$molecule
0 3
F -0.060708 -0.973911 0.481180
F 0.499682 -0.831384 -2.114454
C -0.570935 0.314933 0.705176
C 0.387068 1.219136 1.318138
C -1.595702 0.681252 -0.308769
H 0.394817 -1.090229 -1.222701
H 1.166625 1.701692 0.726174
H 0.408965 1.379738 2.392870
H -2.420972 -0.040363 -0.307221
H -1.999955 1.674714 -0.102042
H -1.155184 0.674822 -1.316650
$end
$scan
stre 2 4 3.900000 3.901000 0.100000
$end
--------------------------------------------------------------

   10    -317.4903335338      6.37e-07  Convergence criterion met
 Total energy in the final basis set =     -317.4903335338
   10    -317.4902144222      6.36e-07  Convergence criterion met
 Total energy in the final basis set =     -317.4902144222
   10    -317.4903657382      6.33e-07  Convergence criterion met
 Total energy in the final basis set =     -317.4903657382
   10    -317.4904196945      6.32e-07  Convergence criterion met
 Total energy in the final basis set =     -317.4904196945
   10    -317.4904233885      6.32e-07  Convergence criterion met
 Total energy in the final basis set =     -317.4904233885
   10    -317.4904247678      6.33e-07  Convergence criterion met
 Total energy in the final basis set =     -317.4904247678

             Standard Nuclear Orientation (Angstroms)
    I     Atom           X                Y                Z
 ----------------------------------------------------------------
    1      F      -0.1012231709    -0.9919968498     0.4877449145
    2      F       0.5650955795    -0.7702068548    -2.0677578601
    3      C      -0.5867770427     0.3081520725     0.7032869073
    4      C       0.3947154046     1.2028573955     1.2920025626
    5      C      -1.6148791629     0.6799954402    -0.3051946678
    6      H       0.4210500105    -1.0675512695    -1.1936416111
    7      H       1.1748995043     1.6620526232     0.6826178964
    8      H       0.4339076322     1.3763177646     2.3641853936
    9      H      -2.4474096981    -0.0329347138    -0.2944566348
   10      H      -2.0071412018     1.6790573589    -0.1021734951
   11      H      -1.1785368548     0.6646570329    -1.3149124056
 ----------------------------------------------------------------

   10    -317.4904257038      6.34e-07  Convergence criterion met
 Total energy in the final basis set =     -317.4904257038

                    Orbital Energies (a.u.)
 --------------------------------------------------------------

 Alpha MOs
 -- Occupied --
-24.719 -24.644 -10.282 -10.225 -10.198  -1.219  -1.147  -0.803
 -0.718  -0.600  -0.521  -0.501  -0.484  -0.475  -0.435  -0.415
 -0.407  -0.376  -0.360  -0.358  -0.252  -0.207

 Beta MOs
 -- Occupied --
-24.714 -24.643 -10.267 -10.212 -10.198  -1.208  -1.147  -0.774
 -0.693  -0.579  -0.513  -0.486  -0.464  -0.458  -0.420  -0.405
 -0.402  -0.366  -0.359  -0.357

          Ground-State Mulliken Net Atomic Charges

     Atom                 Charge (a.u.)    Spin (a.u.)
  --------------------------------------------------------
      1 F                    -0.301775       0.082336
      2 F                    -0.384910       0.000821
      3 C                     0.292330       0.878843
      4 C                    -0.251389       1.001905
      5 C                    -0.384424      -0.050684
      6 H                     0.353417       0.003885
      7 H                     0.132872       0.012870
      8 H                     0.135411      -0.018309
      9 H                     0.134282       0.028038
     10 H                     0.124412       0.001598
     11 H                     0.149773       0.058696
  --------------------------------------------------------
  Sum of atomic charges =    -0.000000

                    Cartesian Multipole Moments
 -----------------------------------------------------------------
    Charge (ESU x 10^10)
                 0.0000
    Dipole Moment (Debye)
         X      -0.7662      Y       1.3749      Z       1.8986
       Tot       2.4662
    Quadrupole Moments (Debye-Ang)
        XX     -27.9297     XY       0.3156     YY     -28.3324
        XZ       2.1263     YZ       0.1592     ZZ     -33.5149

 Final energy is   -317.490425703826
 **  OPTIMIZATION CONVERGED  **
 Total job time:  21.81s(wall), 251.04s(cpu)
        *  Thank you very much for using Q-Chem.  Have a nice day.  *
