 Q-Chem 5.1, Q-Chem, Inc., Pleasanton, CA (2018)
 Q-Chem 5.1.1 for Intel X86 EM64T Linux

User input:
--------------------------------------------------------------

$comment
potential surface scanner
$end

$rem
JOBTYPE  PES_SCAN
UNRESTRICTED TRUE
SYM_IGNORE  TRUE
GEOM_OPT_MAX_CYCLES 400
SCF_MAX_CYCLES 400
METHOD   B3LYP
BASIS   6-31G**
PDB_PRINT 2
SCF_CONVERGENCE 6
THRESH 14
SCF_PRINT 1
$end
$molecule
0 1
F -0.557518 -1.289775 0.315577
F 2.270371 -0.057240 -0.601279
C -0.473126 -0.014697 -0.222839
C 0.622803 0.730866 0.435257
C -1.820790 0.689720 -0.024185
H -0.231436 -0.099297 -1.288054
H 0.794478 1.760628 0.145504
H 0.927013 0.432102 1.432093
H -2.047834 0.809581 1.038951
H -1.826799 1.672646 -0.503086
H -2.603459 0.075868 -0.476235
$end
$scan
stre 2 4 2.200000 2.201000 0.100000
$end
--------------------------------------------------------------

   11    -317.5145743781      2.79e-07  Convergence criterion met
 Total energy in the final basis set =     -317.5145743781
   11    -317.5012242353      5.11e-07  Convergence criterion met
 Total energy in the final basis set =     -317.5012242353
   11    -317.5009634015      5.19e-07  Convergence criterion met
 Total energy in the final basis set =     -317.5009634015
   11    -317.5009985830      5.26e-07  Convergence criterion met
 Total energy in the final basis set =     -317.5009985830
   11    -317.5010025750      5.29e-07  Convergence criterion met
 Total energy in the final basis set =     -317.5010025750
   11    -317.5010066065      5.35e-07  Convergence criterion met
 Total energy in the final basis set =     -317.5010066065
   11    -317.5010093225      5.38e-07  Convergence criterion met
 Total energy in the final basis set =     -317.5010093225
   11    -317.5010138523      5.42e-07  Convergence criterion met
 Total energy in the final basis set =     -317.5010138523
   11    -317.5010167904      5.44e-07  Convergence criterion met
 Total energy in the final basis set =     -317.5010167904

             Standard Nuclear Orientation (Angstroms)
    I     Atom           X                Y                Z
 ----------------------------------------------------------------
    1      F      -0.5717896170    -1.2841327047     0.3500322368
    2      F       2.3017107403    -0.0535987158    -0.6931300904
    3      C      -0.4773836773    -0.0147522267    -0.1986288273
    4      C       0.6070853422     0.7363542312     0.4662745143
    5      C      -1.8297539464     0.6922053261    -0.0344759872
    6      H      -0.2128087148    -0.1077030863    -1.2581254987
    7      H       0.7867789433     1.7648923429     0.1779817793
    8      H       0.9550699430     0.4117155255     1.4402674999
    9      H      -2.0803677569     0.8189295580     1.0223855352
   10      H      -1.8234839376     1.6715605359    -0.5202888441
   11      H      -2.6013543190     0.0749312139    -0.5005883178
 ----------------------------------------------------------------

   11    -317.5010179326      5.43e-07  Convergence criterion met
 Total energy in the final basis set =     -317.5010179326

                    Orbital Energies (a.u.)
 --------------------------------------------------------------

 Alpha MOs
 -- Occupied --
-24.692 -24.579 -10.299 -10.298 -10.217  -1.201  -1.003  -0.827
 -0.728  -0.628  -0.537  -0.505  -0.487  -0.455  -0.425  -0.417
 -0.364  -0.359  -0.298  -0.274  -0.273

 Beta MOs
 -- Occupied --
-24.692 -24.579 -10.299 -10.298 -10.217  -1.201  -1.003  -0.827
 -0.728  -0.628  -0.537  -0.505  -0.487  -0.455  -0.425  -0.417
 -0.364  -0.359  -0.298  -0.274  -0.273

          Ground-State Mulliken Net Atomic Charges

     Atom                 Charge (a.u.)    Spin (a.u.)
  --------------------------------------------------------
      1 F                    -0.309790      -0.000000
      2 F                    -0.400879       0.000000
      3 C                     0.228892       0.000000
      4 C                    -0.066230      -0.000000
      5 C                    -0.362618       0.000000
      6 H                     0.158078       0.000000
      7 H                     0.168994      -0.000000
      8 H                     0.183927      -0.000000
      9 H                     0.129200      -0.000000
     10 H                     0.122247       0.000000
     11 H                     0.148179      -0.000000
  --------------------------------------------------------
  Sum of atomic charges =    -0.000000

                    Cartesian Multipole Moments
 -----------------------------------------------------------------
    Charge (ESU x 10^10)
                -0.0000
    Dipole Moment (Debye)
         X      -3.9477      Y       2.8743      Z       1.4007
       Tot       5.0801
    Quadrupole Moments (Debye-Ang)
        XX     -36.4910     XY       0.1081     YY     -28.3306
        XZ       4.3354     YZ       1.0833     ZZ     -27.4254

 Final energy is   -317.501017932649
 **  OPTIMIZATION CONVERGED  **
 Total job time:  33.29s(wall), 383.69s(cpu)
        *  Thank you very much for using Q-Chem.  Have a nice day.  *
