 Q-Chem 5.1, Q-Chem, Inc., Pleasanton, CA (2018)
 Q-Chem 5.1.1 for Intel X86 EM64T Linux

User input:
--------------------------------------------------------------

$comment
potential surface scanner
$end

$rem
JOBTYPE  PES_SCAN
UNRESTRICTED TRUE
SYM_IGNORE  TRUE
GEOM_OPT_MAX_CYCLES 400
SCF_MAX_CYCLES 400
METHOD   B3LYP
BASIS   6-31G**
PDB_PRINT 2
SCF_CONVERGENCE 6
THRESH 14
SCF_PRINT 1
$end
$molecule
0 1
F -0.522731 -1.314533 0.229061
F 2.090154 -0.008116 -0.348507
C -0.455138 -0.022918 -0.284613
C 0.701539 0.688070 0.342199
C -1.777638 0.682917 0.000210
H -0.275297 -0.096545 -1.362968
H 0.800906 1.735140 0.067365
H 0.832737 0.492678 1.403713
H -1.940181 0.790087 1.077035
H -1.803667 1.674881 -0.460542
H -2.596983 0.088740 -0.411252
$end
$scan
stre 2 4 1.800000 1.801000 0.100000
$end
--------------------------------------------------------------

    9    -317.5762944243      7.78e-07  Convergence criterion met
 Total energy in the final basis set =     -317.5762944243
   10    -317.5606340506      2.03e-07  Convergence criterion met
 Total energy in the final basis set =     -317.5606340506
   10    -317.5603112539      2.07e-07  Convergence criterion met
 Total energy in the final basis set =     -317.5603112539
   10    -317.5604177285      2.10e-07  Convergence criterion met
 Total energy in the final basis set =     -317.5604177285
   10    -317.5604215817      2.10e-07  Convergence criterion met
 Total energy in the final basis set =     -317.5604215817
   10    -317.5604237022      2.11e-07  Convergence criterion met
 Total energy in the final basis set =     -317.5604237022
   10    -317.5604251630      2.11e-07  Convergence criterion met
 Total energy in the final basis set =     -317.5604251630
   10    -317.5604272290      2.11e-07  Convergence criterion met
 Total energy in the final basis set =     -317.5604272290
   10    -317.5604283950      2.11e-07  Convergence criterion met
 Total energy in the final basis set =     -317.5604283950

             Standard Nuclear Orientation (Angstroms)
    I     Atom           X                Y                Z
 ----------------------------------------------------------------
    1      F      -0.5307538564    -1.3080478009     0.2488627060
    2      F       2.1377819194    -0.0217568321    -0.4065964351
    3      C      -0.4599428832    -0.0207597749    -0.2710649583
    4      C       0.6800121758     0.7002164817     0.3638977565
    5      C      -1.7890522614     0.6846421565    -0.0055459797
    6      H      -0.2657733137    -0.0963828559    -1.3464571456
    7      H       0.8007549547     1.7427768784     0.0863853541
    8      H       0.8584211347     0.4752102212     1.4112022284
    9      H      -1.9660022200     0.7964463234     1.0683991285
   10      H      -1.8118791207     1.6736792541    -0.4723441706
   11      H      -2.5998655291     0.0843769485    -0.4250374843
 ----------------------------------------------------------------

   10    -317.5604287467      2.11e-07  Convergence criterion met
 Total energy in the final basis set =     -317.5604287467

                    Orbital Energies (a.u.)
 --------------------------------------------------------------

 Alpha MOs
 -- Occupied --
-24.681 -24.619 -10.286 -10.284 -10.207  -1.190  -1.056  -0.813
 -0.715  -0.618  -0.527  -0.491  -0.475  -0.444  -0.419  -0.409
 -0.374  -0.351  -0.339  -0.310  -0.310

 Beta MOs
 -- Occupied --
-24.681 -24.619 -10.286 -10.284 -10.207  -1.190  -1.056  -0.813
 -0.715  -0.618  -0.527  -0.491  -0.475  -0.444  -0.419  -0.409
 -0.374  -0.351  -0.339  -0.310  -0.310

          Ground-State Mulliken Net Atomic Charges

     Atom                 Charge (a.u.)    Spin (a.u.)
  --------------------------------------------------------
      1 F                    -0.314197      -0.000000
      2 F                    -0.375005      -0.000000
      3 C                     0.232480       0.000000
      4 C                     0.009057      -0.000000
      5 C                    -0.360516       0.000000
      6 H                     0.127420       0.000000
      7 H                     0.141941       0.000000
      8 H                     0.157314       0.000000
      9 H                     0.124324      -0.000000
     10 H                     0.116243      -0.000000
     11 H                     0.140941      -0.000000
  --------------------------------------------------------
  Sum of atomic charges =    -0.000000

                    Cartesian Multipole Moments
 -----------------------------------------------------------------
    Charge (ESU x 10^10)
                -0.0000
    Dipole Moment (Debye)
         X      -2.9116      Y       2.6512      Z       0.6280
       Tot       3.9875
    Quadrupole Moments (Debye-Ang)
        XX     -34.2130     XY       0.0146     YY     -28.9431
        XZ       2.4112     YZ       0.8111     ZZ     -27.2578

 Final energy is   -317.560428746680
 **  OPTIMIZATION CONVERGED  **
 Total job time:  31.47s(wall), 361.78s(cpu)
        *  Thank you very much for using Q-Chem.  Have a nice day.  *
