 Q-Chem 5.1, Q-Chem, Inc., Pleasanton, CA (2018)
 Q-Chem 5.1.1 for Intel X86 EM64T Linux

User input:
--------------------------------------------------------------

$comment
potential surface scanner
$end

$rem
JOBTYPE  PES_SCAN
UNRESTRICTED TRUE
SYM_IGNORE  TRUE
GEOM_OPT_MAX_CYCLES 400
SCF_MAX_CYCLES 400
METHOD   B3LYP
BASIS   6-31G**
PDB_PRINT 2
SCF_CONVERGENCE 6
THRESH 14
SCF_PRINT 1
$end
$molecule
0 3
F -0.529846 -1.053146 -0.450999
F 1.845522 -0.514608 -0.047092
C -0.699598 0.201396 0.231797
C 0.537591 0.908748 0.466110
C -2.017252 0.788025 -0.127099
H 1.120725 -1.042733 -0.339592
H 0.926663 1.607547 -0.273152
H 0.958154 0.975765 1.463242
H -2.815782 0.042884 -0.047311
H -2.248796 1.625004 0.536748
H -2.023682 1.171523 -1.160942
$end
$scan
stre 2 4 1.900000 1.901000 0.100000
$end
--------------------------------------------------------------

   10    -317.4620454105      8.31e-07  Convergence criterion met
 Total energy in the final basis set =     -317.4620454105
   10    -317.4509718723      8.91e-07  Convergence criterion met
 Total energy in the final basis set =     -317.4509718723
   10    -317.4509276270      8.96e-07  Convergence criterion met
 Total energy in the final basis set =     -317.4509276270
   10    -317.4509836422      9.06e-07  Convergence criterion met
 Total energy in the final basis set =     -317.4509836422
   10    -317.4510020675      9.21e-07  Convergence criterion met
 Total energy in the final basis set =     -317.4510020675
   10    -317.4510097106      9.27e-07  Convergence criterion met
 Total energy in the final basis set =     -317.4510097106
   10    -317.4510154869      9.30e-07  Convergence criterion met
 Total energy in the final basis set =     -317.4510154869
   10    -317.4510202479      9.30e-07  Convergence criterion met
 Total energy in the final basis set =     -317.4510202479
   10    -317.4510225306      9.28e-07  Convergence criterion met
 Total energy in the final basis set =     -317.4510225306

             Standard Nuclear Orientation (Angstroms)
    I     Atom           X                Y                Z
 ----------------------------------------------------------------
    1      F      -0.5315186864    -1.0793269356    -0.4347758761
    2      F       1.7910029490    -0.4626155417    -0.0566832145
    3      C      -0.6908561962     0.1963669483     0.2489910920
    4      C       0.5563648343     0.8847122350     0.4632957931
    5      C      -2.0021545822     0.7844065444    -0.1282485101
    6      H       1.0824181773    -1.0232474002    -0.3449903179
    7      H       0.9144767500     1.6095442623    -0.2667835890
    8      H       0.9707030208     0.9688417965     1.4620914527
    9      H      -2.8041727259     0.0421223196    -0.0585201823
   10      H      -2.2405559553     1.6238381038     0.5301465253
   11      H      -1.9920085854     1.1657626676    -1.1628131733
 ----------------------------------------------------------------

   10    -317.4510234479      9.26e-07  Convergence criterion met
 Total energy in the final basis set =     -317.4510234479

                    Orbital Energies (a.u.)
 --------------------------------------------------------------

 Alpha MOs
 -- Occupied --
-24.699 -24.678 -10.266 -10.195 -10.192  -1.204  -1.178  -0.792
 -0.706  -0.581  -0.553  -0.483  -0.476  -0.455  -0.423  -0.420
 -0.405  -0.397  -0.382  -0.372  -0.198  -0.164

 Beta MOs
 -- Occupied --
-24.694 -24.672 -10.251 -10.195 -10.179  -1.192  -1.166  -0.765
 -0.682  -0.559  -0.547  -0.462  -0.450  -0.444  -0.411  -0.397
 -0.389  -0.388  -0.373  -0.362

          Ground-State Mulliken Net Atomic Charges

     Atom                 Charge (a.u.)    Spin (a.u.)
  --------------------------------------------------------
      1 F                    -0.339720       0.085249
      2 F                    -0.300186       0.080204
      3 C                     0.268848       0.936846
      4 C                    -0.245695       0.832653
      5 C                    -0.361807      -0.057316
      6 H                     0.365747       0.014002
      7 H                     0.111467       0.022079
      8 H                     0.122270      -0.008211
      9 H                     0.129441       0.023713
     10 H                     0.127606       0.005128
     11 H                     0.122029       0.065652
  --------------------------------------------------------
  Sum of atomic charges =    -0.000000

                    Cartesian Multipole Moments
 -----------------------------------------------------------------
    Charge (ESU x 10^10)
                 0.0000
    Dipole Moment (Debye)
         X      -1.0295      Y       0.6917      Z      -0.1716
       Tot       1.2521
    Quadrupole Moments (Debye-Ang)
        XX     -30.0283     XY      -1.1488     YY     -28.5508
        XZ      -0.0306     YZ       0.0533     ZZ     -28.8167

 Final energy is   -317.451023447880
 **  OPTIMIZATION CONVERGED  **
 Total job time:  34.22s(wall), 377.42s(cpu)
        *  Thank you very much for using Q-Chem.  Have a nice day.  *
