 Q-Chem 5.1, Q-Chem, Inc., Pleasanton, CA (2018)
 Q-Chem 5.1.1 for Intel X86 EM64T Linux

User input:
--------------------------------------------------------------

$comment
potential surface scanner
$end

$rem
JOBTYPE  PES_SCAN
UNRESTRICTED TRUE
SYM_IGNORE  TRUE
GEOM_OPT_MAX_CYCLES 400
SCF_MAX_CYCLES 400
METHOD   B3LYP
BASIS   6-31G**
PDB_PRINT 2
SCF_CONVERGENCE 6
THRESH 14
SCF_PRINT 1
$end
$molecule
0 1
F -0.546400 -1.295456 0.288564
F 2.229777 -0.051857 -0.525834
C -0.468740 -0.015747 -0.242029
C 0.640390 0.722850 0.408872
C -1.810883 0.687586 -0.016482
H -0.245389 -0.095112 -1.311401
H 0.799754 1.755467 0.120620
H 0.902666 0.448915 1.424911
H -2.018815 0.803012 1.051207
H -1.825314 1.673143 -0.490138
H -2.603343 0.077600 -0.456586
$end
$scan
stre 2 4 2.100000 2.101000 0.100000
$end
--------------------------------------------------------------

   10    -317.5291434981      5.07e-07  Convergence criterion met
 Total energy in the final basis set =     -317.5291434981
   11    -317.5148082024      2.70e-07  Convergence criterion met
 Total energy in the final basis set =     -317.5148082024
   11    -317.5145335586      2.71e-07  Convergence criterion met
 Total energy in the final basis set =     -317.5145335586
   11    -317.5145608071      2.71e-07  Convergence criterion met
 Total energy in the final basis set =     -317.5145608071
   11    -317.5145644885      2.73e-07  Convergence criterion met
 Total energy in the final basis set =     -317.5145644885
   11    -317.5145669739      2.76e-07  Convergence criterion met
 Total energy in the final basis set =     -317.5145669739
   11    -317.5145689753      2.78e-07  Convergence criterion met
 Total energy in the final basis set =     -317.5145689753
   11    -317.5145718681      2.79e-07  Convergence criterion met
 Total energy in the final basis set =     -317.5145718681
   11    -317.5145737166      2.79e-07  Convergence criterion met
 Total energy in the final basis set =     -317.5145737166

             Standard Nuclear Orientation (Angstroms)
    I     Atom           X                Y                Z
 ----------------------------------------------------------------
    1      F      -0.5575184308    -1.2897753629     0.3155773455
    2      F       2.2703712707    -0.0572402394    -0.6012793871
    3      C      -0.4731262523    -0.0146973263    -0.2228385512
    4      C       0.6228033184     0.7308663842     0.4352570347
    5      C      -1.8207896259     0.6897195443    -0.0241845167
    6      H      -0.2314360115    -0.0992971066    -1.2880540884
    7      H       0.7944779043     1.7606283925     0.1455041107
    8      H       0.9270126598     0.4321015843     1.4320926192
    9      H      -2.0478343329     0.8095813215     1.0389505160
   10      H      -1.8267989577     1.6726462201    -0.5030860091
   11      H      -2.6034585421     0.0758675884    -0.4762350736
 ----------------------------------------------------------------

   11    -317.5145743209      2.79e-07  Convergence criterion met
 Total energy in the final basis set =     -317.5145743209

                    Orbital Energies (a.u.)
 --------------------------------------------------------------

 Alpha MOs
 -- Occupied --
-24.689 -24.588 -10.296 -10.296 -10.215  -1.199  -1.013  -0.824
 -0.725  -0.625  -0.535  -0.502  -0.483  -0.452  -0.423  -0.415
 -0.362  -0.357  -0.310  -0.282  -0.281

 Beta MOs
 -- Occupied --
-24.689 -24.588 -10.296 -10.296 -10.215  -1.199  -1.013  -0.824
 -0.725  -0.625  -0.535  -0.502  -0.483  -0.452  -0.423  -0.415
 -0.362  -0.357  -0.310  -0.282  -0.281

          Ground-State Mulliken Net Atomic Charges

     Atom                 Charge (a.u.)    Spin (a.u.)
  --------------------------------------------------------
      1 F                    -0.310158      -0.000000
      2 F                    -0.393335      -0.000000
      3 C                     0.231261      -0.000000
      4 C                    -0.053173      -0.000000
      5 C                    -0.362625       0.000000
      6 H                     0.149679       0.000000
      7 H                     0.163598       0.000000
      8 H                     0.178956       0.000000
      9 H                     0.128138       0.000000
     10 H                     0.120830      -0.000000
     11 H                     0.146828      -0.000000
  --------------------------------------------------------
  Sum of atomic charges =    -0.000000

                    Cartesian Multipole Moments
 -----------------------------------------------------------------
    Charge (ESU x 10^10)
                 0.0000
    Dipole Moment (Debye)
         X      -3.7417      Y       2.8567      Z       1.1681
       Tot       4.8503
    Quadrupole Moments (Debye-Ang)
        XX     -36.0062     XY       0.1477     YY     -28.4483
        XZ       3.7363     YZ       0.9925     ZZ     -27.2786

 Final energy is   -317.514574320946
 **  OPTIMIZATION CONVERGED  **
 Total job time:  32.59s(wall), 377.40s(cpu)
        *  Thank you very much for using Q-Chem.  Have a nice day.  *
