 Q-Chem 5.1, Q-Chem, Inc., Pleasanton, CA (2018)
 Q-Chem 5.1.1 for Intel X86 EM64T Linux

User input:
--------------------------------------------------------------

$comment
potential surface scanner
$end

$rem
JOBTYPE  PES_SCAN
UNRESTRICTED TRUE
SYM_IGNORE  TRUE
GEOM_OPT_MAX_CYCLES 400
SCF_MAX_CYCLES 400
METHOD   B3LYP
BASIS   6-31G**
PDB_PRINT 2
SCF_CONVERGENCE 6
THRESH 14
SCF_PRINT 1
$end
$molecule
0 1
F -0.850441 -1.146417 0.998009
F 0.642344 -0.095360 -2.087937
C -0.592901 0.128782 0.629292
C 0.553568 0.696471 1.011276
C -1.683455 0.702193 -0.211322
H 0.834583 0.024683 -1.181870
H 0.763537 1.726869 0.752631
H 1.263975 0.156227 1.625673
H -2.648493 0.577921 0.289320
H -1.511566 1.762620 -0.403467
H -1.717453 0.176417 -1.169902
$end
$scan
stre 2 4 3.300000 3.301000 0.100000
$end
--------------------------------------------------------------

   10    -317.5899557754      3.48e-07  Convergence criterion met
 Total energy in the final basis set =     -317.5899557754
   10    -317.5869556341      4.13e-07  Convergence criterion met
 Total energy in the final basis set =     -317.5869556341
   10    -317.5886208277      3.89e-07  Convergence criterion met
 Total energy in the final basis set =     -317.5886208277
   10    -317.5896231091      3.39e-07  Convergence criterion met
 Total energy in the final basis set =     -317.5896231091
   10    -317.5896982572      3.51e-07  Convergence criterion met
 Total energy in the final basis set =     -317.5896982572
   10    -317.5897010998      3.50e-07  Convergence criterion met
 Total energy in the final basis set =     -317.5897010998
   10    -317.5897028619      3.50e-07  Convergence criterion met
 Total energy in the final basis set =     -317.5897028619
   10    -317.5897043536      3.50e-07  Convergence criterion met
 Total energy in the final basis set =     -317.5897043536

             Standard Nuclear Orientation (Angstroms)
    I     Atom           X                Y                Z
 ----------------------------------------------------------------
    1      F      -0.8370815099    -1.1483663696     0.9952911751
    2      F       0.6065821229    -0.1216091065    -2.1449358729
    3      C      -0.5843722112     0.1322842735     0.6397259340
    4      C       0.5482286270     0.7086383221     1.0483824283
    5      C      -1.6678244935     0.7025026738    -0.2133577493
    6      H       0.8052537688     0.0079570622    -1.2423726718
    7      H       0.7554575642     1.7411805574     0.7961942871
    8      H       1.2535433244     0.1709856838     1.6707711325
    9      H      -2.6384156224     0.5709779771     0.2747143196
   10      H      -1.5001335732     1.7649856630    -0.3982250413
   11      H      -1.6875399971     0.1808692632    -1.1744849413
 ----------------------------------------------------------------

   10    -317.5897053219      3.51e-07  Convergence criterion met
 Total energy in the final basis set =     -317.5897053219

                    Orbital Energies (a.u.)
 --------------------------------------------------------------

 Alpha MOs
 -- Occupied --
-24.711 -24.653 -10.292 -10.202 -10.197  -1.223  -1.157  -0.806
 -0.720  -0.590  -0.512  -0.503  -0.493  -0.474  -0.424  -0.415
 -0.400  -0.371  -0.368  -0.366  -0.270

 Beta MOs
 -- Occupied --
-24.711 -24.653 -10.292 -10.202 -10.197  -1.223  -1.157  -0.806
 -0.720  -0.590  -0.512  -0.503  -0.493  -0.474  -0.424  -0.415
 -0.400  -0.371  -0.368  -0.366  -0.270

          Ground-State Mulliken Net Atomic Charges

     Atom                 Charge (a.u.)    Spin (a.u.)
  --------------------------------------------------------
      1 F                    -0.281775       0.000000
      2 F                    -0.371491       0.000000
      3 C                     0.374026      -0.000000
      4 C                    -0.348403       0.000000
      5 C                    -0.384826       0.000000
      6 H                     0.344034       0.000000
      7 H                     0.121570       0.000000
      8 H                     0.125114      -0.000000
      9 H                     0.135458      -0.000000
     10 H                     0.126092      -0.000000
     11 H                     0.160201      -0.000000
  --------------------------------------------------------
  Sum of atomic charges =     0.000000

                    Cartesian Multipole Moments
 -----------------------------------------------------------------
    Charge (ESU x 10^10)
                 0.0000
    Dipole Moment (Debye)
         X      -0.2976      Y       1.5028      Z       1.4482
       Tot       2.1081
    Quadrupole Moments (Debye-Ang)
        XX     -26.6129     XY      -0.8134     YY     -29.0258
        XZ       2.3754     YZ       0.0482     ZZ     -35.2026

 Final energy is   -317.589705321945
 **  OPTIMIZATION CONVERGED  **
 Total job time:  28.19s(wall), 325.23s(cpu)
        *  Thank you very much for using Q-Chem.  Have a nice day.  *
