 Q-Chem 5.1, Q-Chem, Inc., Pleasanton, CA (2018)
 Q-Chem 5.1.1 for Intel X86 EM64T Linux

User input:
--------------------------------------------------------------

$comment
potential surface scanner
$end

$rem
JOBTYPE  PES_SCAN
UNRESTRICTED TRUE
SYM_IGNORE  TRUE
GEOM_OPT_MAX_CYCLES 400
SCF_MAX_CYCLES 400
METHOD   B3LYP
BASIS   6-31G**
PDB_PRINT 2
SCF_CONVERGENCE 6
THRESH 14
SCF_PRINT 1
$end
$molecule
0 3
F -0.141792 -1.008989 0.497286
F 0.620587 -0.714039 -2.018269
C -0.605492 0.300657 0.705664
C 0.401584 1.186491 1.265026
C -1.631761 0.680007 -0.302005
H 0.447581 -1.047132 -1.162350
H 1.178310 1.621281 0.633726
H 0.463708 1.374587 2.333523
H -2.465297 -0.031486 -0.296435
H -2.021954 1.678932 -0.094204
H -1.191770 0.670090 -1.310260
$end
$scan
stre 2 4 3.700000 3.701000 0.100000
$end
--------------------------------------------------------------

   10    -317.4905119141      6.37e-07  Convergence criterion met
 Total energy in the final basis set =     -317.4905119141
   10    -317.4904275979      6.37e-07  Convergence criterion met
 Total energy in the final basis set =     -317.4904275979
   10    -317.4905521030      6.34e-07  Convergence criterion met
 Total energy in the final basis set =     -317.4905521030
   10    -317.4905993007      6.33e-07  Convergence criterion met
 Total energy in the final basis set =     -317.4905993007
   10    -317.4906022044      6.33e-07  Convergence criterion met
 Total energy in the final basis set =     -317.4906022044

             Standard Nuclear Orientation (Angstroms)
    I     Atom           X                Y                Z
 ----------------------------------------------------------------
    1      F      -0.1778336663    -1.0247144729     0.5004042058
    2      F       0.6848605158    -0.6560934867    -1.9670503654
    3      C      -0.6189124968     0.2942441290     0.7011365436
    4      C       0.4080854494     1.1699887147     1.2390096867
    5      C      -1.6504345143     0.6790738953    -0.2987816707
    6      H       0.4742129666    -1.0241397931    -1.1341113907
    7      H       1.1843847974     1.5822964683     0.5922289908
    8      H       0.4866086226     1.3684215977     2.3045000201
    9      H      -2.4923655439    -0.0221107591    -0.2809331982
   10      H      -2.0265759493     1.6841287521    -0.0943067128
   11      H      -1.2183261811     0.6593039548    -1.3103941092
 ----------------------------------------------------------------

   10    -317.4906031553      6.34e-07  Convergence criterion met
 Total energy in the final basis set =     -317.4906031553

                    Orbital Energies (a.u.)
 --------------------------------------------------------------

 Alpha MOs
 -- Occupied --
-24.718 -24.645 -10.281 -10.224 -10.197  -1.218  -1.148  -0.803
 -0.718  -0.599  -0.522  -0.500  -0.483  -0.476  -0.434  -0.415
 -0.406  -0.375  -0.361  -0.359  -0.252  -0.207

 Beta MOs
 -- Occupied --
-24.714 -24.644 -10.267 -10.211 -10.197  -1.207  -1.148  -0.774
 -0.692  -0.578  -0.514  -0.485  -0.465  -0.457  -0.419  -0.405
 -0.401  -0.366  -0.360  -0.358

          Ground-State Mulliken Net Atomic Charges

     Atom                 Charge (a.u.)    Spin (a.u.)
  --------------------------------------------------------
      1 F                    -0.302641       0.082195
      2 F                    -0.385095       0.000664
      3 C                     0.290359       0.879684
      4 C                    -0.251512       1.002092
      5 C                    -0.381629      -0.050228
      6 H                     0.353767       0.004025
      7 H                     0.134949       0.012547
      8 H                     0.135012      -0.018997
      9 H                     0.133447       0.026564
     10 H                     0.124860       0.001843
     11 H                     0.148482       0.059611
  --------------------------------------------------------
  Sum of atomic charges =    -0.000000

                    Cartesian Multipole Moments
 -----------------------------------------------------------------
    Charge (ESU x 10^10)
                -0.0000
    Dipole Moment (Debye)
         X      -0.8518      Y       1.2375      Z       1.7619
       Tot       2.3155
    Quadrupole Moments (Debye-Ang)
        XX     -28.0537     XY       0.2067     YY     -28.2778
        XZ       2.4329     YZ       0.5161     ZZ     -33.0906

 Final energy is   -317.490603155332
 **  OPTIMIZATION CONVERGED  **
 Total job time:  24.41s(wall), 218.83s(cpu)
        *  Thank you very much for using Q-Chem.  Have a nice day.  *
