 Q-Chem 5.1, Q-Chem, Inc., Pleasanton, CA (2018)
 Q-Chem 5.1.1 for Intel X86 EM64T Linux

User input:
--------------------------------------------------------------

$comment
potential surface scanner
$end

$rem
JOBTYPE  PES_SCAN
UNRESTRICTED TRUE
SYM_IGNORE  TRUE
GEOM_OPT_MAX_CYCLES 400
SCF_MAX_CYCLES 400
METHOD   B3LYP
BASIS   6-31G**
PDB_PRINT 2
SCF_CONVERGENCE 6
THRESH 14
SCF_PRINT 1
$end
$molecule
0 3
F -0.451510 -1.136842 0.444833
F 1.148622 -0.230287 -1.349804
C -0.718345 0.234469 0.638281
C 0.476240 0.998262 0.958566
C -1.799923 0.695445 -0.272308
H 0.741110 -0.861512 -0.792733
H 1.168770 1.304274 0.181365
H 0.704189 1.262417 1.988313
H -2.664121 0.025103 -0.226819
H -2.120128 1.706345 -0.007887
H -1.431204 0.712729 -1.310098
$end
$scan
stre 2 4 2.600000 2.601000 0.100000
$end
--------------------------------------------------------------

   10    -317.4879343744      6.67e-07  Convergence criterion met
 Total energy in the final basis set =     -317.4879343744
   10    -317.4853541390      6.81e-07  Convergence criterion met
 Total energy in the final basis set =     -317.4853541390
   10    -317.4854356015      6.83e-07  Convergence criterion met
 Total energy in the final basis set =     -317.4854356015
   10    -317.4855010516      6.84e-07  Convergence criterion met
 Total energy in the final basis set =     -317.4855010516
   10    -317.4855182653      6.83e-07  Convergence criterion met
 Total energy in the final basis set =     -317.4855182653
   10    -317.4855263926      6.81e-07  Convergence criterion met
 Total energy in the final basis set =     -317.4855263926
   10    -317.4855289749      6.79e-07  Convergence criterion met
 Total energy in the final basis set =     -317.4855289749
   10    -317.4855312542      6.78e-07  Convergence criterion met
 Total energy in the final basis set =     -317.4855312542
   10    -317.4855326866      6.76e-07  Convergence criterion met
 Total energy in the final basis set =     -317.4855326866

             Standard Nuclear Orientation (Angstroms)
    I     Atom           X                Y                Z
 ----------------------------------------------------------------
    1      F      -0.4790797580    -1.1449191122     0.3834152427
    2      F       1.2797623896    -0.2562396402    -1.2365127110
    3      C      -0.7235794666     0.2269458285     0.6011595285
    4      C       0.4816261683     0.9807150068     0.9065977819
    5      C      -1.8338653239     0.7104784715    -0.2611033815
    6      H       0.8119944676    -0.8885957879    -0.7307992724
    7      H       1.1334183440     1.3540971028     0.1262296977
    8      H       0.7288639970     1.2169766395     1.9393304573
    9      H      -2.6991291832     0.0427751928    -0.2002707782
   10      H      -2.1398428166     1.7167450549     0.0362153249
   11      H      -1.5064688182     0.7514242435    -1.3125528898
 ----------------------------------------------------------------

   10    -317.4855332483      6.76e-07  Convergence criterion met
 Total energy in the final basis set =     -317.4855332483

                    Orbital Energies (a.u.)
 --------------------------------------------------------------

 Alpha MOs
 -- Occupied --
-24.714 -24.652 -10.277 -10.210 -10.198  -1.215  -1.156  -0.799
 -0.712  -0.593  -0.529  -0.492  -0.483  -0.474  -0.430  -0.413
 -0.404  -0.372  -0.368  -0.362  -0.240  -0.206

 Beta MOs
 -- Occupied --
-24.709 -24.651 -10.263 -10.199 -10.196  -1.204  -1.155  -0.772
 -0.686  -0.572  -0.523  -0.475  -0.466  -0.456  -0.416  -0.403
 -0.399  -0.369  -0.361  -0.357

          Ground-State Mulliken Net Atomic Charges

     Atom                 Charge (a.u.)    Spin (a.u.)
  --------------------------------------------------------
      1 F                    -0.309420       0.081095
      2 F                    -0.372198       0.006093
      3 C                     0.280136       0.886068
      4 C                    -0.264346       0.990810
      5 C                    -0.365382      -0.049402
      6 H                     0.357558       0.004921
      7 H                     0.157654       0.011187
      8 H                     0.121240      -0.020025
      9 H                     0.132095       0.020928
     10 H                     0.127876       0.003600
     11 H                     0.134788       0.064725
  --------------------------------------------------------
  Sum of atomic charges =    -0.000000

                    Cartesian Multipole Moments
 -----------------------------------------------------------------
    Charge (ESU x 10^10)
                -0.0000
    Dipole Moment (Debye)
         X      -1.2259      Y       0.7512      Z       0.7558
       Tot       1.6243
    Quadrupole Moments (Debye-Ang)
        XX     -29.1439     XY      -0.8251     YY     -28.3035
        XZ       2.6135     YZ       1.0621     ZZ     -30.5422

 Final energy is   -317.485533248262
 **  OPTIMIZATION CONVERGED  **
 Total job time:  31.57s(wall), 364.08s(cpu)
        *  Thank you very much for using Q-Chem.  Have a nice day.  *
