 Q-Chem 5.1, Q-Chem, Inc., Pleasanton, CA (2018)
 Q-Chem 5.1.1 for Intel X86 EM64T Linux

User input:
--------------------------------------------------------------

$comment
potential surface scanner
$end

$rem
JOBTYPE  PES_SCAN
UNRESTRICTED TRUE
SYM_IGNORE  TRUE
GEOM_OPT_MAX_CYCLES 400
SCF_MAX_CYCLES 400
METHOD   B3LYP
BASIS   6-31G**
PDB_PRINT 2
SCF_CONVERGENCE 6
THRESH 14
SCF_PRINT 1
$end
$molecule
0 1
F -0.486400 -1.298900 0.159500
F 1.889200 0.001700 -0.126500
C -0.435600 -0.028600 -0.332400
C 0.768200 0.660400 0.276200
C -1.735300 0.665500 0.023300
H -0.320900 -0.108600 -1.417700
H 0.851700 1.700600 -0.050500
H 0.742100 0.621000 1.368800
H -1.880200 0.688200 1.108400
H -1.756200 1.691300 -0.356400
H -2.582900 0.117800 -0.401000
$end
$scan
stre 2 4 0.800000 0.801000 0.100000
$end
--------------------------------------------------------------

    8    -317.6070310312      9.75e-07  Convergence criterion met
 Total energy in the final basis set =     -317.6070310312
    9    -317.5861031954      4.24e-07  Convergence criterion met
 Total energy in the final basis set =     -317.5861031954
    9    -317.4975710905      2.49e-07  Convergence criterion met
 Total energy in the final basis set =     -317.4975710905
    9    -317.3790687118      2.96e-07  Convergence criterion met
 Total energy in the final basis set =     -317.3790687118
    9    -317.1255426642      3.82e-07  Convergence criterion met
 Total energy in the final basis set =     -317.1255426642
    9    -316.9659488453      3.90e-07  Convergence criterion met
 Total energy in the final basis set =     -316.9659488453
    9    -316.8186679083      3.58e-07  Convergence criterion met
 Total energy in the final basis set =     -316.8186679083
    9    -316.7068704252      2.96e-07  Convergence criterion met
    9    -316.6748756180      3.96e-07  Convergence criterion met
 Total energy in the final basis set =     -316.6748756180
    9    -316.6748833386      3.98e-07  Convergence criterion met
 Total energy in the final basis set =     -316.6748833386
    9    -316.6748861325      3.98e-07  Convergence criterion met
 Total energy in the final basis set =     -316.6748861325
    9    -316.6748874295      3.99e-07  Convergence criterion met
 Total energy in the final basis set =     -316.6748874295
    9    -316.6748887405      3.98e-07  Convergence criterion met
 Total energy in the final basis set =     -316.6748887405
    9    -316.6748898505      3.98e-07  Convergence criterion met
 Total energy in the final basis set =     -316.6748898505

             Standard Nuclear Orientation (Angstroms)
    I     Atom           X                Y                Z
 ----------------------------------------------------------------
    1      F      -0.4527983162    -1.4075055288     0.0405931159
    2      F       1.6294427413     0.1420051738     0.1131957389
    3      C      -0.4408488915    -0.0587179390    -0.4082663572
    4      C       0.9498045940     0.5440566235     0.2414409771
    5      C      -1.6849834681     0.6570765937     0.0435038176
    6      H      -0.3685525223    -0.1060532342    -1.5083042849
    7      H       0.8618837939     1.7082190914    -0.1328297069
    8      H       0.5633120112     0.7011615584     1.3823225535
    9      H      -1.7073693770     0.7287883113     1.1362134352
   10      H      -1.7103828384     1.6700890369    -0.3700620826
   11      H      -2.5858077271     0.1312803131    -0.2861072065
 ----------------------------------------------------------------

    9    -316.6748903791      3.98e-07  Convergence criterion met
 Total energy in the final basis set =     -316.6748903791

                    Orbital Energies (a.u.)
 --------------------------------------------------------------

 Alpha MOs
 -- Occupied --
-24.878 -24.652 -10.372 -10.226 -10.170  -1.700  -1.153  -0.834
 -0.827  -0.796  -0.747  -0.627  -0.553  -0.471  -0.426  -0.401
 -0.377  -0.367  -0.319  -0.252  -0.234

 Beta MOs
 -- Occupied --
-24.878 -24.652 -10.372 -10.226 -10.170  -1.700  -1.153  -0.834
 -0.827  -0.796  -0.747  -0.627  -0.553  -0.471  -0.426  -0.401
 -0.377  -0.367  -0.319  -0.252  -0.234

          Ground-State Mulliken Net Atomic Charges

     Atom                 Charge (a.u.)    Spin (a.u.)
  --------------------------------------------------------
      1 F                    -0.354876       0.000000
      2 F                     0.639208       0.000000
      3 C                     0.097064      -0.000000
      4 C                    -0.199965       0.000000
      5 C                    -0.337045      -0.000000
      6 H                     0.064951      -0.000000
      7 H                    -0.141557      -0.000000
      8 H                    -0.111010      -0.000000
      9 H                     0.118688       0.000000
     10 H                     0.110500       0.000000
     11 H                     0.114041       0.000000
  --------------------------------------------------------
  Sum of atomic charges =    -0.000000

                    Cartesian Multipole Moments
 -----------------------------------------------------------------
    Charge (ESU x 10^10)
                 0.0000
    Dipole Moment (Debye)
         X       1.8812      Y       0.3719      Z      -0.8099
       Tot       2.0816
    Quadrupole Moments (Debye-Ang)
        XX     -24.5170     XY      -1.7143     YY     -34.1184
        XZ       0.1415     YZ      -0.2436     ZZ     -30.0420

 Final energy is   -316.674890379060
 **  OPTIMIZATION CONVERGED  **
 Total job time:  94.32s(wall), 1094.81s(cpu)
        *  Thank you very much for using Q-Chem.  Have a nice day.  *
