 Q-Chem 5.1, Q-Chem, Inc., Pleasanton, CA (2018)
 Q-Chem 5.1.1 for Intel X86 EM64T Linux

User input:
--------------------------------------------------------------

$comment
potential surface scanner
$end

$rem
JOBTYPE  PES_SCAN
UNRESTRICTED TRUE
SYM_IGNORE  TRUE
GEOM_OPT_MAX_CYCLES 400
SCF_MAX_CYCLES 400
METHOD   B3LYP
BASIS   6-31G**
PDB_PRINT 2
SCF_CONVERGENCE 6
THRESH 14
SCF_PRINT 1
$end
$molecule
0 1
F -1.003570 -1.123741 1.077322
F 1.884757 0.233612 -1.638522
C -0.740615 0.097987 0.558963
C 0.494844 0.594298 0.647970
C -1.947735 0.709378 -0.069108
H 1.169309 -0.006670 -1.088301
H 0.715312 1.582973 0.268467
H 1.275397 0.053144 1.170028
H -2.740729 0.822406 0.678167
H -1.716943 1.687830 -0.493071
H -2.336329 0.059185 -0.860213
$end
$scan
stre 2 4 2.800000 2.801000 0.100000
$end
--------------------------------------------------------------

   10    -317.5865763149      4.06e-07  Convergence criterion met
 Total energy in the final basis set =     -317.5865763149
   10    -317.5863082007      4.28e-07  Convergence criterion met
 Total energy in the final basis set =     -317.5863082007
   10    -317.5870401083      4.07e-07  Convergence criterion met
 Total energy in the final basis set =     -317.5870401083
   10    -317.5873666001      3.76e-07  Convergence criterion met
 Total energy in the final basis set =     -317.5873666001
   10    -317.5873769123      3.80e-07  Convergence criterion met
 Total energy in the final basis set =     -317.5873769123
   10    -317.5873810230      3.81e-07  Convergence criterion met
 Total energy in the final basis set =     -317.5873810230
   10    -317.5873988573      3.83e-07  Convergence criterion met
 Total energy in the final basis set =     -317.5873988573
   10    -317.5874032025      3.82e-07  Convergence criterion met
 Total energy in the final basis set =     -317.5874032025
   10    -317.5874076216      3.81e-07  Convergence criterion met
 Total energy in the final basis set =     -317.5874076216
   10    -317.5874087336      3.81e-07  Convergence criterion met
 Total energy in the final basis set =     -317.5874087336
   10    -317.5874100646      3.81e-07  Convergence criterion met
 Total energy in the final basis set =     -317.5874100646

             Standard Nuclear Orientation (Angstroms)
    I     Atom           X                Y                Z
 ----------------------------------------------------------------
    1      F      -0.9874921447    -1.1293310456     1.0664429612
    2      F       1.7723430433     0.1750609793    -1.7500796299
    3      C      -0.7256415644     0.1010527004     0.5704277753
    4      C       0.4995009845     0.6133556130     0.7050722858
    5      C      -1.9209404122     0.7048297190    -0.0867860185
    6      H       1.1321619482     0.0105385100    -1.0896748466
    7      H       0.7165328718     1.6101585587     0.3437727691
    8      H       1.2711487464     0.0757997472     1.2439057149
    9      H      -2.7376118369     0.7976436131     0.6373836215
   10      H      -1.6903875865     1.6915329314    -0.4912403551
   11      H      -2.2759160494     0.0597606734    -0.8975222778
 ----------------------------------------------------------------

   10    -317.5874110231      3.81e-07  Convergence criterion met
 Total energy in the final basis set =     -317.5874110231

                    Orbital Energies (a.u.)
 --------------------------------------------------------------

 Alpha MOs
 -- Occupied --
-24.717 -24.634 -10.298 -10.212 -10.198  -1.229  -1.140  -0.812
 -0.727  -0.596  -0.511  -0.502  -0.493  -0.478  -0.430  -0.420
 -0.407  -0.378  -0.353  -0.352  -0.274

 Beta MOs
 -- Occupied --
-24.717 -24.634 -10.298 -10.212 -10.198  -1.229  -1.140  -0.812
 -0.727  -0.596  -0.511  -0.502  -0.493  -0.478  -0.430  -0.420
 -0.407  -0.378  -0.353  -0.352  -0.274

          Ground-State Mulliken Net Atomic Charges

     Atom                 Charge (a.u.)    Spin (a.u.)
  --------------------------------------------------------
      1 F                    -0.280519       0.000000
      2 F                    -0.388543       0.000000
      3 C                     0.400202       0.000000
      4 C                    -0.392117      -0.000000
      5 C                    -0.383218      -0.000000
      6 H                     0.342422       0.000000
      7 H                     0.140317      -0.000000
      8 H                     0.139365      -0.000000
      9 H                     0.144285      -0.000000
     10 H                     0.132566       0.000000
     11 H                     0.145242       0.000000
  --------------------------------------------------------
  Sum of atomic charges =    -0.000000

                    Cartesian Multipole Moments
 -----------------------------------------------------------------
    Charge (ESU x 10^10)
                -0.0000
    Dipole Moment (Debye)
         X      -2.2317      Y       1.0370      Z       1.2336
       Tot       2.7528
    Quadrupole Moments (Debye-Ang)
        XX     -29.9588     XY      -1.8108     YY     -28.8885
        XZ       5.1803     YZ       0.9846     ZZ     -33.6699

 Final energy is   -317.587411023124
 **  OPTIMIZATION CONVERGED  **
 Total job time:  39.72s(wall), 445.29s(cpu)
        *  Thank you very much for using Q-Chem.  Have a nice day.  *
