 Q-Chem 5.1, Q-Chem, Inc., Pleasanton, CA (2018)
 Q-Chem 5.1.1 for Intel X86 EM64T Linux

User input:
--------------------------------------------------------------

$comment
potential surface scanner
$end

$rem
JOBTYPE  PES_SCAN
UNRESTRICTED TRUE
SYM_IGNORE  TRUE
GEOM_OPT_MAX_CYCLES 400
SCF_MAX_CYCLES 400
METHOD   B3LYP
BASIS   6-31G**
PDB_PRINT 2
SCF_CONVERGENCE 6
THRESH 14
SCF_PRINT 1
$end
$molecule
0 1
F -0.571790 -1.284133 0.350032
F 2.301711 -0.053599 -0.693130
C -0.477384 -0.014752 -0.198629
C 0.607085 0.736354 0.466275
C -1.829754 0.692205 -0.034476
H -0.212809 -0.107703 -1.258125
H 0.786779 1.764892 0.177982
H 0.955070 0.411716 1.440267
H -2.080368 0.818930 1.022386
H -1.823484 1.671561 -0.520289
H -2.601354 0.074931 -0.500588
$end
$scan
stre 2 4 2.300000 2.301000 0.100000
$end
--------------------------------------------------------------

   11    -317.5010178425      5.43e-07  Convergence criterion met
 Total energy in the final basis set =     -317.5010178425
   11    -317.4887048847      3.35e-07  Convergence criterion met
 Total energy in the final basis set =     -317.4887048847
   11    -317.4884673068      3.13e-07  Convergence criterion met
 Total energy in the final basis set =     -317.4884673068
   11    -317.4885008866      2.99e-07  Convergence criterion met
 Total energy in the final basis set =     -317.4885008866
   11    -317.4885046409      2.97e-07  Convergence criterion met
 Total energy in the final basis set =     -317.4885046409
   11    -317.4885091904      2.97e-07  Convergence criterion met
 Total energy in the final basis set =     -317.4885091904
   11    -317.4885121086      2.99e-07  Convergence criterion met
 Total energy in the final basis set =     -317.4885121086
   11    -317.4885175457      3.03e-07  Convergence criterion met
 Total energy in the final basis set =     -317.4885175457
   11    -317.4885214048      3.08e-07  Convergence criterion met
 Total energy in the final basis set =     -317.4885214048
   11    -317.4885232179      3.10e-07  Convergence criterion met
 Total energy in the final basis set =     -317.4885232179

             Standard Nuclear Orientation (Angstroms)
    I     Atom           X                Y                Z
 ----------------------------------------------------------------
    1      F      -0.5892971034    -1.2784029721     0.3914279804
    2      F       2.3240490741    -0.0412125965    -0.7972056116
    3      C      -0.4814172329    -0.0162455146    -0.1703936567
    4      C       0.5929932901     0.7395511735     0.5004282931
    5      C      -1.8371128147     0.6949683496    -0.0469240084
    6      H      -0.1913255610    -0.1211619599    -1.2227807707
    7      H       0.7769921067     1.7681283758     0.2154221465
    8      H       0.9848941457     0.3896905508     1.4486728111
    9      H      -2.1150057891     0.8287097429     1.0020530142
   10      H      -1.8146218142     1.6707539572    -0.5390445295
   11      H      -2.5964463012     0.0756228933    -0.5299506684
 ----------------------------------------------------------------

   11    -317.4885236406      3.11e-07  Convergence criterion met
 Total energy in the final basis set =     -317.4885236406

                    Orbital Energies (a.u.)
 --------------------------------------------------------------

 Alpha MOs
 -- Occupied --
-24.694 -24.572 -10.302 -10.301 -10.219  -1.204  -0.995  -0.829
 -0.730  -0.629  -0.539  -0.508  -0.490  -0.457  -0.427  -0.418
 -0.366  -0.361  -0.287  -0.267  -0.266

 Beta MOs
 -- Occupied --
-24.694 -24.572 -10.302 -10.301 -10.219  -1.204  -0.995  -0.829
 -0.730  -0.629  -0.539  -0.508  -0.490  -0.457  -0.427  -0.418
 -0.366  -0.361  -0.287  -0.267  -0.266

          Ground-State Mulliken Net Atomic Charges

     Atom                 Charge (a.u.)    Spin (a.u.)
  --------------------------------------------------------
      1 F                    -0.309763       0.000000
      2 F                    -0.408555       0.000000
      3 C                     0.225835      -0.000000
      4 C                    -0.076898      -0.000000
      5 C                    -0.362183       0.000000
      6 H                     0.166890       0.000000
      7 H                     0.173733       0.000000
      8 H                     0.188026      -0.000000
      9 H                     0.130184       0.000000
     10 H                     0.123575       0.000000
     11 H                     0.149158      -0.000000
  --------------------------------------------------------
  Sum of atomic charges =     0.000000

                    Cartesian Multipole Moments
 -----------------------------------------------------------------
    Charge (ESU x 10^10)
                 0.0000
    Dipole Moment (Debye)
         X      -4.1103      Y       2.8617      Z       1.6576
       Tot       5.2756
    Quadrupole Moments (Debye-Ang)
        XX     -36.8903     XY       0.0163     YY     -28.2325
        XZ       5.0087     YZ       1.1981     ZZ     -27.6703

 Final energy is   -317.488523640611
 **  OPTIMIZATION CONVERGED  **
 Total job time:  37.84s(wall), 431.58s(cpu)
        *  Thank you very much for using Q-Chem.  Have a nice day.  *
