 Q-Chem 5.1, Q-Chem, Inc., Pleasanton, CA (2018)
 Q-Chem 5.1.1 for Intel X86 EM64T Linux

User input:
--------------------------------------------------------------

$comment
potential surface scanner
$end

$rem
JOBTYPE  PES_SCAN
UNRESTRICTED TRUE
SYM_IGNORE  TRUE
GEOM_OPT_MAX_CYCLES 400
SCF_MAX_CYCLES 400
METHOD   B3LYP
BASIS   6-31G**
PDB_PRINT 2
SCF_CONVERGENCE 6
THRESH 14
SCF_PRINT 1
$end
$molecule
0 3
F -0.411897 -1.115049 0.485506
F 1.066718 -0.278923 -1.491607
C -0.713426 0.248866 0.671627
C 0.458128 1.035294 1.020852
C -1.772331 0.687944 -0.276598
H 0.681975 -0.869433 -0.877004
H 1.182779 1.297328 0.252616
H 0.673717 1.303579 2.051326
H -2.631133 0.009741 -0.246492
H -2.109722 1.699176 -0.036428
H -1.371107 0.691880 -1.302091
$end
$scan
stre 2 4 2.800000 2.801000 0.100000
$end
--------------------------------------------------------------

   10    -317.4905665853      6.54e-07  Convergence criterion met
 Total energy in the final basis set =     -317.4905665853
   10    -317.4894977255      6.58e-07  Convergence criterion met
 Total energy in the final basis set =     -317.4894977255
   10    -317.4895473494      6.61e-07  Convergence criterion met
 Total energy in the final basis set =     -317.4895473494
   10    -317.4895629450      6.62e-07  Convergence criterion met
 Total energy in the final basis set =     -317.4895629450
   10    -317.4895654471      6.62e-07  Convergence criterion met
 Total energy in the final basis set =     -317.4895654471
   10    -317.4895671872      6.60e-07  Convergence criterion met
 Total energy in the final basis set =     -317.4895671872
   10    -317.4895682252      6.59e-07  Convergence criterion met
 Total energy in the final basis set =     -317.4895682252

             Standard Nuclear Orientation (Angstroms)
    I     Atom           X                Y                Z
 ----------------------------------------------------------------
    1      F      -0.4310895819    -1.1258860580     0.4701592931
    2      F       1.0996263605    -0.2483284278    -1.4243853659
    3      C      -0.7161565224     0.2420019415     0.6578056166
    4      C       0.4672575875     1.0169889033     0.9920339908
    5      C      -1.7841600135     0.6904222879    -0.2753324565
    6      H       0.7059162330    -0.8614287536    -0.8379800147
    7      H       1.1790322845     1.2923857704     0.2183448605
    8      H       0.6886391303     1.2871484375     2.0211299195
    9      H      -2.6452783638     0.0155089304    -0.2393666260
   10      H      -2.1145428740     1.7015458923    -0.0249694362
   11      H      -1.3955432401     0.7000440761    -1.3057327812
 ----------------------------------------------------------------

   10    -317.4895689697      6.59e-07  Convergence criterion met
 Total energy in the final basis set =     -317.4895689697

                    Orbital Energies (a.u.)
 --------------------------------------------------------------

 Alpha MOs
 -- Occupied --
-24.714 -24.655 -10.278 -10.213 -10.197  -1.215  -1.158  -0.799
 -0.713  -0.593  -0.529  -0.494  -0.481  -0.476  -0.430  -0.413
 -0.403  -0.371  -0.370  -0.367  -0.243  -0.208

 Beta MOs
 -- Occupied --
-24.710 -24.654 -10.264 -10.200 -10.197  -1.204  -1.157  -0.772
 -0.687  -0.572  -0.522  -0.478  -0.464  -0.456  -0.417  -0.404
 -0.398  -0.370  -0.365  -0.360

          Ground-State Mulliken Net Atomic Charges

     Atom                 Charge (a.u.)    Spin (a.u.)
  --------------------------------------------------------
      1 F                    -0.309191       0.082538
      2 F                    -0.372291       0.001419
      3 C                     0.281090       0.882691
      4 C                    -0.263093       0.999099
      5 C                    -0.366746      -0.047847
      6 H                     0.356835       0.004540
      7 H                     0.151718       0.011243
      8 H                     0.125611      -0.021442
      9 H                     0.131383       0.021080
     10 H                     0.126819       0.003169
     11 H                     0.137865       0.063511
  --------------------------------------------------------
  Sum of atomic charges =    -0.000000

                    Cartesian Multipole Moments
 -----------------------------------------------------------------
    Charge (ESU x 10^10)
                 0.0000
    Dipole Moment (Debye)
         X      -1.0521      Y       0.7240      Z       0.9323
       Tot       1.5812
    Quadrupole Moments (Debye-Ang)
        XX     -28.6979     XY      -0.6875     YY     -28.4422
        XZ       2.6584     YZ       1.3328     ZZ     -31.0780

 Final energy is   -317.489568969733
 **  OPTIMIZATION CONVERGED  **
 Total job time:  25.17s(wall), 290.02s(cpu)
        *  Thank you very much for using Q-Chem.  Have a nice day.  *
