 Q-Chem 5.1, Q-Chem, Inc., Pleasanton, CA (2018)
 Q-Chem 5.1.1 for Intel X86 EM64T Linux

User input:
--------------------------------------------------------------

$comment
potential surface scanner
$end

$rem
JOBTYPE  PES_SCAN
UNRESTRICTED TRUE
SYM_IGNORE  TRUE
GEOM_OPT_MAX_CYCLES 400
SCF_MAX_CYCLES 400
METHOD   B3LYP
BASIS   6-31G**
PDB_PRINT 2
SCF_CONVERGENCE 6
THRESH 14
SCF_PRINT 1
$end
$molecule
0 1
F -0.755347 -1.156228 0.934078
F 0.471226 -0.296353 -2.356500
C -0.553472 0.158489 0.671023
C 0.514996 0.766522 1.187280
C -1.622236 0.721634 -0.206208
H 0.781294 -0.098478 -1.502005
H 0.685739 1.819637 1.002665
H 1.213100 0.226567 1.815667
H -2.607012 0.544883 0.238022
H -1.483223 1.794847 -0.349878
H -1.591367 0.228884 -1.182443
$end
$scan
stre 2 4 3.800000 3.801000 0.100000
$end
--------------------------------------------------------------

   10    -317.5878840241      3.77e-07  Convergence criterion met
 Total energy in the final basis set =     -317.5878840241
   10    -317.5864092928      4.45e-07  Convergence criterion met
 Total energy in the final basis set =     -317.5864092928
   10    -317.5870526056      4.17e-07  Convergence criterion met
 Total energy in the final basis set =     -317.5870526056
   10    -317.5873651161      3.82e-07  Convergence criterion met
 Total energy in the final basis set =     -317.5873651161
   10    -317.5873738060      3.85e-07  Convergence criterion met
 Total energy in the final basis set =     -317.5873738060
   10    -317.5873817667      3.86e-07  Convergence criterion met
 Total energy in the final basis set =     -317.5873817667
   10    -317.5873856490      3.86e-07  Convergence criterion met
 Total energy in the final basis set =     -317.5873856490
   10    -317.5873881434      3.86e-07  Convergence criterion met
 Total energy in the final basis set =     -317.5873881434
   10    -317.5873898985      3.86e-07  Convergence criterion met
 Total energy in the final basis set =     -317.5873898985
   10    -317.5873917940      3.86e-07  Convergence criterion met
 Total energy in the final basis set =     -317.5873917940
   10    -317.5873941409      3.86e-07  Convergence criterion met
 Total energy in the final basis set =     -317.5873941409
   10    -317.5873964670      3.87e-07  Convergence criterion met
 Total energy in the final basis set =     -317.5873964670
   10    -317.5873979921      3.87e-07  Convergence criterion met
 Total energy in the final basis set =     -317.5873979921

             Standard Nuclear Orientation (Angstroms)
    I     Atom           X                Y                Z
 ----------------------------------------------------------------
    1      F      -0.7373223166    -1.1543012194     0.9300139779
    2      F       0.4231945601    -0.3270237984    -2.4112264084
    3      C      -0.5457112507     0.1658825856     0.6833461560
    4      C       0.5069454555     0.7801266834     1.2229452446
    5      C      -1.6064618631     0.7251699656    -0.2062482489
    6      H       0.7721046745    -0.1339300599    -1.5712848830
    7      H       0.6710444261     1.8360731499     1.0489360966
    8      H       1.2004279160     0.2419734436     1.8579645973
    9      H      -2.5963048149     0.5289550618     0.2183871743
   10      H      -1.4811784418     1.8022372077    -0.3330807776
   11      H      -1.5530403451     0.2452409801    -1.1880519287
 ----------------------------------------------------------------

   10    -317.5873988354      3.88e-07  Convergence criterion met
 Total energy in the final basis set =     -317.5873988354

                    Orbital Energies (a.u.)
 --------------------------------------------------------------

 Alpha MOs
 -- Occupied --
-24.704 -24.667 -10.283 -10.198 -10.191  -1.216  -1.170  -0.799
 -0.715  -0.584  -0.520  -0.498  -0.487  -0.470  -0.419  -0.412
 -0.396  -0.380  -0.376  -0.366  -0.263

 Beta MOs
 -- Occupied --
-24.704 -24.667 -10.283 -10.198 -10.191  -1.216  -1.170  -0.799
 -0.715  -0.584  -0.520  -0.498  -0.487  -0.470  -0.419  -0.412
 -0.396  -0.380  -0.376  -0.366  -0.263

          Ground-State Mulliken Net Atomic Charges

     Atom                 Charge (a.u.)    Spin (a.u.)
  --------------------------------------------------------
      1 F                    -0.289039      -0.000000
      2 F                    -0.353095       0.000000
      3 C                     0.368767       0.000000
      4 C                    -0.332116      -0.000000
      5 C                    -0.392109       0.000000
      6 H                     0.355882       0.000000
      7 H                     0.112425       0.000000
      8 H                     0.118525       0.000000
      9 H                     0.135531      -0.000000
     10 H                     0.122079       0.000000
     11 H                     0.153151      -0.000000
  --------------------------------------------------------
  Sum of atomic charges =     0.000000

                    Cartesian Multipole Moments
 -----------------------------------------------------------------
    Charge (ESU x 10^10)
                 0.0000
    Dipole Moment (Debye)
         X       0.1837      Y       1.6117      Z       1.1324
       Tot       1.9783
    Quadrupole Moments (Debye-Ang)
        XX     -26.5720     XY      -0.8197     YY     -29.2476
        XZ       1.2619     YZ      -0.4013     ZZ     -35.4615

 Final energy is   -317.587398835381
 **  OPTIMIZATION CONVERGED  **
 Total job time:  43.02s(wall), 498.39s(cpu)
        *  Thank you very much for using Q-Chem.  Have a nice day.  *
