 Q-Chem 5.1, Q-Chem, Inc., Pleasanton, CA (2018)
 Q-Chem 5.1.1 for Intel X86 EM64T Linux

User input:
--------------------------------------------------------------

$comment
potential surface scanner
$end

$rem
JOBTYPE  PES_SCAN
UNRESTRICTED TRUE
SYM_IGNORE  TRUE
GEOM_OPT_MAX_CYCLES 400
SCF_MAX_CYCLES 400
METHOD   B3LYP
BASIS   6-31G**
PDB_PRINT 2
SCF_CONVERGENCE 6
THRESH 14
SCF_PRINT 1
$end
$molecule
0 3
F -0.172249 -0.942747 0.567045
F 0.618312 -0.957626 -1.939798
C -0.429976 0.418492 0.534718
C 0.319024 1.205900 1.291236
C -1.538977 0.733244 -0.404857
H 0.453772 -1.233502 -1.063936
H 0.147092 2.274451 1.297836
H 1.107791 0.799780 1.912656
H -2.459048 0.219942 -0.103929
H -1.726444 1.807969 -0.433842
H -1.265597 0.384497 -1.405427
$end
$scan
stre 2 4 4.000000 4.001000 0.100000
$end
--------------------------------------------------------------

   10    -317.4250861070      6.37e-07  Convergence criterion met
 Total energy in the final basis set =     -317.4250861070
   10    -317.4555254432      4.82e-07  Convergence criterion met
 Total energy in the final basis set =     -317.4555254432
   10    -317.4589102760      4.75e-07  Convergence criterion met
 Total energy in the final basis set =     -317.4589102760
   10    -317.4597083258      4.80e-07  Convergence criterion met
 Total energy in the final basis set =     -317.4597083258
   10    -317.4602365192      4.95e-07  Convergence criterion met
 Total energy in the final basis set =     -317.4602365192
   10    -317.4613190158      5.42e-07  Convergence criterion met
 Total energy in the final basis set =     -317.4613190158
   10    -317.4621756214      5.95e-07  Convergence criterion met
 Total energy in the final basis set =     -317.4621756214
   10    -317.4626698433      7.29e-07  Convergence criterion met
   10    -317.4900878023      6.40e-07  Convergence criterion met
 Total energy in the final basis set =     -317.4900878023
   10    -317.4902742516      6.31e-07  Convergence criterion met
 Total energy in the final basis set =     -317.4902742516
   10    -317.4903173502      6.29e-07  Convergence criterion met
 Total energy in the final basis set =     -317.4903173502
   10    -317.4903274343      6.31e-07  Convergence criterion met
 Total energy in the final basis set =     -317.4903274343
   10    -317.4903314573      6.34e-07  Convergence criterion met
 Total energy in the final basis set =     -317.4903314573
   10    -317.4903331091      6.36e-07  Convergence criterion met
 Total energy in the final basis set =     -317.4903331091

             Standard Nuclear Orientation (Angstroms)
    I     Atom           X                Y                Z
 ----------------------------------------------------------------
    1      F      -0.0607083335    -0.9739114316     0.4811802233
    2      F       0.4996816982    -0.8313842433    -2.1144536765
    3      C      -0.5709347631     0.3149330825     0.7051763183
    4      C       0.3870682919     1.2191356422     1.3181378012
    5      C      -1.5957022534     0.6812523689    -0.3087694124
    6      H       0.3948168321    -1.0902290798    -1.2227005238
    7      H       1.1666253460     1.7016923492     0.7261739226
    8      H       0.4089645111     1.3797377991     2.3928700394
    9      H      -2.4209722258    -0.0403625646    -0.3072207628
   10      H      -1.9999552946     1.6747141937    -0.1020419895
   11      H      -1.1551838089     0.6748218836    -1.3166499400
 ----------------------------------------------------------------

   10    -317.4903335343      6.37e-07  Convergence criterion met
 Total energy in the final basis set =     -317.4903335343

                    Orbital Energies (a.u.)
 --------------------------------------------------------------

 Alpha MOs
 -- Occupied --
-24.719 -24.643 -10.282 -10.226 -10.198  -1.219  -1.147  -0.803
 -0.718  -0.600  -0.520  -0.501  -0.485  -0.475  -0.435  -0.415
 -0.407  -0.376  -0.359  -0.358  -0.252  -0.207

 Beta MOs
 -- Occupied --
-24.714 -24.643 -10.268 -10.212 -10.198  -1.208  -1.147  -0.774
 -0.693  -0.579  -0.512  -0.486  -0.464  -0.458  -0.420  -0.405
 -0.402  -0.367  -0.359  -0.357

          Ground-State Mulliken Net Atomic Charges

     Atom                 Charge (a.u.)    Spin (a.u.)
  --------------------------------------------------------
      1 F                    -0.301342       0.082628
      2 F                    -0.384686       0.000897
      3 C                     0.293142       0.878127
      4 C                    -0.251397       1.002110
      5 C                    -0.385393      -0.050841
      6 H                     0.353184       0.003787
      7 H                     0.131897       0.012976
      8 H                     0.135519      -0.018166
      9 H                     0.134771       0.028549
     10 H                     0.124205       0.001531
     11 H                     0.150100       0.058402
  --------------------------------------------------------
  Sum of atomic charges =    -0.000000

                    Cartesian Multipole Moments
 -----------------------------------------------------------------
    Charge (ESU x 10^10)
                -0.0000
    Dipole Moment (Debye)
         X      -0.7133      Y       1.4475      Z       1.9560
       Tot       2.5357
    Quadrupole Moments (Debye-Ang)
        XX     -27.8791     XY       0.3452     YY     -28.3835
        XZ       1.9344     YZ      -0.0387     ZZ     -33.7079

 Final energy is   -317.490333534271
 **  OPTIMIZATION CONVERGED  **
 Total job time:  76.39s(wall), 884.45s(cpu)
        *  Thank you very much for using Q-Chem.  Have a nice day.  *
