 Q-Chem 5.1, Q-Chem, Inc., Pleasanton, CA (2018)
 Q-Chem 5.1.1 for Intel X86 EM64T Linux

User input:
--------------------------------------------------------------

$comment
potential surface scanner
$end

$rem
JOBTYPE  PES_SCAN
UNRESTRICTED TRUE
SYM_IGNORE  TRUE
GEOM_OPT_MAX_CYCLES 400
SCF_MAX_CYCLES 400
METHOD   B3LYP
BASIS   6-31G**
PDB_PRINT 2
SCF_CONVERGENCE 6
THRESH 14
SCF_PRINT 1
$end
$molecule
0 3
F -0.479080 -1.144919 0.383415
F 1.279762 -0.256240 -1.236513
C -0.723579 0.226946 0.601160
C 0.481626 0.980715 0.906598
C -1.833865 0.710478 -0.261103
H 0.811994 -0.888596 -0.730799
H 1.133418 1.354097 0.126230
H 0.728864 1.216977 1.939330
H -2.699129 0.042775 -0.200271
H -2.139843 1.716745 0.036215
H -1.506469 0.751424 -1.312553
$end
$scan
stre 2 4 2.500000 2.501000 0.100000
$end
--------------------------------------------------------------

   10    -317.4855332627      6.76e-07  Convergence criterion met
 Total energy in the final basis set =     -317.4855332627
   10    -317.4817419543      6.86e-07  Convergence criterion met
 Total energy in the final basis set =     -317.4817419543
   10    -317.4821263071      6.99e-07  Convergence criterion met
 Total energy in the final basis set =     -317.4821263071
   10    -317.4822422012      7.02e-07  Convergence criterion met
 Total energy in the final basis set =     -317.4822422012
   10    -317.4822867793      7.00e-07  Convergence criterion met
 Total energy in the final basis set =     -317.4822867793
   10    -317.4823490701      6.98e-07  Convergence criterion met
 Total energy in the final basis set =     -317.4823490701
   10    -317.4824464991      6.95e-07  Convergence criterion met
 Total energy in the final basis set =     -317.4824464991
   10    -317.4826147347      6.96e-07  Convergence criterion met
   10    -317.4858753295      6.42e-07  Convergence criterion met
 Total energy in the final basis set =     -317.4858753295
   10    -317.4858809644      6.44e-07  Convergence criterion met
 Total energy in the final basis set =     -317.4858809644
   10    -317.4858835842      6.44e-07  Convergence criterion met
 Total energy in the final basis set =     -317.4858835842
   10    -317.4858853648      6.44e-07  Convergence criterion met
 Total energy in the final basis set =     -317.4858853648
   10    -317.4858869617      6.43e-07  Convergence criterion met
 Total energy in the final basis set =     -317.4858869617
   10    -317.4858881854      6.42e-07  Convergence criterion met
 Total energy in the final basis set =     -317.4858881854

             Standard Nuclear Orientation (Angstroms)
    I     Atom           X                Y                Z
 ----------------------------------------------------------------
    1      F      -0.5000164047    -0.9676936479    -0.4290957016
    2      F       2.0712525319    -0.7736103946    -0.1195987857
    3      C      -0.7403955315     0.2531192193     0.2381620321
    4      C       0.4557420483     1.0285917845     0.5066551537
    5      C      -2.0719898981     0.8028012686    -0.1301020194
    6      H       1.2183093925    -1.0968723136    -0.3274031879
    7      H       0.9273950398     1.6305881002    -0.2698239754
    8      H       0.9564579974     0.9847889713     1.4679762763
    9      H      -2.8455016535     0.0313928284    -0.0562094859
   10      H      -2.3345696737     1.6299484222     0.5344507376
   11      H      -2.0829848484     1.1873477616    -1.1633020439
 ----------------------------------------------------------------

   10    -317.4858891382      6.41e-07  Convergence criterion met
 Total energy in the final basis set =     -317.4858891382

                    Orbital Energies (a.u.)
 --------------------------------------------------------------

 Alpha MOs
 -- Occupied --
-24.716 -24.644 -10.278 -10.211 -10.202  -1.215  -1.149  -0.800
 -0.715  -0.595  -0.521  -0.493  -0.489  -0.467  -0.428  -0.415
 -0.406  -0.378  -0.369  -0.360  -0.229  -0.204

 Beta MOs
 -- Occupied --
-24.711 -24.643 -10.264 -10.202 -10.198  -1.203  -1.146  -0.773
 -0.688  -0.574  -0.515  -0.476  -0.460  -0.456  -0.412  -0.405
 -0.400  -0.368  -0.359  -0.358

          Ground-State Mulliken Net Atomic Charges

     Atom                 Charge (a.u.)    Spin (a.u.)
  --------------------------------------------------------
      1 F                    -0.307987       0.089560
      2 F                    -0.370943       0.025808
      3 C                     0.285754       0.887233
      4 C                    -0.256442       0.954444
      5 C                    -0.365895      -0.053643
      6 H                     0.357149       0.002904
      7 H                     0.128060       0.015918
      8 H                     0.139102      -0.015349
      9 H                     0.134381       0.022821
     10 H                     0.130416       0.004286
     11 H                     0.126404       0.066017
  --------------------------------------------------------
  Sum of atomic charges =     0.000000

                    Cartesian Multipole Moments
 -----------------------------------------------------------------
    Charge (ESU x 10^10)
                 0.0000
    Dipole Moment (Debye)
         X      -2.1237      Y       1.2492      Z       0.0026
       Tot       2.4639
    Quadrupole Moments (Debye-Ang)
        XX     -31.8761     XY       0.3637     YY     -28.3966
        XZ       0.3468     YZ       0.0356     ZZ     -28.5410

 Final energy is   -317.485889138219
 **  OPTIMIZATION CONVERGED  **
 Total job time:  88.35s(wall), 1031.19s(cpu)
        *  Thank you very much for using Q-Chem.  Have a nice day.  *
