 Q-Chem 5.1, Q-Chem, Inc., Pleasanton, CA (2018)
 Q-Chem 5.1.1 for Intel X86 EM64T Linux

User input:
--------------------------------------------------------------

$comment
potential surface scanner
$end

$rem
JOBTYPE  PES_SCAN
UNRESTRICTED TRUE
SYM_IGNORE  TRUE
GEOM_OPT_MAX_CYCLES 400
SCF_MAX_CYCLES 400
METHOD   B3LYP
BASIS   6-31G**
PDB_PRINT 2
SCF_CONVERGENCE 6
THRESH 14
SCF_PRINT 1
$end
$molecule
0 3
F -0.177834 -1.024714 0.500404
F 0.684861 -0.656093 -1.967050
C -0.618912 0.294244 0.701137
C 0.408085 1.169989 1.239010
C -1.650435 0.679074 -0.298782
H 0.474213 -1.024140 -1.134111
H 1.184385 1.582296 0.592229
H 0.486609 1.368422 2.304500
H -2.492366 -0.022111 -0.280933
H -2.026576 1.684129 -0.094307
H -1.218326 0.659304 -1.310394
$end
$scan
stre 2 4 3.600000 3.601000 0.100000
$end
--------------------------------------------------------------

   10    -317.4906031553      6.34e-07  Convergence criterion met
 Total energy in the final basis set =     -317.4906031553
   10    -317.4905537651      6.34e-07  Convergence criterion met
 Total energy in the final basis set =     -317.4905537651
   10    -317.4906660302      6.32e-07  Convergence criterion met
 Total energy in the final basis set =     -317.4906660302
   10    -317.4907114301      6.32e-07  Convergence criterion met
 Total energy in the final basis set =     -317.4907114301
   10    -317.4907150968      6.32e-07  Convergence criterion met
 Total energy in the final basis set =     -317.4907150968
   10    -317.4907172048      6.33e-07  Convergence criterion met
 Total energy in the final basis set =     -317.4907172048
   10    -317.4907188362      6.35e-07  Convergence criterion met
 Total energy in the final basis set =     -317.4907188362
   10    -317.4907201424      6.37e-07  Convergence criterion met
 Total energy in the final basis set =     -317.4907201424

             Standard Nuclear Orientation (Angstroms)
    I     Atom           X                Y                Z
 ----------------------------------------------------------------
    1      F      -0.2156766131    -1.0383472367     0.5058836522
    2      F       0.7422363248    -0.6007127313    -1.9141448706
    3      C      -0.6371986710     0.2875405923     0.7038846519
    4      C       0.4134259763     1.1534639387     1.2123147040
    5      C      -1.6678761908     0.6796791356    -0.2945161750
    6      H       0.5035229164    -1.0049258436    -1.1060932615
    7      H       1.1848014468     1.5394238221     0.5437415534
    8      H       0.5156607782     1.3649950898     2.2730984291
    9      H      -2.5123160226    -0.0182123751    -0.2787947522
   10      H      -2.0392897934     1.6861426908    -0.0883174032
   11      H      -1.2335861517     0.6613529173    -1.3053535281
 ----------------------------------------------------------------

   10    -317.4907209305      6.38e-07  Convergence criterion met
 Total energy in the final basis set =     -317.4907209305

                    Orbital Energies (a.u.)
 --------------------------------------------------------------

 Alpha MOs
 -- Occupied --
-24.718 -24.646 -10.281 -10.224 -10.197  -1.218  -1.149  -0.802
 -0.717  -0.599  -0.523  -0.500  -0.482  -0.476  -0.434  -0.415
 -0.406  -0.374  -0.362  -0.360  -0.251  -0.208

 Beta MOs
 -- Occupied --
-24.713 -24.646 -10.267 -10.210 -10.197  -1.207  -1.149  -0.774
 -0.691  -0.577  -0.514  -0.485  -0.465  -0.457  -0.419  -0.405
 -0.401  -0.365  -0.361  -0.359

          Ground-State Mulliken Net Atomic Charges

     Atom                 Charge (a.u.)    Spin (a.u.)
  --------------------------------------------------------
      1 F                    -0.303207       0.082452
      2 F                    -0.384385       0.000608
      3 C                     0.289444       0.879460
      4 C                    -0.251653       1.002705
      5 C                    -0.379964      -0.049460
      6 H                     0.353731       0.004163
      7 H                     0.135973       0.012303
      8 H                     0.134633      -0.019720
      9 H                     0.132993       0.025545
     10 H                     0.124974       0.001962
     11 H                     0.147461       0.059981
  --------------------------------------------------------
  Sum of atomic charges =    -0.000000

                    Cartesian Multipole Moments
 -----------------------------------------------------------------
    Charge (ESU x 10^10)
                 0.0000
    Dipole Moment (Debye)
         X      -0.8798      Y       1.1604      Z       1.6760
       Tot       2.2203
    Quadrupole Moments (Debye-Ang)
        XX     -28.1315     XY       0.1236     YY     -28.2605
        XZ       2.5511     YZ       0.6912     ZZ     -32.8611

 Final energy is   -317.490720930452
 **  OPTIMIZATION CONVERGED  **
 Total job time:  28.21s(wall), 323.86s(cpu)
        *  Thank you very much for using Q-Chem.  Have a nice day.  *
