 Q-Chem 5.1, Q-Chem, Inc., Pleasanton, CA (2018)
 Q-Chem 5.1.1 for Intel X86 EM64T Linux

User input:
--------------------------------------------------------------

$comment
potential surface scanner
$end

$rem
JOBTYPE  PES_SCAN
UNRESTRICTED TRUE
SYM_IGNORE  TRUE
GEOM_OPT_MAX_CYCLES 400
SCF_MAX_CYCLES 400
METHOD   B3LYP
BASIS   6-31G**
PDB_PRINT 2
SCF_CONVERGENCE 6
THRESH 14
SCF_PRINT 1
$end
$molecule
0 3
F -0.525805 -1.034499 -0.451148
F 1.893943 -0.562745 -0.053621
C -0.708568 0.209112 0.228902
C 0.518775 0.934449 0.472995
C -2.029515 0.790999 -0.127216
H 1.142505 -1.053066 -0.335551
H 0.932033 1.606903 -0.277150
H 0.957828 0.976321 1.463218
H -2.823632 0.041138 -0.047993
H -2.264533 1.624822 0.539333
H -2.039333 1.176971 -1.160060
$end
$scan
stre 2 4 2.000000 2.001000 0.100000
$end
--------------------------------------------------------------

   10    -317.4702288873      7.64e-07  Convergence criterion met
 Total energy in the final basis set =     -317.4702288873
   10    -317.4619845856      8.10e-07  Convergence criterion met
 Total energy in the final basis set =     -317.4619845856
   10    -317.4619912783      8.12e-07  Convergence criterion met
 Total energy in the final basis set =     -317.4619912783
   10    -317.4620333051      8.19e-07  Convergence criterion met
 Total energy in the final basis set =     -317.4620333051
   10    -317.4620422462      8.26e-07  Convergence criterion met
 Total energy in the final basis set =     -317.4620422462
   10    -317.4620444465      8.30e-07  Convergence criterion met
 Total energy in the final basis set =     -317.4620444465

             Standard Nuclear Orientation (Angstroms)
    I     Atom           X                Y                Z
 ----------------------------------------------------------------
    1      F      -0.5298464258    -1.0531456539    -0.4509985665
    2      F       1.8455219166    -0.5146077709    -0.0470923517
    3      C      -0.6995982989     0.2013957971     0.2317967692
    4      C       0.5375912368     0.9087482325     0.4661096394
    5      C      -2.0172524441     0.7880246197    -0.1270985891
    6      H       1.1207247650    -1.0427327998    -0.3395922749
    7      H       0.9266627559     1.6075468443    -0.2731521340
    8      H       0.9581544856     0.9757654806     1.4632417884
    9      H      -2.8157821903     0.0428837123    -0.0473110112
   10      H      -2.2487955638     1.6250037896     0.5367478356
   11      H      -2.0236822370     1.1715227485    -1.1609421052
 ----------------------------------------------------------------

   10    -317.4620453905      8.31e-07  Convergence criterion met
 Total energy in the final basis set =     -317.4620453905

                    Orbital Energies (a.u.)
 --------------------------------------------------------------

 Alpha MOs
 -- Occupied --
-24.704 -24.670 -10.268 -10.196 -10.194  -1.204  -1.175  -0.792
 -0.706  -0.583  -0.545  -0.484  -0.479  -0.459  -0.422  -0.413
 -0.404  -0.398  -0.379  -0.372  -0.198  -0.179

 Beta MOs
 -- Occupied --
-24.699 -24.665 -10.254 -10.196 -10.181  -1.193  -1.165  -0.766
 -0.681  -0.562  -0.540  -0.464  -0.451  -0.447  -0.408  -0.398
 -0.392  -0.382  -0.372  -0.362

          Ground-State Mulliken Net Atomic Charges

     Atom                 Charge (a.u.)    Spin (a.u.)
  --------------------------------------------------------
      1 F                    -0.330306       0.084057
      2 F                    -0.315257       0.069699
      3 C                     0.275335       0.919418
      4 C                    -0.250176       0.867736
      5 C                    -0.362844      -0.055934
      6 H                     0.363633       0.010347
      7 H                     0.114329       0.020446
      8 H                     0.124871      -0.010359
      9 H                     0.129938       0.024017
     10 H                     0.127937       0.004786
     11 H                     0.122541       0.065787
  --------------------------------------------------------
  Sum of atomic charges =    -0.000000

                    Cartesian Multipole Moments
 -----------------------------------------------------------------
    Charge (ESU x 10^10)
                -0.0000
    Dipole Moment (Debye)
         X      -1.2426      Y       0.7289      Z      -0.1611
       Tot       1.4496
    Quadrupole Moments (Debye-Ang)
        XX     -30.3636     XY      -0.9274     YY     -28.3947
        XZ      -0.0552     YZ       0.0933     ZZ     -28.7402

 Final energy is   -317.462045390547
 **  OPTIMIZATION CONVERGED  **
 Total job time:  23.28s(wall), 253.95s(cpu)
        *  Thank you very much for using Q-Chem.  Have a nice day.  *
