 Q-Chem 5.1, Q-Chem, Inc., Pleasanton, CA (2018)
 Q-Chem 5.1.1 for Intel X86 EM64T Linux

User input:
--------------------------------------------------------------

$comment
potential surface scanner
$end

$rem
JOBTYPE  PES_SCAN
UNRESTRICTED TRUE
SYM_IGNORE  TRUE
GEOM_OPT_MAX_CYCLES 400
SCF_MAX_CYCLES 400
METHOD   B3LYP
BASIS   6-31G**
PDB_PRINT 2
SCF_CONVERGENCE 6
THRESH 14
SCF_PRINT 1
$end
$molecule
0 3
F -0.101223 -0.991997 0.487745
F 0.565096 -0.770207 -2.067758
C -0.586777 0.308152 0.703287
C 0.394715 1.202857 1.292003
C -1.614879 0.679995 -0.305195
H 0.421050 -1.067551 -1.193642
H 1.174900 1.662053 0.682618
H 0.433908 1.376318 2.364185
H -2.447410 -0.032935 -0.294457
H -2.007141 1.679057 -0.102173
H -1.178537 0.664657 -1.314912
$end
$scan
stre 2 4 3.800000 3.801000 0.100000
$end
--------------------------------------------------------------

   10    -317.4904257034      6.34e-07  Convergence criterion met
 Total energy in the final basis set =     -317.4904257034
   10    -317.4903169784      6.35e-07  Convergence criterion met
 Total energy in the final basis set =     -317.4903169784
   10    -317.4904528679      6.32e-07  Convergence criterion met
 Total energy in the final basis set =     -317.4904528679
   10    -317.4905014610      6.31e-07  Convergence criterion met
 Total energy in the final basis set =     -317.4905014610
   10    -317.4905052959      6.31e-07  Convergence criterion met
 Total energy in the final basis set =     -317.4905052959
   10    -317.4905071398      6.32e-07  Convergence criterion met
 Total energy in the final basis set =     -317.4905071398
   10    -317.4905085895      6.34e-07  Convergence criterion met
 Total energy in the final basis set =     -317.4905085895
   10    -317.4905102324      6.35e-07  Convergence criterion met
 Total energy in the final basis set =     -317.4905102324
   10    -317.4905113297      6.37e-07  Convergence criterion met
 Total energy in the final basis set =     -317.4905113297

             Standard Nuclear Orientation (Angstroms)
    I     Atom           X                Y                Z
 ----------------------------------------------------------------
    1      F      -0.1417923545    -1.0089885260     0.4972860529
    2      F       0.6205866216    -0.7140388586    -2.0182689336
    3      C      -0.6054923485     0.3006566090     0.7056639630
    4      C       0.4015839244     1.1864912853     1.2650258797
    5      C      -1.6317611555     0.6800065604    -0.3020052852
    6      H       0.4475807605    -1.0471318610    -1.1623497054
    7      H       1.1783095093     1.6212813612     0.6337256416
    8      H       0.4637078434     1.3745866915     2.3335229193
    9      H      -2.4652967718    -0.0314861985    -0.2964354930
   10      H      -2.0219542935     1.6789320700    -0.0942043893
   11      H      -1.1917697353     0.6700898668    -1.3102596499
 ----------------------------------------------------------------

   10    -317.4905119141      6.37e-07  Convergence criterion met
 Total energy in the final basis set =     -317.4905119141

                    Orbital Energies (a.u.)
 --------------------------------------------------------------

 Alpha MOs
 -- Occupied --
-24.719 -24.644 -10.282 -10.225 -10.197  -1.219  -1.148  -0.803
 -0.718  -0.600  -0.521  -0.501  -0.483  -0.475  -0.434  -0.415
 -0.406  -0.375  -0.360  -0.359  -0.252  -0.208

 Beta MOs
 -- Occupied --
-24.714 -24.644 -10.267 -10.212 -10.197  -1.207  -1.147  -0.774
 -0.692  -0.578  -0.513  -0.486  -0.464  -0.458  -0.420  -0.405
 -0.401  -0.366  -0.360  -0.358

          Ground-State Mulliken Net Atomic Charges

     Atom                 Charge (a.u.)    Spin (a.u.)
  --------------------------------------------------------
      1 F                    -0.302206       0.082416
      2 F                    -0.384903       0.000742
      3 C                     0.291238       0.878976
      4 C                    -0.251332       1.002451
      5 C                    -0.383094      -0.050092
      6 H                     0.353571       0.004018
      7 H                     0.133780       0.012610
      8 H                     0.135228      -0.019010
      9 H                     0.133798       0.026816
     10 H                     0.124530       0.001796
     11 H                     0.149389       0.059276
  --------------------------------------------------------
  Sum of atomic charges =    -0.000000

                    Cartesian Multipole Moments
 -----------------------------------------------------------------
    Charge (ESU x 10^10)
                -0.0000
    Dipole Moment (Debye)
         X      -0.7960      Y       1.3059      Z       1.8282
       Tot       2.3835
    Quadrupole Moments (Debye-Ang)
        XX     -27.9832     XY       0.2605     YY     -28.2987
        XZ       2.2755     YZ       0.3412     ZZ     -33.3153

 Final energy is   -317.490511914114
 **  OPTIMIZATION CONVERGED  **
 Total job time:  32.66s(wall), 371.43s(cpu)
        *  Thank you very much for using Q-Chem.  Have a nice day.  *
