 Q-Chem 5.1, Q-Chem, Inc., Pleasanton, CA (2018)
 Q-Chem 5.1.1 for Intel X86 EM64T Linux

User input:
--------------------------------------------------------------

$comment
potential surface scanner
$end

$rem
JOBTYPE  PES_SCAN
UNRESTRICTED TRUE
SYM_IGNORE  TRUE
GEOM_OPT_MAX_CYCLES 400
SCF_MAX_CYCLES 400
METHOD   B3LYP
BASIS   6-31G**
PDB_PRINT 2
SCF_CONVERGENCE 6
THRESH 14
SCF_PRINT 1
$end
$molecule
0 1
F -0.530754 -1.308048 0.248863
F 2.137782 -0.021757 -0.406596
C -0.459943 -0.020760 -0.271065
C 0.680012 0.700216 0.363898
C -1.789052 0.684642 -0.005546
H -0.265773 -0.096383 -1.346457
H 0.800755 1.742777 0.086385
H 0.858421 0.475210 1.411202
H -1.966002 0.796446 1.068399
H -1.811879 1.673679 -0.472344
H -2.599866 0.084377 -0.425037
$end
$scan
stre 2 4 1.900000 1.901000 0.100000
$end
--------------------------------------------------------------

   10    -317.5604287467      2.11e-07  Convergence criterion met
 Total energy in the final basis set =     -317.5604287467
   10    -317.5447649010      3.17e-07  Convergence criterion met
 Total energy in the final basis set =     -317.5447649010
   10    -317.5443535341      3.22e-07  Convergence criterion met
 Total energy in the final basis set =     -317.5443535341
   10    -317.5445121406      3.24e-07  Convergence criterion met
 Total energy in the final basis set =     -317.5445121406
   10    -317.5445158203      3.25e-07  Convergence criterion met
 Total energy in the final basis set =     -317.5445158203
   10    -317.5445177350      3.25e-07  Convergence criterion met
 Total energy in the final basis set =     -317.5445177350
   10    -317.5445191543      3.25e-07  Convergence criterion met
 Total energy in the final basis set =     -317.5445191543
   10    -317.5445208710      3.25e-07  Convergence criterion met
 Total energy in the final basis set =     -317.5445208710
   10    -317.5445220467      3.25e-07  Convergence criterion met
 Total energy in the final basis set =     -317.5445220467

             Standard Nuclear Orientation (Angstroms)
    I     Atom           X                Y                Z
 ----------------------------------------------------------------
    1      F      -0.5391523735    -1.3020095212     0.2689111259
    2      F       2.1851321258    -0.0346952687    -0.4658436290
    3      C      -0.4646002878    -0.0187943266    -0.2568548889
    4      C       0.6595148137     0.7113447410     0.3861627848
    5      C      -1.8000171044     0.6863595122    -0.0111694432
    6      H      -0.2559947591    -0.0965312227    -1.3292580182
    7      H       0.7996132077     1.7493005760     0.1045796556
    8      H       0.8818943665     0.4598592404     1.4179886975
    9      H      -1.9918881571     0.8015195067     1.0597092263
   10      H      -1.8185723986     1.6730481319    -0.4827135635
   11      H      -2.6022284332     0.0809976310    -0.4398099473
 ----------------------------------------------------------------

   10    -317.5445224646      3.26e-07  Convergence criterion met
 Total energy in the final basis set =     -317.5445224646

                    Orbital Energies (a.u.)
 --------------------------------------------------------------

 Alpha MOs
 -- Occupied --
-24.684 -24.608 -10.290 -10.288 -10.210  -1.193  -1.039  -0.817
 -0.719  -0.621  -0.530  -0.494  -0.477  -0.447  -0.420  -0.411
 -0.365  -0.353  -0.333  -0.300  -0.299

 Beta MOs
 -- Occupied --
-24.684 -24.608 -10.290 -10.288 -10.210  -1.193  -1.039  -0.817
 -0.719  -0.621  -0.530  -0.494  -0.477  -0.447  -0.420  -0.411
 -0.365  -0.353  -0.333  -0.300  -0.299

          Ground-State Mulliken Net Atomic Charges

     Atom                 Charge (a.u.)    Spin (a.u.)
  --------------------------------------------------------
      1 F                    -0.312548       0.000000
      2 F                    -0.380300       0.000000
      3 C                     0.233231      -0.000000
      4 C                    -0.016327      -0.000000
      5 C                    -0.361520       0.000000
      6 H                     0.134744       0.000000
      7 H                     0.150311       0.000000
      8 H                     0.165830       0.000000
      9 H                     0.125609      -0.000000
     10 H                     0.117844      -0.000000
     11 H                     0.143127      -0.000000
  --------------------------------------------------------
  Sum of atomic charges =     0.000000

                    Cartesian Multipole Moments
 -----------------------------------------------------------------
    Charge (ESU x 10^10)
                 0.0000
    Dipole Moment (Debye)
         X      -3.2112      Y       2.7300      Z       0.7973
       Tot       4.2895
    Quadrupole Moments (Debye-Ang)
        XX     -34.8405     XY       0.0654     YY     -28.7576
        XZ       2.8127     YZ       0.8727     ZZ     -27.2222

 Final energy is   -317.544522464633
 **  OPTIMIZATION CONVERGED  **
 Total job time:  31.60s(wall), 361.41s(cpu)
        *  Thank you very much for using Q-Chem.  Have a nice day.  *
