 Q-Chem 5.1, Q-Chem, Inc., Pleasanton, CA (2018)
 Q-Chem 5.1.1 for Intel X86 EM64T Linux

User input:
--------------------------------------------------------------

$comment
potential surface scanner
$end

$rem
JOBTYPE  PES_SCAN
UNRESTRICTED TRUE
SYM_IGNORE  TRUE
GEOM_OPT_MAX_CYCLES 400
SCF_MAX_CYCLES 400
METHOD   B3LYP
BASIS   6-31G**
PDB_PRINT 2
SCF_CONVERGENCE 6
THRESH 14
SCF_PRINT 1
$end
$molecule
0 3
F -0.283585 -1.062763 0.510329
F 0.854394 -0.496884 -1.801383
C -0.667854 0.275950 0.702078
C 0.423964 1.120424 1.158186
C -1.702306 0.681425 -0.287309
H 0.561695 -0.962452 -1.045868
H 1.185292 1.454338 0.451645
H 0.569083 1.352739 2.209290
H -2.552570 -0.008792 -0.269269
H -2.062458 1.690966 -0.075861
H -1.271951 0.665450 -1.300133
$end
$scan
stre 2 4 3.300000 3.301000 0.100000
$end
--------------------------------------------------------------

   10    -317.4910206409      6.40e-07  Convergence criterion met
 Total energy in the final basis set =     -317.4910206409
   10    -317.4910574677      6.38e-07  Convergence criterion met
 Total energy in the final basis set =     -317.4910574677
   10    -317.4911432598      6.37e-07  Convergence criterion met
 Total energy in the final basis set =     -317.4911432598
   10    -317.4911729246      6.38e-07  Convergence criterion met
 Total energy in the final basis set =     -317.4911729246
   10    -317.4911753364      6.38e-07  Convergence criterion met
 Total energy in the final basis set =     -317.4911753364
   10    -317.4911767249      6.39e-07  Convergence criterion met
 Total energy in the final basis set =     -317.4911767249
   10    -317.4911778509      6.40e-07  Convergence criterion met
 Total energy in the final basis set =     -317.4911778509

             Standard Nuclear Orientation (Angstroms)
    I     Atom           X                Y                Z
 ----------------------------------------------------------------
    1      F      -0.3142306823    -1.0735162585     0.5082115831
    2      F       0.9092243068    -0.4488835627    -1.7415376241
    3      C      -0.6809454740     0.2707913908     0.6988430860
    4      C       0.4294947051     1.1037409189     1.1306075508
    5      C      -1.7193100958     0.6828462045    -0.2837821480
    6      H       0.5902321279    -0.9414581606    -1.0142902630
    7      H       1.1848817258     1.4139037990     0.4075205472
    8      H       0.5938549432     1.3445297203     2.1768645115
    9      H      -2.5721052022    -0.0039254869    -0.2630590690
   10      H      -2.0738467188     1.6936968865    -0.0689193050
   11      H      -1.2935456358     0.6686755488    -1.2987538694
 ----------------------------------------------------------------

   10    -317.4911787695      6.41e-07  Convergence criterion met
 Total energy in the final basis set =     -317.4911787695

                    Orbital Energies (a.u.)
 --------------------------------------------------------------

 Alpha MOs
 -- Occupied --
-24.716 -24.649 -10.280 -10.221 -10.197  -1.216  -1.152  -0.802
 -0.716  -0.597  -0.524  -0.498  -0.480  -0.478  -0.433  -0.414
 -0.405  -0.373  -0.365  -0.364  -0.249  -0.209

 Beta MOs
 -- Occupied --
-24.712 -24.649 -10.266 -10.208 -10.197  -1.205  -1.152  -0.774
 -0.690  -0.575  -0.516  -0.483  -0.465  -0.456  -0.418  -0.404
 -0.400  -0.365  -0.364  -0.361

          Ground-State Mulliken Net Atomic Charges

     Atom                 Charge (a.u.)    Spin (a.u.)
  --------------------------------------------------------
      1 F                    -0.305010       0.083078
      2 F                    -0.381911       0.000453
      3 C                     0.286445       0.879654
      4 C                    -0.253356       1.003131
      5 C                    -0.374354      -0.048407
      6 H                     0.354168       0.004313
      7 H                     0.139630       0.011653
      8 H                     0.132897      -0.020946
      9 H                     0.132230       0.023425
     10 H                     0.125772       0.002329
     11 H                     0.143489       0.061318
  --------------------------------------------------------
  Sum of atomic charges =     0.000000

                    Cartesian Multipole Moments
 -----------------------------------------------------------------
    Charge (ESU x 10^10)
                -0.0000
    Dipole Moment (Debye)
         X      -0.9796      Y       0.9623      Z       1.4144
       Tot       1.9713
    Quadrupole Moments (Debye-Ang)
        XX     -28.3811     XY      -0.1676     YY     -28.3160
        XZ       2.7961     YZ       1.0844     ZZ     -32.1393

 Final energy is   -317.491178769467
 **  OPTIMIZATION CONVERGED  **
 Total job time:  25.59s(wall), 291.18s(cpu)
        *  Thank you very much for using Q-Chem.  Have a nice day.  *
