 Q-Chem 5.1, Q-Chem, Inc., Pleasanton, CA (2018)
 Q-Chem 5.1.1 for Intel X86 EM64T Linux

User input:
--------------------------------------------------------------

$comment
potential surface scanner
$end

$rem
JOBTYPE  PES_SCAN
UNRESTRICTED TRUE
SYM_IGNORE  TRUE
GEOM_OPT_MAX_CYCLES 400
SCF_MAX_CYCLES 400
METHOD   B3LYP
BASIS   6-31G**
PDB_PRINT 2
SCF_CONVERGENCE 6
THRESH 14
SCF_PRINT 1
$end
$molecule
0 1
F -0.772842 -1.154824 0.942778
F 0.495315 -0.266029 -2.298509
C -0.558951 0.153145 0.659639
C 0.524166 0.754683 1.153638
C -1.632963 0.718803 -0.209347
H 0.788995 -0.075195 -1.435845
H 0.704328 1.803657 0.954821
H 1.223255 0.214135 1.780475
H -2.614037 0.541833 0.242750
H -1.494519 1.792193 -0.352026
H -1.609049 0.228004 -1.186674
$end
$scan
stre 2 4 3.700000 3.701000 0.100000
$end
--------------------------------------------------------------

   10    -317.5883972063      3.70e-07  Convergence criterion met
 Total energy in the final basis set =     -317.5883972063
   10    -317.5869338274      4.35e-07  Convergence criterion met
 Total energy in the final basis set =     -317.5869338274
   10    -317.5875580965      4.08e-07  Convergence criterion met
 Total energy in the final basis set =     -317.5875580965
   10    -317.5878642295      3.74e-07  Convergence criterion met
 Total energy in the final basis set =     -317.5878642295
   10    -317.5878728316      3.77e-07  Convergence criterion met
 Total energy in the final basis set =     -317.5878728316
   10    -317.5878796354      3.78e-07  Convergence criterion met
 Total energy in the final basis set =     -317.5878796354
   10    -317.5878822977      3.78e-07  Convergence criterion met
 Total energy in the final basis set =     -317.5878822977
   10    -317.5878834261      3.77e-07  Convergence criterion met
 Total energy in the final basis set =     -317.5878834261

             Standard Nuclear Orientation (Angstroms)
    I     Atom           X                Y                Z
 ----------------------------------------------------------------
    1      F      -0.7553469303    -1.1562275292     0.9340778488
    2      F       0.4712263224    -0.2963529037    -2.3565001709
    3      C      -0.5534716108     0.1584886574     0.6710231348
    4      C       0.5149958026     0.7665218949     1.1872804939
    5      C      -1.6222355935     0.7216344961    -0.2062081205
    6      H       0.7812937072    -0.0984783064    -1.5020052574
    7      H       0.6857387972     1.8196373251     1.0026647115
    8      H       1.2130997976     0.2265669470     1.8156666644
    9      H      -2.6070121822     0.5448834198     0.2380223716
   10      H      -1.4832226820     1.7948470568    -0.3498784564
   11      H      -1.5913674281     0.2288839421    -1.1824432196
 ----------------------------------------------------------------

   10    -317.5878840209      3.77e-07  Convergence criterion met
 Total energy in the final basis set =     -317.5878840209

                    Orbital Energies (a.u.)
 --------------------------------------------------------------

 Alpha MOs
 -- Occupied --
-24.705 -24.665 -10.285 -10.199 -10.193  -1.217  -1.167  -0.801
 -0.716  -0.585  -0.518  -0.499  -0.489  -0.471  -0.420  -0.412
 -0.397  -0.377  -0.374  -0.367  -0.264

 Beta MOs
 -- Occupied --
-24.705 -24.665 -10.285 -10.199 -10.193  -1.217  -1.167  -0.801
 -0.716  -0.585  -0.518  -0.499  -0.489  -0.471  -0.420  -0.412
 -0.397  -0.377  -0.374  -0.367  -0.264

          Ground-State Mulliken Net Atomic Charges

     Atom                 Charge (a.u.)    Spin (a.u.)
  --------------------------------------------------------
      1 F                    -0.287501      -0.000000
      2 F                    -0.356757       0.000000
      3 C                     0.369052       0.000000
      4 C                    -0.334281      -0.000000
      5 C                    -0.390460       0.000000
      6 H                     0.353054       0.000000
      7 H                     0.113876      -0.000000
      8 H                     0.119879       0.000000
      9 H                     0.135818      -0.000000
     10 H                     0.122722       0.000000
     11 H                     0.154600      -0.000000
  --------------------------------------------------------
  Sum of atomic charges =    -0.000000

                    Cartesian Multipole Moments
 -----------------------------------------------------------------
    Charge (ESU x 10^10)
                -0.0000
    Dipole Moment (Debye)
         X       0.0684      Y       1.6282      Z       1.2151
       Tot       2.0327
    Quadrupole Moments (Debye-Ang)
        XX     -26.5707     XY      -0.7864     YY     -29.2088
        XZ       1.5347     YZ      -0.3684     ZZ     -35.4295

 Final energy is   -317.587884020865
 **  OPTIMIZATION CONVERGED  **
 Total job time:  29.35s(wall), 333.53s(cpu)
        *  Thank you very much for using Q-Chem.  Have a nice day.  *
