 Q-Chem 5.1, Q-Chem, Inc., Pleasanton, CA (2018)
 Q-Chem 5.1.1 for Intel X86 EM64T Linux

User input:
--------------------------------------------------------------

$comment
potential surface scanner
$end

$rem
JOBTYPE  PES_SCAN
UNRESTRICTED TRUE
SYM_IGNORE  TRUE
GEOM_OPT_MAX_CYCLES 400
SCF_MAX_CYCLES 400
METHOD   B3LYP
BASIS   6-31G**
PDB_PRINT 2
SCF_CONVERGENCE 6
THRESH 14
SCF_PRINT 1
$end
$molecule
0 1
F -0.987235 -1.132308 1.033005
F 2.007533 0.185730 -1.484308
C -0.745847 0.100947 0.529774
C 0.490350 0.599634 0.586161
C -1.976006 0.717126 -0.047058
H 1.180923 -0.010982 -1.097708
H 0.694138 1.598555 0.225005
H 1.288034 0.053997 1.075307
H -2.742162 0.818772 0.729441
H -1.763512 1.702088 -0.465795
H -2.392516 0.076843 -0.832121
$end
$scan
stre 2 4 2.700000 2.701000 0.100000
$end
--------------------------------------------------------------

   10    -317.5851301162      4.32e-07  Convergence criterion met
 Total energy in the final basis set =     -317.5851301162
   10    -317.5856526758      4.48e-07  Convergence criterion met
 Total energy in the final basis set =     -317.5856526758
   10    -317.5862809923      4.28e-07  Convergence criterion met
 Total energy in the final basis set =     -317.5862809923
   10    -317.5865153289      4.03e-07  Convergence criterion met
 Total energy in the final basis set =     -317.5865153289
   10    -317.5865212123      4.06e-07  Convergence criterion met
 Total energy in the final basis set =     -317.5865212123
   10    -317.5865236524      4.07e-07  Convergence criterion met
 Total energy in the final basis set =     -317.5865236524
   10    -317.5865343956      4.08e-07  Convergence criterion met
 Total energy in the final basis set =     -317.5865343956
   10    -317.5865405599      4.08e-07  Convergence criterion met
   10    -317.5865606268      4.07e-07  Convergence criterion met
 Total energy in the final basis set =     -317.5865606268
   10    -317.5865627050      4.07e-07  Convergence criterion met
 Total energy in the final basis set =     -317.5865627050
   10    -317.5865653270      4.08e-07  Convergence criterion met
 Total energy in the final basis set =     -317.5865653270
   10    -317.5865686465      4.08e-07  Convergence criterion met
 Total energy in the final basis set =     -317.5865686465
   10    -317.5865727790      4.08e-07  Convergence criterion met
 Total energy in the final basis set =     -317.5865727790
   10    -317.5865754398      4.07e-07  Convergence criterion met
 Total energy in the final basis set =     -317.5865754398

             Standard Nuclear Orientation (Angstroms)
    I     Atom           X                Y                Z
 ----------------------------------------------------------------
    1      F      -1.0035702670    -1.1237410790     1.0773216934
    2      F       1.8847574321     0.2336119461    -1.6385222173
    3      C      -0.7406148659     0.0979867680     0.5589629418
    4      C       0.4948442333     0.5942983909     0.6479699863
    5      C      -1.9477345571     0.7093784039    -0.0691081684
    6      H       1.1693093353    -0.0066698126    -1.0883007200
    7      H       0.7153121839     1.5829727072     0.2684673323
    8      H       1.2753972795     0.0531437493     1.1700284823
    9      H      -2.7407290797     0.8224062140     0.6781672579
   10      H      -1.7169429434     1.6878297208    -0.4930709305
   11      H      -2.3363287512     0.0591849913    -0.8602126577
 ----------------------------------------------------------------

   10    -317.5865763119      4.06e-07  Convergence criterion met
 Total energy in the final basis set =     -317.5865763119

                    Orbital Energies (a.u.)
 --------------------------------------------------------------

 Alpha MOs
 -- Occupied --
-24.715 -24.637 -10.296 -10.211 -10.196  -1.227  -1.143  -0.810
 -0.726  -0.595  -0.510  -0.503  -0.492  -0.477  -0.429  -0.419
 -0.406  -0.376  -0.356  -0.354  -0.272

 Beta MOs
 -- Occupied --
-24.715 -24.637 -10.296 -10.211 -10.196  -1.227  -1.143  -0.810
 -0.726  -0.595  -0.510  -0.503  -0.492  -0.477  -0.429  -0.419
 -0.406  -0.376  -0.356  -0.354  -0.272

          Ground-State Mulliken Net Atomic Charges

     Atom                 Charge (a.u.)    Spin (a.u.)
  --------------------------------------------------------
      1 F                    -0.282071      -0.000000
      2 F                    -0.382178       0.000000
      3 C                     0.400926       0.000000
      4 C                    -0.397784      -0.000000
      5 C                    -0.383335      -0.000000
      6 H                     0.342786       0.000000
      7 H                     0.141822      -0.000000
      8 H                     0.140640      -0.000000
      9 H                     0.143898       0.000000
     10 H                     0.131896       0.000000
     11 H                     0.143402       0.000000
  --------------------------------------------------------
  Sum of atomic charges =    -0.000000

                    Cartesian Multipole Moments
 -----------------------------------------------------------------
    Charge (ESU x 10^10)
                -0.0000
    Dipole Moment (Debye)
         X      -2.3107      Y       0.9020      Z       0.9592
       Tot       2.6595
    Quadrupole Moments (Debye-Ang)
        XX     -30.4852     XY      -2.0952     YY     -28.9494
        XZ       4.9746     YZ       1.1364     ZZ     -33.0155

 Final energy is   -317.586576311906
 **  OPTIMIZATION CONVERGED  **
 Total job time:  52.39s(wall), 598.22s(cpu)
        *  Thank you very much for using Q-Chem.  Have a nice day.  *
