 Q-Chem 5.1, Q-Chem, Inc., Pleasanton, CA (2018)
 Q-Chem 5.1.1 for Intel X86 EM64T Linux

User input:
--------------------------------------------------------------

$comment
potential surface scanner
$end

$rem
JOBTYPE  PES_SCAN
UNRESTRICTED TRUE
SYM_IGNORE  TRUE
GEOM_OPT_MAX_CYCLES 400
SCF_MAX_CYCLES 400
METHOD   B3LYP
BASIS   6-31G**
PDB_PRINT 2
SCF_CONVERGENCE 6
THRESH 14
SCF_PRINT 1
$end
$molecule
0 1
F -0.837082 -1.148366 0.995291
F 0.606582 -0.121609 -2.144936
C -0.584372 0.132284 0.639726
C 0.548229 0.708638 1.048382
C -1.667824 0.702503 -0.213358
H 0.805254 0.007957 -1.242373
H 0.755458 1.741181 0.796194
H 1.253543 0.170986 1.670771
H -2.638416 0.570978 0.274714
H -1.500134 1.764986 -0.398225
H -1.687540 0.180869 -1.174485
$end
$scan
stre 2 4 3.400000 3.401000 0.100000
$end
--------------------------------------------------------------

   10    -317.5897053231      3.51e-07  Convergence criterion met
 Total energy in the final basis set =     -317.5897053231
   10    -317.5864838200      4.29e-07  Convergence criterion met
 Total energy in the final basis set =     -317.5864838200
   10    -317.5881780281      4.00e-07  Convergence criterion met
 Total energy in the final basis set =     -317.5881780281
   10    -317.5892339137      3.45e-07  Convergence criterion met
 Total energy in the final basis set =     -317.5892339137
   10    -317.5893079440      3.56e-07  Convergence criterion met
 Total energy in the final basis set =     -317.5893079440
   10    -317.5893118695      3.55e-07  Convergence criterion met
 Total energy in the final basis set =     -317.5893118695
   10    -317.5893154502      3.54e-07  Convergence criterion met
 Total energy in the final basis set =     -317.5893154502
   10    -317.5893172802      3.54e-07  Convergence criterion met
   10    -317.5893411855      3.56e-07  Convergence criterion met
 Total energy in the final basis set =     -317.5893411855
   10    -317.5893425705      3.56e-07  Convergence criterion met
 Total energy in the final basis set =     -317.5893425705
   10    -317.5893445086      3.56e-07  Convergence criterion met
 Total energy in the final basis set =     -317.5893445086
   10    -317.5893468059      3.56e-07  Convergence criterion met
 Total energy in the final basis set =     -317.5893468059
   10    -317.5893486856      3.56e-07  Convergence criterion met
 Total energy in the final basis set =     -317.5893486856
   10    -317.5893498203      3.55e-07  Convergence criterion met
 Total energy in the final basis set =     -317.5893498203

             Standard Nuclear Orientation (Angstroms)
    I     Atom           X                Y                Z
 ----------------------------------------------------------------
    1      F      -0.8077582816    -1.1529971572     0.9566599366
    2      F       0.5712658094    -0.2092701853    -2.1867142125
    3      C      -0.5757169039     0.1424595202     0.6401847254
    4      C       0.5391351142     0.7287608453     1.0811693013
    5      C      -1.6614181433     0.7151768467    -0.2083593005
    6      H       0.8185004196    -0.0264925971    -1.3064817365
    7      H       0.7304697319     1.7715739795     0.8609547534
    8      H       1.2482946575     0.1853672679     1.6941424205
    9      H      -2.6346121155     0.5519407736     0.2649433951
   10      H      -1.5131620242     1.7856274699    -0.3620138644
   11      H      -1.6613002641     0.2182602365    -1.1827844182
 ----------------------------------------------------------------

   10    -317.5893507110      3.55e-07  Convergence criterion met
 Total energy in the final basis set =     -317.5893507110

                    Orbital Energies (a.u.)
 --------------------------------------------------------------

 Alpha MOs
 -- Occupied --
-24.709 -24.657 -10.289 -10.201 -10.195  -1.221  -1.160  -0.804
 -0.718  -0.588  -0.513  -0.502  -0.492  -0.473  -0.423  -0.414
 -0.399  -0.371  -0.370  -0.369  -0.268

 Beta MOs
 -- Occupied --
-24.709 -24.657 -10.289 -10.201 -10.195  -1.221  -1.160  -0.804
 -0.718  -0.588  -0.513  -0.502  -0.492  -0.473  -0.423  -0.414
 -0.399  -0.371  -0.370  -0.369  -0.268

          Ground-State Mulliken Net Atomic Charges

     Atom                 Charge (a.u.)    Spin (a.u.)
  --------------------------------------------------------
      1 F                    -0.283169      -0.000000
      2 F                    -0.366485       0.000000
      3 C                     0.373832       0.000000
      4 C                    -0.345083      -0.000000
      5 C                    -0.386631      -0.000000
      6 H                     0.346213      -0.000000
      7 H                     0.118640       0.000000
      8 H                     0.123411      -0.000000
      9 H                     0.135470       0.000000
     10 H                     0.124480       0.000000
     11 H                     0.159322      -0.000000
  --------------------------------------------------------
  Sum of atomic charges =    -0.000000

                    Cartesian Multipole Moments
 -----------------------------------------------------------------
    Charge (ESU x 10^10)
                -0.0000
    Dipole Moment (Debye)
         X      -0.1739      Y       1.6018      Z       1.3687
       Tot       2.1141
    Quadrupole Moments (Debye-Ang)
        XX     -26.5230     XY      -0.7732     YY     -29.0903
        XZ       2.0875     YZ      -0.2048     ZZ     -35.1757

 Final energy is   -317.589350711007
 **  OPTIMIZATION CONVERGED  **
 Total job time:  70.69s(wall), 821.59s(cpu)
        *  Thank you very much for using Q-Chem.  Have a nice day.  *
