 Q-Chem 5.1, Q-Chem, Inc., Pleasanton, CA (2018)
 Q-Chem 5.1.1 for Intel X86 EM64T Linux

User input:
--------------------------------------------------------------

$comment
potential surface scanner
$end

$rem
JOBTYPE  PES_SCAN
UNRESTRICTED TRUE
SYM_IGNORE  TRUE
GEOM_OPT_MAX_CYCLES 400
SCF_MAX_CYCLES 400
METHOD   B3LYP
BASIS   6-31G**
PDB_PRINT 2
SCF_CONVERGENCE 6
THRESH 14
SCF_PRINT 1
$end
$molecule
0 1
F -0.486400 -1.298900 0.159500
F 1.889200 0.001700 -0.126500
C -0.435600 -0.028600 -0.332400
C 0.768200 0.660400 0.276200
C -1.735300 0.665500 0.023300
H -0.320900 -0.108600 -1.417700
H 0.851700 1.700600 -0.050500
H 0.742100 0.621000 1.368800
H -1.880200 0.688200 1.108400
H -1.756200 1.691300 -0.356400
H -2.582900 0.117800 -0.401000
$end
$scan
stre 2 4 1.200000 1.201000 0.100000
$end
--------------------------------------------------------------

    8    -317.6070310312      9.75e-07  Convergence criterion met
 Total energy in the final basis set =     -317.6070310312
    9    -317.5861031954      4.24e-07  Convergence criterion met
 Total energy in the final basis set =     -317.5861031954
    9    -317.5757876579      3.68e-07  Convergence criterion met
 Total energy in the final basis set =     -317.5757876579
    9    -317.5769557880      3.72e-07  Convergence criterion met
 Total energy in the final basis set =     -317.5769557880
    9    -317.5776938782      3.76e-07  Convergence criterion met
 Total energy in the final basis set =     -317.5776938782
    9    -317.5777421722      3.77e-07  Convergence criterion met
 Total energy in the final basis set =     -317.5777421722
    9    -317.5778028544      3.78e-07  Convergence criterion met
 Total energy in the final basis set =     -317.5778028544
    9    -317.5778062282      3.78e-07  Convergence criterion met
    9    -317.5778333423      3.77e-07  Convergence criterion met
 Total energy in the final basis set =     -317.5778333423
    9    -317.5778408956      3.80e-07  Convergence criterion met
 Total energy in the final basis set =     -317.5778408956
    9    -317.5778463596      3.81e-07  Convergence criterion met
 Total energy in the final basis set =     -317.5778463596
    9    -317.5778510892      3.82e-07  Convergence criterion met
 Total energy in the final basis set =     -317.5778510892
    9    -317.5778546511      3.81e-07  Convergence criterion met
 Total energy in the final basis set =     -317.5778546511
    9    -317.5778566620      3.79e-07  Convergence criterion met
 Total energy in the final basis set =     -317.5778566620

             Standard Nuclear Orientation (Angstroms)
    I     Atom           X                Y                Z
 ----------------------------------------------------------------
    1      F      -0.4887320800    -1.3557381067     0.1311582087
    2      F       1.8420112829     0.0804270396    -0.0914502007
    3      C      -0.4305835328    -0.0369667158    -0.3435603864
    4      C       0.8241708016     0.6116724208     0.2575184280
    5      C      -1.7162163821     0.6764671641     0.0277049022
    6      H      -0.3137014202    -0.0984795380    -1.4351403423
    7      H       0.7865315438     1.6886579782    -0.0181059620
    8      H       0.6856415515     0.5861541865     1.3596164380
    9      H      -1.8099039717     0.7663507836     1.1148307016
   10      H      -1.7493690357     1.6793311915    -0.4090154048
   11      H      -2.5761487573     0.1125235964    -0.3418563822
 ----------------------------------------------------------------

    9    -317.5778573430      3.78e-07  Convergence criterion met
 Total energy in the final basis set =     -317.5778573430

                    Orbital Energies (a.u.)
 --------------------------------------------------------------

 Alpha MOs
 -- Occupied --
-24.707 -24.665 -10.260 -10.259 -10.189  -1.290  -1.170  -0.785
 -0.695  -0.616  -0.548  -0.542  -0.517  -0.479  -0.439  -0.413
 -0.394  -0.381  -0.332  -0.324  -0.299

 Beta MOs
 -- Occupied --
-24.707 -24.665 -10.260 -10.259 -10.189  -1.290  -1.170  -0.785
 -0.695  -0.616  -0.548  -0.542  -0.517  -0.479  -0.439  -0.413
 -0.394  -0.381  -0.332  -0.324  -0.299

          Ground-State Mulliken Net Atomic Charges

     Atom                 Charge (a.u.)    Spin (a.u.)
  --------------------------------------------------------
      1 F                    -0.330690      -0.000000
      2 F                    -0.181148       0.000000
      3 C                     0.191567      -0.000000
      4 C                     0.128420       0.000000
      5 C                    -0.350751       0.000000
      6 H                     0.086598       0.000000
      7 H                     0.043580       0.000000
      8 H                     0.057945       0.000000
      9 H                     0.118802      -0.000000
     10 H                     0.109153      -0.000000
     11 H                     0.126525      -0.000000
  --------------------------------------------------------
  Sum of atomic charges =     0.000000

                    Cartesian Multipole Moments
 -----------------------------------------------------------------
    Charge (ESU x 10^10)
                -0.0000
    Dipole Moment (Debye)
         X      -0.7460      Y       1.8775      Z      -0.2835
       Tot       2.0401
    Quadrupole Moments (Debye-Ang)
        XX     -29.8649     XY      -0.5180     YY     -30.7251
        XZ       0.5757     YZ       0.3161     ZZ     -28.1278

 Final energy is   -317.577857343009
 **  OPTIMIZATION CONVERGED  **
 Total job time:  52.73s(wall), 611.68s(cpu)
        *  Thank you very much for using Q-Chem.  Have a nice day.  *
