 Q-Chem 5.1, Q-Chem, Inc., Pleasanton, CA (2018)
 Q-Chem 5.1.1 for Intel X86 EM64T Linux

User input:
--------------------------------------------------------------

$comment
potential surface scanner
$end

$rem
JOBTYPE  PES_SCAN
UNRESTRICTED TRUE
SYM_IGNORE  TRUE
GEOM_OPT_MAX_CYCLES 400
SCF_MAX_CYCLES 400
METHOD   B3LYP
BASIS   6-31G**
PDB_PRINT 2
SCF_CONVERGENCE 6
THRESH 14
SCF_PRINT 1
$end
$molecule
0 1
F -0.514421 -1.321153 0.208551
F 2.041347 0.003854 -0.290456
C -0.450075 -0.024620 -0.297681
C 0.724219 0.675355 0.321313
C -1.766060 0.680979 0.006362
H -0.284351 -0.095642 -1.378992
H 0.801672 1.726428 0.046302
H 0.804597 0.513709 1.395483
H -1.914821 0.781610 1.085927
H -1.795007 1.676547 -0.446700
H -2.593400 0.093334 -0.398408
$end
$scan
stre 2 4 1.700000 1.701000 0.100000
$end
--------------------------------------------------------------

    9    -317.5910867017      7.24e-07  Convergence criterion met
 Total energy in the final basis set =     -317.5910867017
    9    -317.5764100316      7.70e-07  Convergence criterion met
 Total energy in the final basis set =     -317.5764100316
    9    -317.5761877548      7.77e-07  Convergence criterion met
 Total energy in the final basis set =     -317.5761877548
    9    -317.5762816688      7.79e-07  Convergence criterion met
 Total energy in the final basis set =     -317.5762816688
    9    -317.5762858665      7.79e-07  Convergence criterion met
 Total energy in the final basis set =     -317.5762858665
    9    -317.5762882478      7.79e-07  Convergence criterion met
 Total energy in the final basis set =     -317.5762882478
    9    -317.5762900980      7.79e-07  Convergence criterion met
 Total energy in the final basis set =     -317.5762900980
    9    -317.5762927169      7.79e-07  Convergence criterion met
 Total energy in the final basis set =     -317.5762927169
    9    -317.5762941313      7.78e-07  Convergence criterion met
 Total energy in the final basis set =     -317.5762941313

             Standard Nuclear Orientation (Angstroms)
    I     Atom           X                Y                Z
 ----------------------------------------------------------------
    1      F      -0.5227311203    -1.3145326052     0.2290607235
    2      F       2.0901535791    -0.0081159251    -0.3485067750
    3      C      -0.4551383346    -0.0229176723    -0.2846131427
    4      C       0.7015386906     0.6880696332     0.3421985527
    5      C      -1.7776384654     0.6829169876     0.0002103155
    6      H      -0.2752966238    -0.0965451431    -1.3629683978
    7      H       0.8009057633     1.7351402145     0.0673653609
    8      H       0.8327373837     0.4926779593     1.4037127373
    9      H      -1.9401808242     0.7900874871     1.0770349684
   10      H      -1.8036672814     1.6748805440    -0.4605417233
   11      H      -2.5969827670     0.0887395201    -0.4112516195
 ----------------------------------------------------------------

    9    -317.5762945091      7.78e-07  Convergence criterion met
 Total energy in the final basis set =     -317.5762945091

                    Orbital Energies (a.u.)
 --------------------------------------------------------------

 Alpha MOs
 -- Occupied --
-24.679 -24.631 -10.282 -10.279 -10.204  -1.187  -1.077  -0.809
 -0.712  -0.616  -0.524  -0.487  -0.473  -0.442  -0.419  -0.407
 -0.387  -0.352  -0.340  -0.320  -0.318

 Beta MOs
 -- Occupied --
-24.679 -24.631 -10.282 -10.279 -10.204  -1.187  -1.077  -0.809
 -0.712  -0.616  -0.524  -0.487  -0.473  -0.442  -0.419  -0.407
 -0.387  -0.352  -0.340  -0.320  -0.318

          Ground-State Mulliken Net Atomic Charges

     Atom                 Charge (a.u.)    Spin (a.u.)
  --------------------------------------------------------
      1 F                    -0.316053       0.000000
      2 F                    -0.369769      -0.000000
      3 C                     0.230333       0.000000
      4 C                     0.038730      -0.000000
      5 C                    -0.359280      -0.000000
      6 H                     0.120148       0.000000
      7 H                     0.132187       0.000000
      8 H                     0.147300      -0.000000
      9 H                     0.123127       0.000000
     10 H                     0.114655       0.000000
     11 H                     0.138622       0.000000
  --------------------------------------------------------
  Sum of atomic charges =     0.000000

                    Cartesian Multipole Moments
 -----------------------------------------------------------------
    Charge (ESU x 10^10)
                 0.0000
    Dipole Moment (Debye)
         X      -2.6003      Y       2.5627      Z       0.4624
       Tot       3.6801
    Quadrupole Moments (Debye-Ang)
        XX     -33.5773     XY      -0.0423     YY     -29.1513
        XZ       2.0338     YZ       0.7435     ZZ     -27.3237

 Final energy is   -317.576294509120
 **  OPTIMIZATION CONVERGED  **
 Total job time:  29.54s(wall), 339.69s(cpu)
        *  Thank you very much for using Q-Chem.  Have a nice day.  *
