 Q-Chem 5.1, Q-Chem, Inc., Pleasanton, CA (2018)
 Q-Chem 5.1.1 for Intel X86 EM64T Linux

User input:
--------------------------------------------------------------

$comment
potential surface scanner
$end

$rem
JOBTYPE  PES_SCAN
UNRESTRICTED TRUE
SYM_IGNORE  TRUE
GEOM_OPT_MAX_CYCLES 400
SCF_MAX_CYCLES 400
METHOD   B3LYP
BASIS   6-31G**
PDB_PRINT 2
SCF_CONVERGENCE 6
THRESH 14
SCF_PRINT 1
$end
$molecule
0 1
F -0.486400 -1.298900 0.159500
F 1.889200 0.001700 -0.126500
C -0.435600 -0.028600 -0.332400
C 0.768200 0.660400 0.276200
C -1.735300 0.665500 0.023300
H -0.320900 -0.108600 -1.417700
H 0.851700 1.700600 -0.050500
H 0.742100 0.621000 1.368800
H -1.880200 0.688200 1.108400
H -1.756200 1.691300 -0.356400
H -2.582900 0.117800 -0.401000
$end
$scan
stre 2 4 1.100000 1.101000 0.100000
$end
--------------------------------------------------------------

    8    -317.6070310312      9.75e-07  Convergence criterion met
 Total energy in the final basis set =     -317.6070310312
    9    -317.5861031954      4.24e-07  Convergence criterion met
 Total energy in the final basis set =     -317.5861031954
    9    -317.5155255730      2.50e-07  Convergence criterion met
 Total energy in the final basis set =     -317.5155255730
    9    -317.5125461961      2.43e-07  Convergence criterion met
 Total energy in the final basis set =     -317.5125461961
    9    -317.5146320722      2.14e-07  Convergence criterion met
 Total energy in the final basis set =     -317.5146320722
    9    -317.5147190827      2.16e-07  Convergence criterion met
 Total energy in the final basis set =     -317.5147190827
    9    -317.5148270970      2.20e-07  Convergence criterion met
 Total energy in the final basis set =     -317.5148270970
    9    -317.5148325247      2.20e-07  Convergence criterion met
    9    -317.5148732049      2.20e-07  Convergence criterion met
 Total energy in the final basis set =     -317.5148732049
    9    -317.5148798405      2.20e-07  Convergence criterion met
 Total energy in the final basis set =     -317.5148798405
    9    -317.5148854655      2.20e-07  Convergence criterion met
 Total energy in the final basis set =     -317.5148854655
    9    -317.5148889291      2.21e-07  Convergence criterion met
 Total energy in the final basis set =     -317.5148889291
    9    -317.5148910336      2.21e-07  Convergence criterion met
 Total energy in the final basis set =     -317.5148910336
    9    -317.5148922551      2.21e-07  Convergence criterion met
 Total energy in the final basis set =     -317.5148922551

             Standard Nuclear Orientation (Angstroms)
    I     Atom           X                Y                Z
 ----------------------------------------------------------------
    1      F      -0.4798937717    -1.3663623525     0.1116487270
    2      F       1.7898685076     0.0953303700    -0.0387845345
    3      C      -0.4274844614    -0.0410118864    -0.3549896879
    4      C       0.8524675448     0.5954145842     0.2461634119
    5      C      -1.7051458533     0.6734125111     0.0336282694
    6      H      -0.3225579554    -0.0995316625    -1.4490807193
    7      H       0.7901375442     1.6814919490    -0.0460202248
    8      H       0.6526048295     0.6171607931     1.3523849998
    9      H      -1.7881893878     0.7517223658     1.1225363297
   10      H      -1.7347666937     1.6815980740    -0.3909553280
   11      H      -2.5733403030     0.1211752542    -0.3348312435
 ----------------------------------------------------------------

    9    -317.5148928594      2.21e-07  Convergence criterion met
 Total energy in the final basis set =     -317.5148928594

                    Orbital Energies (a.u.)
 --------------------------------------------------------------

 Alpha MOs
 -- Occupied --
-24.731 -24.662 -10.264 -10.252 -10.185  -1.370  -1.166  -0.779
 -0.696  -0.629  -0.581  -0.577  -0.539  -0.482  -0.437  -0.413
 -0.391  -0.379  -0.329  -0.311  -0.287

 Beta MOs
 -- Occupied --
-24.731 -24.662 -10.264 -10.252 -10.185  -1.370  -1.166  -0.779
 -0.696  -0.629  -0.581  -0.577  -0.539  -0.482  -0.437  -0.413
 -0.391  -0.379  -0.329  -0.311  -0.287

          Ground-State Mulliken Net Atomic Charges

     Atom                 Charge (a.u.)    Spin (a.u.)
  --------------------------------------------------------
      1 F                    -0.335236       0.000000
      2 F                    -0.052230       0.000000
      3 C                     0.174867      -0.000000
      4 C                     0.093335      -0.000000
      5 C                    -0.348469      -0.000000
      6 H                     0.080179      -0.000000
      7 H                     0.010550      -0.000000
      8 H                     0.025762       0.000000
      9 H                     0.118653       0.000000
     10 H                     0.108764       0.000000
     11 H                     0.123826       0.000000
  --------------------------------------------------------
  Sum of atomic charges =    -0.000000

                    Cartesian Multipole Moments
 -----------------------------------------------------------------
    Charge (ESU x 10^10)
                 0.0000
    Dipole Moment (Debye)
         X      -0.2344      Y       1.6440      Z      -0.4317
       Tot       1.7159
    Quadrupole Moments (Debye-Ang)
        XX     -28.8181     XY      -0.6743     YY     -31.2630
        XZ       0.3594     YZ       0.2013     ZZ     -28.4377

 Final energy is   -317.514892859352
 **  OPTIMIZATION CONVERGED  **
 Total job time:  61.37s(wall), 642.57s(cpu)
        *  Thank you very much for using Q-Chem.  Have a nice day.  *
