 Q-Chem 5.1, Q-Chem, Inc., Pleasanton, CA (2018)
 Q-Chem 5.1.1 for Intel X86 EM64T Linux

User input:
--------------------------------------------------------------

$comment
potential surface scanner
$end

$rem
JOBTYPE  PES_SCAN
UNRESTRICTED TRUE
SYM_IGNORE  TRUE
GEOM_OPT_MAX_CYCLES 400
SCF_MAX_CYCLES 400
METHOD   B3LYP
BASIS   6-31G**
PDB_PRINT 2
SCF_CONVERGENCE 6
THRESH 14
SCF_PRINT 1
$end
$molecule
0 1
F -0.871521 -1.142052 1.020475
F 0.675142 -0.039228 -2.037139
C -0.601321 0.121496 0.624951
C 0.560394 0.678410 0.976468
C -1.693135 0.695378 -0.213080
H 0.843124 0.057664 -1.122824
H 0.778747 1.701550 0.696605
H 1.270432 0.140300 1.593152
H -2.653772 0.593002 0.300745
H -1.509153 1.749789 -0.425501
H -1.745240 0.154096 -1.162150
$end
$scan
stre 2 4 3.200000 3.201000 0.100000
$end
--------------------------------------------------------------

   10    -317.5900061902      3.49e-07  Convergence criterion met
 Total energy in the final basis set =     -317.5900061902
   10    -317.5872093964      4.09e-07  Convergence criterion met
 Total energy in the final basis set =     -317.5872093964
   10    -317.5888608014      3.86e-07  Convergence criterion met
 Total energy in the final basis set =     -317.5888608014
   10    -317.5898616110      3.37e-07  Convergence criterion met
 Total energy in the final basis set =     -317.5898616110
   10    -317.5899402815      3.49e-07  Convergence criterion met
 Total energy in the final basis set =     -317.5899402815
   10    -317.5899430802      3.47e-07  Convergence criterion met
 Total energy in the final basis set =     -317.5899430802
   10    -317.5899446367      3.47e-07  Convergence criterion met
 Total energy in the final basis set =     -317.5899446367
   10    -317.5899463534      3.48e-07  Convergence criterion met
   10    -317.5899474984      3.48e-07  Convergence criterion met
 Total energy in the final basis set =     -317.5899474984
   10    -317.5899486966      3.49e-07  Convergence criterion met
 Total energy in the final basis set =     -317.5899486966
   10    -317.5899500956      3.49e-07  Convergence criterion met
 Total energy in the final basis set =     -317.5899500956
   10    -317.5899518684      3.49e-07  Convergence criterion met
 Total energy in the final basis set =     -317.5899518684
   10    -317.5899537200      3.49e-07  Convergence criterion met
 Total energy in the final basis set =     -317.5899537200
   10    -317.5899551049      3.49e-07  Convergence criterion met
 Total energy in the final basis set =     -317.5899551049

             Standard Nuclear Orientation (Angstroms)
    I     Atom           X                Y                Z
 ----------------------------------------------------------------
    1      F      -0.8504405704    -1.1464170827     0.9980092354
    2      F       0.6423435747    -0.0953599513    -2.0879374114
    3      C      -0.5929014594     0.1287822419     0.6292916545
    4      C       0.5535682310     0.6964706798     1.0112755816
    5      C      -1.6834546275     0.7021925719    -0.2113221267
    6      H       0.8345826835     0.0246832289    -1.1818701464
    7      H       0.7635369958     1.7268688732     0.7526311604
    8      H       1.2639746144     0.1562265213     1.6256734382
    9      H      -2.6484933162     0.5779209952     0.2893200163
   10      H      -1.5115657152     1.7626197414    -0.4034673254
   11      H      -1.7174534107     0.1764171804    -1.1699020765
 ----------------------------------------------------------------

   10    -317.5899557758      3.48e-07  Convergence criterion met
 Total energy in the final basis set =     -317.5899557758

                    Orbital Energies (a.u.)
 --------------------------------------------------------------

 Alpha MOs
 -- Occupied --
-24.712 -24.650 -10.293 -10.202 -10.197  -1.225  -1.153  -0.807
 -0.721  -0.591  -0.511  -0.503  -0.494  -0.475  -0.425  -0.415
 -0.401  -0.372  -0.365  -0.364  -0.271

 Beta MOs
 -- Occupied --
-24.712 -24.650 -10.293 -10.202 -10.197  -1.225  -1.153  -0.807
 -0.721  -0.591  -0.511  -0.503  -0.494  -0.475  -0.425  -0.415
 -0.401  -0.372  -0.365  -0.364  -0.271

          Ground-State Mulliken Net Atomic Charges

     Atom                 Charge (a.u.)    Spin (a.u.)
  --------------------------------------------------------
      1 F                    -0.280565      -0.000000
      2 F                    -0.375735      -0.000000
      3 C                     0.379510       0.000000
      4 C                    -0.356631       0.000000
      5 C                    -0.383272      -0.000000
      6 H                     0.343382      -0.000000
      7 H                     0.123744      -0.000000
      8 H                     0.126273      -0.000000
      9 H                     0.135290       0.000000
     10 H                     0.126754       0.000000
     11 H                     0.161249       0.000000
  --------------------------------------------------------
  Sum of atomic charges =     0.000000

                    Cartesian Multipole Moments
 -----------------------------------------------------------------
    Charge (ESU x 10^10)
                -0.0000
    Dipole Moment (Debye)
         X      -0.3709      Y       1.4813      Z       1.4820
       Tot       2.1280
    Quadrupole Moments (Debye-Ang)
        XX     -26.5500     XY      -0.8380     YY     -28.9890
        XZ       2.5034     YZ       0.0978     ZZ     -35.0957

 Final energy is   -317.589955775793
 **  OPTIMIZATION CONVERGED  **
 Total job time:  45.86s(wall), 533.60s(cpu)
        *  Thank you very much for using Q-Chem.  Have a nice day.  *
