 Q-Chem 5.1, Q-Chem, Inc., Pleasanton, CA (2018)
 Q-Chem 5.1.1 for Intel X86 EM64T Linux

User input:
--------------------------------------------------------------

$comment
potential surface scanner
$end

$rem
JOBTYPE  PES_SCAN
UNRESTRICTED TRUE
SYM_IGNORE  TRUE
GEOM_OPT_MAX_CYCLES 400
SCF_MAX_CYCLES 400
METHOD   B3LYP
BASIS   6-31G**
PDB_PRINT 2
SCF_CONVERGENCE 6
THRESH 14
SCF_PRINT 1
$end
$molecule
0 1
F -0.987492 -1.129331 1.066443
F 1.772343 0.175061 -1.750080
C -0.725642 0.101053 0.570428
C 0.499501 0.613356 0.705072
C -1.920940 0.704830 -0.086786
H 1.132162 0.010539 -1.089675
H 0.716533 1.610159 0.343773
H 1.271149 0.075800 1.243906
H -2.737612 0.797644 0.637384
H -1.690388 1.691533 -0.491240
H -2.275916 0.059761 -0.897522
$end
$scan
stre 2 4 2.900000 2.901000 0.100000
$end
--------------------------------------------------------------

   10    -317.5874110233      3.81e-07  Convergence criterion met
 Total energy in the final basis set =     -317.5874110233
   10    -317.5864889161      4.11e-07  Convergence criterion met
 Total energy in the final basis set =     -317.5864889161
   10    -317.5873550525      3.88e-07  Convergence criterion met
 Total energy in the final basis set =     -317.5873550525
   10    -317.5877842860      3.52e-07  Convergence criterion met
 Total energy in the final basis set =     -317.5877842860
   10    -317.5877990960      3.58e-07  Convergence criterion met
 Total energy in the final basis set =     -317.5877990960
   10    -317.5878016738      3.58e-07  Convergence criterion met
 Total energy in the final basis set =     -317.5878016738
   10    -317.5878256445      3.58e-07  Convergence criterion met
 Total energy in the final basis set =     -317.5878256445
   10    -317.5878354616      3.58e-07  Convergence criterion met
   10    -317.5895732253      3.72e-07  Convergence criterion met
 Total energy in the final basis set =     -317.5895732253
   10    -317.5895925753      3.76e-07  Convergence criterion met
 Total energy in the final basis set =     -317.5895925753
   10    -317.5896232851      3.80e-07  Convergence criterion met
 Total energy in the final basis set =     -317.5896232851
   10    -317.5896497730      3.78e-07  Convergence criterion met
 Total energy in the final basis set =     -317.5896497730
   10    -317.5896581153      3.79e-07  Convergence criterion met
 Total energy in the final basis set =     -317.5896581153
   10    -317.5896598652      3.78e-07  Convergence criterion met
 Total energy in the final basis set =     -317.5896598652

             Standard Nuclear Orientation (Angstroms)
    I     Atom           X                Y                Z
 ----------------------------------------------------------------
    1      F      -1.0356579747    -1.0778046746     1.3086856629
    2      F       0.8446139485     0.6944328535    -1.9597193392
    3      C      -0.6518938714     0.0545667801     0.6763827479
    4      C       0.5611217662     0.5552904009     0.9230348330
    5      C      -1.7073746141     0.5819548027    -0.2370119413
    6      H       0.8924529409     0.2302463084    -1.1504265507
    7      H       0.8699757498     1.4840580788     0.4610806445
    8      H       1.2238154861     0.0770927645     1.6344829290
    9      H      -2.5686813617     0.9320256464     0.3424097314
   10      H      -1.3159162246     1.3943337515    -0.8479761425
   11      H      -2.0587578449    -0.2157917121    -0.8992395751
 ----------------------------------------------------------------

   10    -317.5896603617      3.79e-07  Convergence criterion met
 Total energy in the final basis set =     -317.5896603617

                    Orbital Energies (a.u.)
 --------------------------------------------------------------

 Alpha MOs
 -- Occupied --
-24.713 -24.653 -10.293 -10.202 -10.195  -1.225  -1.157  -0.806
 -0.720  -0.591  -0.514  -0.503  -0.492  -0.475  -0.425  -0.414
 -0.401  -0.373  -0.367  -0.366  -0.270

 Beta MOs
 -- Occupied --
-24.713 -24.653 -10.293 -10.202 -10.195  -1.225  -1.157  -0.806
 -0.720  -0.591  -0.514  -0.503  -0.492  -0.475  -0.425  -0.414
 -0.401  -0.373  -0.367  -0.366  -0.270

          Ground-State Mulliken Net Atomic Charges

     Atom                 Charge (a.u.)    Spin (a.u.)
  --------------------------------------------------------
      1 F                    -0.281968       0.000000
      2 F                    -0.372909       0.000000
      3 C                     0.389856       0.000000
      4 C                    -0.377996      -0.000000
      5 C                    -0.385317       0.000000
      6 H                     0.341376       0.000000
      7 H                     0.139345      -0.000000
      8 H                     0.123814      -0.000000
      9 H                     0.137522      -0.000000
     10 H                     0.144201      -0.000000
     11 H                     0.142077      -0.000000
  --------------------------------------------------------
  Sum of atomic charges =    -0.000000

                    Cartesian Multipole Moments
 -----------------------------------------------------------------
    Charge (ESU x 10^10)
                 0.0000
    Dipole Moment (Debye)
         X      -0.5538      Y       0.2793      Z       1.0968
       Tot       1.2601
    Quadrupole Moments (Debye-Ang)
        XX     -27.0389     XY      -1.7281     YY     -29.8941
        XZ       3.1373     YZ       2.4547     ZZ     -34.6015

 Final energy is   -317.589660361680
 **  OPTIMIZATION CONVERGED  **
 Total job time:  124.49s(wall), 1380.76s(cpu)
        *  Thank you very much for using Q-Chem.  Have a nice day.  *
