 Q-Chem 5.1, Q-Chem, Inc., Pleasanton, CA (2018)
 Q-Chem 5.1.1 for Intel X86 EM64T Linux

User input:
--------------------------------------------------------------

$comment
potential surface scanner
$end

$rem
JOBTYPE  PES_SCAN
UNRESTRICTED TRUE
SYM_IGNORE  TRUE
GEOM_OPT_MAX_CYCLES 400
SCF_MAX_CYCLES 400
METHOD   B3LYP
BASIS   6-31G**
PDB_PRINT 2
SCF_CONVERGENCE 6
THRESH 14
SCF_PRINT 1
$end
$molecule
0 3
F -0.215677 -1.038347 0.505884
F 0.742236 -0.600713 -1.914145
C -0.637199 0.287541 0.703885
C 0.413426 1.153464 1.212315
C -1.667876 0.679679 -0.294516
H 0.503523 -1.004926 -1.106093
H 1.184801 1.539424 0.543742
H 0.515661 1.364995 2.273098
H -2.512316 -0.018212 -0.278795
H -2.039290 1.686143 -0.088317
H -1.233586 0.661353 -1.305354
$end
$scan
stre 2 4 3.500000 3.501000 0.100000
$end
--------------------------------------------------------------

   10    -317.4907209299      6.38e-07  Convergence criterion met
 Total energy in the final basis set =     -317.4907209299
   10    -317.4907142778      6.37e-07  Convergence criterion met
 Total energy in the final basis set =     -317.4907142778
   10    -317.4908145998      6.34e-07  Convergence criterion met
 Total energy in the final basis set =     -317.4908145998
   10    -317.4908532804      6.34e-07  Convergence criterion met
 Total energy in the final basis set =     -317.4908532804
   10    -317.4908561675      6.34e-07  Convergence criterion met
 Total energy in the final basis set =     -317.4908561675
   10    -317.4908576641      6.35e-07  Convergence criterion met
 Total energy in the final basis set =     -317.4908576641
   10    -317.4908587741      6.36e-07  Convergence criterion met
 Total energy in the final basis set =     -317.4908587741

             Standard Nuclear Orientation (Angstroms)
    I     Atom           X                Y                Z
 ----------------------------------------------------------------
    1      F      -0.2501469713    -1.0511300587     0.5078494280
    2      F       0.8007822477    -0.5472795987    -1.8586611186
    3      C      -0.6520807323     0.2817317233     0.7022564229
    4      C       0.4189615559     1.1369382135     1.1856162483
    5      C      -1.6855720941     0.6801668831    -0.2907901294
    6      H       0.5319945652    -0.9835721096    -1.0772378404
    7      H       1.1865905294     1.4974613358     0.4989163088
    8      H       0.5412753108     1.3589803723     2.2419910672
    9      H      -2.5341630786    -0.0123099915    -0.2709799756
   10      H      -2.0491936873     1.6893999518    -0.0840250131
   11      H      -1.2547446454     0.6600142787    -1.3032313981
 ----------------------------------------------------------------

   10    -317.4908596765      6.38e-07  Convergence criterion met
 Total energy in the final basis set =     -317.4908596765

                    Orbital Energies (a.u.)
 --------------------------------------------------------------

 Alpha MOs
 -- Occupied --
-24.717 -24.647 -10.281 -10.223 -10.197  -1.217  -1.150  -0.802
 -0.717  -0.598  -0.523  -0.499  -0.481  -0.477  -0.433  -0.415
 -0.405  -0.374  -0.363  -0.361  -0.250  -0.208

 Beta MOs
 -- Occupied --
-24.713 -24.647 -10.267 -10.210 -10.197  -1.206  -1.150  -0.774
 -0.691  -0.576  -0.515  -0.484  -0.465  -0.457  -0.419  -0.405
 -0.400  -0.365  -0.362  -0.360

          Ground-State Mulliken Net Atomic Charges

     Atom                 Charge (a.u.)    Spin (a.u.)
  --------------------------------------------------------
      1 F                    -0.303789       0.082586
      2 F                    -0.383889       0.000547
      3 C                     0.288441       0.879606
      4 C                    -0.251945       1.002768
      5 C                    -0.378129      -0.049163
      6 H                     0.353822       0.004206
      7 H                     0.137176       0.012145
      8 H                     0.134190      -0.020062
      9 H                     0.132703       0.024912
     10 H                     0.125230       0.002055
     11 H                     0.146188       0.060400
  --------------------------------------------------------
  Sum of atomic charges =    -0.000000

                    Cartesian Multipole Moments
 -----------------------------------------------------------------
    Charge (ESU x 10^10)
                -0.0000
    Dipole Moment (Debye)
         X      -0.9185      Y       1.0916      Z       1.5930
       Tot       2.1384
    Quadrupole Moments (Debye-Ang)
        XX     -28.2136     XY       0.0372     YY     -28.2651
        XZ       2.6575     YZ       0.8427     ZZ     -32.6204

 Final energy is   -317.490859676489
 **  OPTIMIZATION CONVERGED  **
 Total job time:  25.27s(wall), 289.48s(cpu)
        *  Thank you very much for using Q-Chem.  Have a nice day.  *
