 Q-Chem 5.1, Q-Chem, Inc., Pleasanton, CA (2018)
 Q-Chem 5.1.1 for Intel X86 EM64T Linux

User input:
--------------------------------------------------------------

$comment
potential surface scanner
$end

$rem
JOBTYPE  PES_SCAN
UNRESTRICTED TRUE
SYM_IGNORE  TRUE
GEOM_OPT_MAX_CYCLES 400
SCF_MAX_CYCLES 400
METHOD   B3LYP
BASIS   6-31G**
PDB_PRINT 2
SCF_CONVERGENCE 6
THRESH 14
SCF_PRINT 1
$end
$molecule
0 1
F -0.486400 -1.298900 0.159500
F 1.889200 0.001700 -0.126500
C -0.435600 -0.028600 -0.332400
C 0.768200 0.660400 0.276200
C -1.735300 0.665500 0.023300
H -0.320900 -0.108600 -1.417700
H 0.851700 1.700600 -0.050500
H 0.742100 0.621000 1.368800
H -1.880200 0.688200 1.108400
H -1.756200 1.691300 -0.356400
H -2.582900 0.117800 -0.401000
$end
$scan
stre 2 4 0.900000 0.901000 0.100000
$end
--------------------------------------------------------------

    8    -317.6070310312      9.75e-07  Convergence criterion met
 Total energy in the final basis set =     -317.6070310312
    9    -317.5861031954      4.24e-07  Convergence criterion met
 Total energy in the final basis set =     -317.5861031954
    9    -317.4975710905      2.49e-07  Convergence criterion met
 Total energy in the final basis set =     -317.4975710905
    9    -317.3790687118      2.96e-07  Convergence criterion met
 Total energy in the final basis set =     -317.3790687118
    9    -317.1803188658      3.68e-07  Convergence criterion met
 Total energy in the final basis set =     -317.1803188658
    9    -317.1518500002      3.67e-07  Convergence criterion met
 Total energy in the final basis set =     -317.1518500002
    9    -317.1363323345      3.53e-07  Convergence criterion met
 Total energy in the final basis set =     -317.1363323345
    9    -317.1373437527      3.25e-07  Convergence criterion met
    9    -317.1381581556      3.25e-07  Convergence criterion met
 Total energy in the final basis set =     -317.1381581556
    9    -317.1381617149      3.24e-07  Convergence criterion met
 Total energy in the final basis set =     -317.1381617149
    9    -317.1381637658      3.23e-07  Convergence criterion met
 Total energy in the final basis set =     -317.1381637658
    9    -317.1381656022      3.22e-07  Convergence criterion met
 Total energy in the final basis set =     -317.1381656022
    9    -317.1381675978      3.22e-07  Convergence criterion met
 Total energy in the final basis set =     -317.1381675978
    9    -317.1381689568      3.22e-07  Convergence criterion met
 Total energy in the final basis set =     -317.1381689568

             Standard Nuclear Orientation (Angstroms)
    I     Atom           X                Y                Z
 ----------------------------------------------------------------
    1      F      -0.4635348926    -1.3921471014     0.0703478257
    2      F       1.6853035028     0.1300803801     0.0578300750
    3      C      -0.4304841727    -0.0515931752    -0.3834658659
    4      C       0.9159216629     0.5615137529     0.2364830048
    5      C      -1.6886681302     0.6653413879     0.0413613401
    6      H      -0.3472256851    -0.1051077950    -1.4819537642
    7      H       0.8172713833     1.6869242790    -0.0981938153
    8      H       0.5946259603     0.6703326265     1.3588185474
    9      H      -1.7409694842     0.7343589659     1.1329304143
   10      H      -1.7125564006     1.6784961960    -0.3715712815
   11      H      -2.5759837439     0.1322004833    -0.3108864803
 ----------------------------------------------------------------

    9    -317.1381694646      3.23e-07  Convergence criterion met
 Total energy in the final basis set =     -317.1381694646

                    Orbital Energies (a.u.)
 --------------------------------------------------------------

 Alpha MOs
 -- Occupied --
-24.808 -24.655 -10.308 -10.236 -10.175  -1.580  -1.157  -0.771
 -0.740  -0.718  -0.718  -0.629  -0.555  -0.476  -0.430  -0.405
 -0.382  -0.371  -0.322  -0.274  -0.254

 Beta MOs
 -- Occupied --
-24.808 -24.655 -10.308 -10.236 -10.175  -1.580  -1.157  -0.771
 -0.740  -0.718  -0.718  -0.629  -0.555  -0.476  -0.430  -0.405
 -0.382  -0.371  -0.322  -0.274  -0.254

          Ground-State Mulliken Net Atomic Charges

     Atom                 Charge (a.u.)    Spin (a.u.)
  --------------------------------------------------------
      1 F                    -0.347511      -0.000000
      2 F                     0.345897       0.000000
      3 C                     0.128114       0.000000
      4 C                    -0.059267      -0.000000
      5 C                    -0.341984       0.000000
      6 H                     0.068400      -0.000000
      7 H                    -0.080522       0.000000
      8 H                    -0.058621       0.000000
      9 H                     0.118548       0.000000
     10 H                     0.109319      -0.000000
     11 H                     0.117627       0.000000
  --------------------------------------------------------
  Sum of atomic charges =    -0.000000

                    Cartesian Multipole Moments
 -----------------------------------------------------------------
    Charge (ESU x 10^10)
                -0.0000
    Dipole Moment (Debye)
         X       1.0923      Y       0.9287      Z      -0.7126
       Tot       1.6011
    Quadrupole Moments (Debye-Ang)
        XX     -26.1181     XY      -1.2166     YY     -32.8894
        XZ       0.0969     YZ      -0.0765     ZZ     -29.3704

 Final energy is   -317.138169464618
 **  OPTIMIZATION CONVERGED  **
 Total job time:  93.45s(wall), 1023.19s(cpu)
        *  Thank you very much for using Q-Chem.  Have a nice day.  *
