 Q-Chem 5.1, Q-Chem, Inc., Pleasanton, CA (2018)
 Q-Chem 5.1.1 for Intel X86 EM64T Linux

User input:
--------------------------------------------------------------

$comment
potential surface scanner
$end

$rem
JOBTYPE  PES_SCAN
UNRESTRICTED TRUE
SYM_IGNORE  TRUE
GEOM_OPT_MAX_CYCLES 400
SCF_MAX_CYCLES 400
METHOD   B3LYP
BASIS   6-31G**
PDB_PRINT 2
SCF_CONVERGENCE 6
THRESH 14
SCF_PRINT 1
$end
$molecule
0 1
F -0.539152 -1.302010 0.268911
F 2.185132 -0.034695 -0.465844
C -0.464600 -0.018794 -0.256855
C 0.659515 0.711345 0.386163
C -1.800017 0.686360 -0.011169
H -0.255995 -0.096531 -1.329258
H 0.799613 1.749301 0.104580
H 0.881894 0.459859 1.417989
H -1.991888 0.801520 1.059709
H -1.818572 1.673048 -0.482714
H -2.602228 0.080998 -0.439810
$end
$scan
stre 2 4 2.000000 2.001000 0.100000
$end
--------------------------------------------------------------

   10    -317.5445224633      3.26e-07  Convergence criterion met
 Total energy in the final basis set =     -317.5445224633
   10    -317.5293909711      4.90e-07  Convergence criterion met
 Total energy in the final basis set =     -317.5293909711
   10    -317.5287617794      5.21e-07  Convergence criterion met
 Total energy in the final basis set =     -317.5287617794
   10    -317.5291347962      5.06e-07  Convergence criterion met
 Total energy in the final basis set =     -317.5291347962
   10    -317.5291382850      5.06e-07  Convergence criterion met
 Total energy in the final basis set =     -317.5291382850
   10    -317.5291396875      5.06e-07  Convergence criterion met
 Total energy in the final basis set =     -317.5291396875
   10    -317.5291407842      5.06e-07  Convergence criterion met
 Total energy in the final basis set =     -317.5291407842
   10    -317.5291420158      5.07e-07  Convergence criterion met
 Total energy in the final basis set =     -317.5291420158
   10    -317.5291430206      5.07e-07  Convergence criterion met
 Total energy in the final basis set =     -317.5291430206

             Standard Nuclear Orientation (Angstroms)
    I     Atom           X                Y                Z
 ----------------------------------------------------------------
    1      F      -0.5464003601    -1.2954559256     0.2885639803
    2      F       2.2297771601    -0.0518570964    -0.5258343235
    3      C      -0.4687399227    -0.0157472307    -0.2420293306
    4      C       0.6403895147     0.7228499892     0.4088719645
    5      C      -1.8108833293     0.6875863498    -0.0164824533
    6      H      -0.2453886721    -0.0951118131    -1.3114013311
    7      H       0.7997536833     1.7554668774     0.1206197281
    8      H       0.9026660934     0.4489145863     1.4249113428
    9      H      -2.0188146885     0.8030119918     1.0512065651
   10      H      -1.8253144279     1.6731430296    -0.4901376875
   11      H      -2.6033430510     0.0776002417    -0.4565864548
 ----------------------------------------------------------------

   10    -317.5291433960      5.07e-07  Convergence criterion met
 Total energy in the final basis set =     -317.5291433960

                    Orbital Energies (a.u.)
 --------------------------------------------------------------

 Alpha MOs
 -- Occupied --
-24.687 -24.597 -10.293 -10.292 -10.213  -1.196  -1.025  -0.821
 -0.722  -0.623  -0.532  -0.498  -0.480  -0.450  -0.422  -0.413
 -0.362  -0.355  -0.322  -0.290  -0.289

 Beta MOs
 -- Occupied --
-24.687 -24.597 -10.293 -10.292 -10.213  -1.196  -1.025  -0.821
 -0.722  -0.623  -0.532  -0.498  -0.480  -0.450  -0.422  -0.413
 -0.362  -0.355  -0.322  -0.290  -0.289

          Ground-State Mulliken Net Atomic Charges

     Atom                 Charge (a.u.)    Spin (a.u.)
  --------------------------------------------------------
      1 F                    -0.311049       0.000000
      2 F                    -0.386357       0.000000
      3 C                     0.232823       0.000000
      4 C                    -0.036882      -0.000000
      5 C                    -0.362223       0.000000
      6 H                     0.141908      -0.000000
      7 H                     0.157457       0.000000
      8 H                     0.172965      -0.000000
      9 H                     0.126916      -0.000000
     10 H                     0.119325      -0.000000
     11 H                     0.145118      -0.000000
  --------------------------------------------------------
  Sum of atomic charges =     0.000000

                    Cartesian Multipole Moments
 -----------------------------------------------------------------
    Charge (ESU x 10^10)
                 0.0000
    Dipole Moment (Debye)
         X      -3.4912      Y       2.8100      Z       0.9688
       Tot       4.5851
    Quadrupole Moments (Debye-Ang)
        XX     -35.4407     XY       0.1374     YY     -28.5888
        XZ       3.2303     YZ       0.9230     ZZ     -27.2175

 Final energy is   -317.529143395979
 **  OPTIMIZATION CONVERGED  **
 Total job time:  32.75s(wall), 362.02s(cpu)
        *  Thank you very much for using Q-Chem.  Have a nice day.  *
