 Q-Chem 5.1, Q-Chem, Inc., Pleasanton, CA (2018)
 Q-Chem 5.1.1 for Intel X86 EM64T Linux

User input:
--------------------------------------------------------------

$comment
potential surface scanner
$end

$rem
JOBTYPE  PES_SCAN
UNRESTRICTED TRUE
SYM_IGNORE  TRUE
GEOM_OPT_MAX_CYCLES 400
SCF_MAX_CYCLES 400
METHOD   B3LYP
BASIS   6-31G**
PDB_PRINT 2
SCF_CONVERGENCE 6
THRESH 14
SCF_PRINT 1
$end
$molecule
0 1
F -1.035658 -1.077805 1.308686
F 0.844614 0.694433 -1.959719
C -0.651894 0.054567 0.676383
C 0.561122 0.555290 0.923035
C -1.707375 0.581955 -0.237012
H 0.892453 0.230246 -1.150427
H 0.869976 1.484058 0.461081
H 1.223815 0.077093 1.634483
H -2.568681 0.932026 0.342410
H -1.315916 1.394334 -0.847976
H -2.058758 -0.215792 -0.899240
$end
$scan
stre 2 4 3.000000 3.001000 0.100000
$end
--------------------------------------------------------------

   10    -317.5896603651      3.79e-07  Convergence criterion met
 Total energy in the final basis set =     -317.5896603651
   10    -317.5876173640      4.16e-07  Convergence criterion met
 Total energy in the final basis set =     -317.5876173640
   10    -317.5889915320      3.98e-07  Convergence criterion met
 Total energy in the final basis set =     -317.5889915320
   10    -317.5897616721      3.62e-07  Convergence criterion met
 Total energy in the final basis set =     -317.5897616721
   10    -317.5898067958      3.70e-07  Convergence criterion met
 Total energy in the final basis set =     -317.5898067958
   10    -317.5898110487      3.69e-07  Convergence criterion met
 Total energy in the final basis set =     -317.5898110487
   10    -317.5898198471      3.69e-07  Convergence criterion met
 Total energy in the final basis set =     -317.5898198471

             Standard Nuclear Orientation (Angstroms)
    I     Atom           X                Y                Z
 ----------------------------------------------------------------
    1      F      -1.0436510682    -1.0791385855     1.3182364423
    2      F       0.8189456731     0.6873292657    -2.0271068226
    3      C      -0.6504934215     0.0531623268     0.6908235662
    4      C       0.5566301510     0.5565060845     0.9585377291
    5      C      -1.6941440110     0.5800765225    -0.2370001367
    6      H       0.8756878917     0.2471277243    -1.2059971864
    7      H       0.8737056189     1.4821366243     0.4946572339
    8      H       1.2122224959     0.0782005414     1.6762190707
    9      H      -2.5628643976     0.9306834949     0.3308580510
   10      H      -1.2955886328     1.3921624697    -0.8440180133
   11      H      -2.0367522995    -0.2178414685    -0.9035059341
 ----------------------------------------------------------------

   10    -317.5898207155      3.70e-07  Convergence criterion met
 Total energy in the final basis set =     -317.5898207155

                    Orbital Energies (a.u.)
 --------------------------------------------------------------

 Alpha MOs
 -- Occupied --
-24.712 -24.655 -10.292 -10.202 -10.195  -1.224  -1.159  -0.806
 -0.720  -0.591  -0.514  -0.503  -0.492  -0.475  -0.425  -0.414
 -0.401  -0.373  -0.369  -0.367  -0.270

 Beta MOs
 -- Occupied --
-24.712 -24.655 -10.292 -10.202 -10.195  -1.224  -1.159  -0.806
 -0.720  -0.591  -0.514  -0.503  -0.492  -0.475  -0.425  -0.414
 -0.401  -0.373  -0.369  -0.367  -0.270

          Ground-State Mulliken Net Atomic Charges

     Atom                 Charge (a.u.)    Spin (a.u.)
  --------------------------------------------------------
      1 F                    -0.282667       0.000000
      2 F                    -0.370989       0.000000
      3 C                     0.387477      -0.000000
      4 C                    -0.369583       0.000000
      5 C                    -0.386566      -0.000000
      6 H                     0.341375      -0.000000
      7 H                     0.134571       0.000000
      8 H                     0.123581      -0.000000
      9 H                     0.137631       0.000000
     10 H                     0.142930       0.000000
     11 H                     0.142240       0.000000
  --------------------------------------------------------
  Sum of atomic charges =    -0.000000

                    Cartesian Multipole Moments
 -----------------------------------------------------------------
    Charge (ESU x 10^10)
                -0.0000
    Dipole Moment (Debye)
         X      -0.4882      Y       0.3082      Z       1.0995
       Tot       1.2419
    Quadrupole Moments (Debye-Ang)
        XX     -27.0577     XY      -1.6563     YY     -29.9178
        XZ       3.1023     YZ       2.4637     ZZ     -34.8252

 Final energy is   -317.589820715503
 **  OPTIMIZATION CONVERGED  **
 Total job time:  25.06s(wall), 287.91s(cpu)
        *  Thank you very much for using Q-Chem.  Have a nice day.  *
