 Q-Chem 5.1, Q-Chem, Inc., Pleasanton, CA (2018)
 Q-Chem 5.1.1 for Intel X86 EM64T Linux

User input:
--------------------------------------------------------------

$comment
potential surface scanner
$end

$rem
JOBTYPE  PES_SCAN
UNRESTRICTED TRUE
SYM_IGNORE  TRUE
GEOM_OPT_MAX_CYCLES 400
SCF_MAX_CYCLES 400
METHOD   B3LYP
BASIS   6-31G**
PDB_PRINT 2
SCF_CONVERGENCE 6
THRESH 14
SCF_PRINT 1
$end
$molecule
0 1
F -0.486400 -1.298900 0.159500
F 1.889200 0.001700 -0.126500
C -0.435600 -0.028600 -0.332400
C 0.768200 0.660400 0.276200
C -1.735300 0.665500 0.023300
H -0.320900 -0.108600 -1.417700
H 0.851700 1.700600 -0.050500
H 0.742100 0.621000 1.368800
H -1.880200 0.688200 1.108400
H -1.756200 1.691300 -0.356400
H -2.582900 0.117800 -0.401000
$end
$scan
stre 2 4 0.700000 0.701000 0.100000
$end
--------------------------------------------------------------

    8    -317.6070310312      9.75e-07  Convergence criterion met
 Total energy in the final basis set =     -317.6070310312
    9    -317.5861031954      4.24e-07  Convergence criterion met
 Total energy in the final basis set =     -317.5861031954
    9    -317.4975710905      2.49e-07  Convergence criterion met
 Total energy in the final basis set =     -317.4975710905
    9    -317.3790687118      2.96e-07  Convergence criterion met
 Total energy in the final basis set =     -317.3790687118
    9    -317.1255426642      3.82e-07  Convergence criterion met
 Total energy in the final basis set =     -317.1255426642
    9    -316.9060011833      3.86e-07  Convergence criterion met
 Total energy in the final basis set =     -316.9060011833
    9    -316.6999188892      2.83e-07  Convergence criterion met
 Total energy in the final basis set =     -316.6999188892
    9    -316.4810144724      4.29e-07  Convergence criterion met
    9    -315.8120151048      3.98e-07  Convergence criterion met
 Total energy in the final basis set =     -315.8120151048
    9    -315.8120195814      3.99e-07  Convergence criterion met
 Total energy in the final basis set =     -315.8120195814
    9    -315.8120228150      4.01e-07  Convergence criterion met
 Total energy in the final basis set =     -315.8120228150
    9    -315.8120267096      4.02e-07  Convergence criterion met
 Total energy in the final basis set =     -315.8120267096
    9    -315.8120303343      4.02e-07  Convergence criterion met
 Total energy in the final basis set =     -315.8120303343
    9    -315.8120322375      4.01e-07  Convergence criterion met
 Total energy in the final basis set =     -315.8120322375

             Standard Nuclear Orientation (Angstroms)
    I     Atom           X                Y                Z
 ----------------------------------------------------------------
    1      F      -0.4481924224    -1.4257150546     0.0078608824
    2      F       1.5739622490     0.1633453574     0.1584925812
    3      C      -0.4600887412    -0.0724399123    -0.4418636036
    4      C       0.9823275728     0.5254074258     0.2527241688
    5      C      -1.6833220268     0.6470048717     0.0398919923
    6      H      -0.3947526352    -0.1115169793    -1.5426188722
    7      H       0.9219002452     1.7621707962    -0.1579060235
    8      H       0.5388381054     0.7080719163     1.4401272974
    9      H      -1.6592565066     0.7421626505     1.1316576925
   10      H      -1.7177977398     1.6515140434    -0.3932889441
   11      H      -2.5999181003     0.1203948850    -0.2433771713
 ----------------------------------------------------------------

    9    -315.8120328843      4.00e-07  Convergence criterion met
 Total energy in the final basis set =     -315.8120328843

                    Orbital Energies (a.u.)
 --------------------------------------------------------------

 Alpha MOs
 -- Occupied --
-24.990 -24.653 -10.497 -10.220 -10.165  -1.802  -1.152  -0.975
 -0.973  -0.857  -0.744  -0.620  -0.550  -0.468  -0.424  -0.399
 -0.374  -0.365  -0.318  -0.232  -0.215

 Beta MOs
 -- Occupied --
-24.990 -24.653 -10.497 -10.220 -10.165  -1.802  -1.152  -0.975
 -0.973  -0.857  -0.744  -0.620  -0.550  -0.468  -0.424  -0.399
 -0.374  -0.365  -0.318  -0.232  -0.215

          Ground-State Mulliken Net Atomic Charges

     Atom                 Charge (a.u.)    Spin (a.u.)
  --------------------------------------------------------
      1 F                    -0.359837      -0.000000
      2 F                     1.005275      -0.000000
      3 C                     0.062823      -0.000000
      4 C                    -0.398070       0.000000
      5 C                    -0.331174      -0.000000
      6 H                     0.064921      -0.000000
      7 H                    -0.218603      -0.000000
      8 H                    -0.169431      -0.000000
      9 H                     0.119862       0.000000
     10 H                     0.113025      -0.000000
     11 H                     0.111208       0.000000
  --------------------------------------------------------
  Sum of atomic charges =    -0.000000

                    Cartesian Multipole Moments
 -----------------------------------------------------------------
    Charge (ESU x 10^10)
                 0.0000
    Dipole Moment (Debye)
         X       2.6243      Y      -0.3612      Z      -0.9105
       Tot       2.8012
    Quadrupole Moments (Debye-Ang)
        XX     -22.9693     XY      -2.4506     YY     -35.7437
        XZ       0.3136     YZ      -0.4056     ZZ     -30.8927

 Final energy is   -315.812032884348
 **  OPTIMIZATION CONVERGED  **
 Total job time:  106.48s(wall), 1232.17s(cpu)
        *  Thank you very much for using Q-Chem.  Have a nice day.  *
