 Q-Chem 5.1, Q-Chem, Inc., Pleasanton, CA (2018)
 Q-Chem 5.1.1 for Intel X86 EM64T Linux

User input:
--------------------------------------------------------------

$comment
potential surface scanner
$end

$rem
JOBTYPE  PES_SCAN
UNRESTRICTED TRUE
SYM_IGNORE  TRUE
GEOM_OPT_MAX_CYCLES 400
SCF_MAX_CYCLES 400
METHOD   B3LYP
BASIS   6-31G**
PDB_PRINT 2
SCF_CONVERGENCE 6
THRESH 14
SCF_PRINT 1
$end
$molecule
0 1
F -0.486400 -1.298900 0.159500
F 1.889200 0.001700 -0.126500
C -0.435600 -0.028600 -0.332400
C 0.768200 0.660400 0.276200
C -1.735300 0.665500 0.023300
H -0.320900 -0.108600 -1.417700
H 0.851700 1.700600 -0.050500
H 0.742100 0.621000 1.368800
H -1.880200 0.688200 1.108400
H -1.756200 1.691300 -0.356400
H -2.582900 0.117800 -0.401000
$end
$scan
stre 2 4 1.000000 1.001000 0.100000
$end
--------------------------------------------------------------

    8    -317.6070310312      9.75e-07  Convergence criterion met
 Total energy in the final basis set =     -317.6070310312
    9    -317.5861031954      4.24e-07  Convergence criterion met
 Total energy in the final basis set =     -317.5861031954
    9    -317.4975710905      2.49e-07  Convergence criterion met
 Total energy in the final basis set =     -317.4975710905
    9    -317.4062844325      2.78e-07  Convergence criterion met
 Total energy in the final basis set =     -317.4062844325
    9    -317.3873750516      2.71e-07  Convergence criterion met
 Total energy in the final basis set =     -317.3873750516
    9    -317.3854429692      2.45e-07  Convergence criterion met
 Total energy in the final basis set =     -317.3854429692
    9    -317.3856235814      2.36e-07  Convergence criterion met
 Total energy in the final basis set =     -317.3856235814
    9    -317.3857118448      2.35e-07  Convergence criterion met
    9    -317.3858134304      2.41e-07  Convergence criterion met
 Total energy in the final basis set =     -317.3858134304
    9    -317.3858227460      2.40e-07  Convergence criterion met
 Total energy in the final basis set =     -317.3858227460
    9    -317.3858301798      2.41e-07  Convergence criterion met
 Total energy in the final basis set =     -317.3858301798
    9    -317.3858342030      2.42e-07  Convergence criterion met
 Total energy in the final basis set =     -317.3858342030
    9    -317.3858361689      2.43e-07  Convergence criterion met
 Total energy in the final basis set =     -317.3858361689
    9    -317.3858374388      2.44e-07  Convergence criterion met
 Total energy in the final basis set =     -317.3858374388

             Standard Nuclear Orientation (Angstroms)
    I     Atom           X                Y                Z
 ----------------------------------------------------------------
    1      F      -0.4722172056    -1.3783796158     0.0933649745
    2      F       1.7375020161     0.1137885658     0.0080644868
    3      C      -0.4269836726    -0.0461262423    -0.3671008383
    4      C       0.8828269414     0.5788391756     0.2388425737
    5      C      -1.6955611485     0.6702105794     0.0379120506
    6      H      -0.3331041602    -0.1029447359    -1.4635601308
    7      H       0.7973118276     1.6802751633    -0.0703263123
    8      H       0.6238118346     0.6430537202     1.3510629591
    9      H      -1.7662716394     0.7415704780     1.1282132703
   10      H      -1.7212010950     1.6817722339    -0.3787933877
   11      H      -2.5724136984     0.1283406778    -0.3259796460
 ----------------------------------------------------------------

    9    -317.3858382967      2.44e-07  Convergence criterion met
 Total energy in the final basis set =     -317.3858382967

                    Orbital Energies (a.u.)
 --------------------------------------------------------------

 Alpha MOs
 -- Occupied --
-24.763 -24.658 -10.277 -10.244 -10.180  -1.467  -1.162  -0.773
 -0.707  -0.658  -0.638  -0.612  -0.552  -0.480  -0.434  -0.410
 -0.386  -0.375  -0.325  -0.294  -0.272

 Beta MOs
 -- Occupied --
-24.763 -24.658 -10.277 -10.244 -10.180  -1.467  -1.162  -0.773
 -0.707  -0.658  -0.638  -0.612  -0.552  -0.480  -0.434  -0.410
 -0.386  -0.375  -0.325  -0.294  -0.272

          Ground-State Mulliken Net Atomic Charges

     Atom                 Charge (a.u.)    Spin (a.u.)
  --------------------------------------------------------
      1 F                    -0.340803       0.000000
      2 F                     0.120830       0.000000
      3 C                     0.153831       0.000000
      4 C                     0.032980       0.000000
      5 C                    -0.345644      -0.000000
      6 H                     0.073939      -0.000000
      7 H                    -0.030409       0.000000
      8 H                    -0.012918      -0.000000
      9 H                     0.118559       0.000000
     10 H                     0.108781       0.000000
     11 H                     0.120853       0.000000
  --------------------------------------------------------
  Sum of atomic charges =    -0.000000

                    Cartesian Multipole Moments
 -----------------------------------------------------------------
    Charge (ESU x 10^10)
                -0.0000
    Dipole Moment (Debye)
         X       0.3756      Y       1.3370      Z      -0.5775
       Tot       1.5041
    Quadrupole Moments (Debye-Ang)
        XX     -27.5806     XY      -0.8947     YY     -31.9616
        XZ       0.1942     YZ       0.0739     ZZ     -28.8414

 Final energy is   -317.385838296738
 **  OPTIMIZATION CONVERGED  **
 Total job time:  62.42s(wall), 717.11s(cpu)
        *  Thank you very much for using Q-Chem.  Have a nice day.  *
