 Q-Chem 5.1, Q-Chem, Inc., Pleasanton, CA (2018)
 Q-Chem 5.1.1 for Intel X86 EM64T Linux

User input:
--------------------------------------------------------------

$comment
potential surface scanner
$end

$rem
JOBTYPE  PES_SCAN
UNRESTRICTED TRUE
SYM_IGNORE  TRUE
GEOM_OPT_MAX_CYCLES 400
SCF_MAX_CYCLES 400
METHOD   B3LYP
BASIS   6-31G**
PDB_PRINT 2
SCF_CONVERGENCE 6
THRESH 14
SCF_PRINT 1
$end
$molecule
0 1
F -0.613194 -1.272303 0.445727
F 2.324918 -0.010321 -0.926517
C -0.485194 -0.020154 -0.134145
C 0.581021 0.738634 0.542459
C -1.841462 0.698119 -0.064386
H -0.161746 -0.142733 -1.176118
H 0.764564 1.769471 0.265467
H 1.020792 0.360642 1.458564
H -2.152933 0.844723 0.973232
H -1.796522 1.667837 -0.566577
H -2.586545 0.076486 -0.566003
$end
$scan
stre 2 4 2.500000 2.501000 0.100000
$end
--------------------------------------------------------------

   11    -317.4770822651      6.85e-07  Convergence criterion met
 Total energy in the final basis set =     -317.4770822651
   13    -317.4667650942      4.33e-07  Convergence criterion met
 Total energy in the final basis set =     -317.4667650942
   13    -317.4666051916      4.26e-07  Convergence criterion met
 Total energy in the final basis set =     -317.4666051916
   13    -317.4666197380      4.31e-07  Convergence criterion met
 Total energy in the final basis set =     -317.4666197380
   13    -317.4666310767      4.36e-07  Convergence criterion met
 Total energy in the final basis set =     -317.4666310767
   13    -317.4666339137      4.37e-07  Convergence criterion met
 Total energy in the final basis set =     -317.4666339137
   13    -317.4666384620      4.39e-07  Convergence criterion met
 Total energy in the final basis set =     -317.4666384620
   13    -317.4666453394      4.39e-07  Convergence criterion met
 Total energy in the final basis set =     -317.4666453394
   12    -317.4666586581      9.81e-07  Convergence criterion met
 Total energy in the final basis set =     -317.4666586581
   13    -317.4666759783      3.48e-07  Convergence criterion met
 Total energy in the final basis set =     -317.4666759783
   13    -317.4666872085      3.61e-07  Convergence criterion met
 Total energy in the final basis set =     -317.4666872085
   13    -317.4666932312      3.61e-07  Convergence criterion met
 Total energy in the final basis set =     -317.4666932312
   13    -317.4666945663      3.63e-07  Convergence criterion met
 Total energy in the final basis set =     -317.4666945663

             Standard Nuclear Orientation (Angstroms)
    I     Atom           X                Y                Z
 ----------------------------------------------------------------
    1      F      -0.6481142401    -1.2625133198     0.5300450199
    2      F       2.2580792582     0.0519367890    -1.1123276857
    3      C      -0.4876433140    -0.0266461890    -0.0776872302
    4      C       0.5731468237     0.7327816608     0.6044870850
    5      C      -1.8389341541     0.7007009111    -0.0945728260
    6      H      -0.1074834322    -0.1770032943    -1.0996142828
    7      H       0.7488408703     1.7700550726     0.3467419160
    8      H       1.0780053476     0.3152099577     1.4686935439
    9      H      -2.2034430761     0.8692499676     0.9221165779
   10      H      -1.7573596509     1.6602220235    -0.6115501688
   11      H      -2.5613954325     0.0764074207    -0.6246289491
 ----------------------------------------------------------------

   13    -317.4666952373      3.64e-07  Convergence criterion met
 Total energy in the final basis set =     -317.4666952373

                    Orbital Energies (a.u.)
 --------------------------------------------------------------

 Alpha MOs
 -- Occupied --
-24.698 -24.560 -10.308 -10.303 -10.221  -1.207  -0.984  -0.833
 -0.736  -0.632  -0.540  -0.513  -0.499  -0.459  -0.428  -0.420
 -0.370  -0.364  -0.270  -0.258  -0.257

 Beta MOs
 -- Occupied --
-24.698 -24.560 -10.308 -10.303 -10.221  -1.207  -0.984  -0.833
 -0.736  -0.632  -0.540  -0.513  -0.499  -0.459  -0.428  -0.420
 -0.370  -0.364  -0.270  -0.258  -0.257

          Ground-State Mulliken Net Atomic Charges

     Atom                 Charge (a.u.)    Spin (a.u.)
  --------------------------------------------------------
      1 F                    -0.311631      -0.000000
      2 F                    -0.425094      -0.000000
      3 C                     0.216368       0.000000
      4 C                    -0.093906      -0.000000
      5 C                    -0.359476      -0.000000
      6 H                     0.189667       0.000000
      7 H                     0.183027       0.000000
      8 H                     0.194243       0.000000
      9 H                     0.130895       0.000000
     10 H                     0.126420       0.000000
     11 H                     0.149485      -0.000000
  --------------------------------------------------------
  Sum of atomic charges =     0.000000

                    Cartesian Multipole Moments
 -----------------------------------------------------------------
    Charge (ESU x 10^10)
                 0.0000
    Dipole Moment (Debye)
         X      -4.0840      Y       2.6483      Z       2.4248
       Tot       5.4380
    Quadrupole Moments (Debye-Ang)
        XX     -36.7325     XY      -0.5406     YY     -28.0932
        XZ       6.8423     YZ       1.7028     ZZ     -28.8846

 Final energy is   -317.466695237274
 **  OPTIMIZATION CONVERGED  **
 Total job time:  51.02s(wall), 589.27s(cpu)
        *  Thank you very much for using Q-Chem.  Have a nice day.  *
