 Q-Chem 5.1, Q-Chem, Inc., Pleasanton, CA (2018)
 Q-Chem 5.1.1 for Intel X86 EM64T Linux

User input:
--------------------------------------------------------------

$comment
potential surface scanner
$end

$rem
JOBTYPE  PES_SCAN
UNRESTRICTED TRUE
SYM_IGNORE  TRUE
GEOM_OPT_MAX_CYCLES 400
SCF_MAX_CYCLES 400
METHOD   B3LYP
BASIS   6-31G**
PDB_PRINT 2
SCF_CONVERGENCE 6
THRESH 14
SCF_PRINT 1
$end
$molecule
0 1
F -0.648114 -1.262513 0.530045
F 2.258079 0.051937 -1.112328
C -0.487643 -0.026646 -0.077687
C 0.573147 0.732782 0.604487
C -1.838934 0.700701 -0.094573
H -0.107483 -0.177003 -1.099614
H 0.748841 1.770055 0.346742
H 1.078005 0.315210 1.468694
H -2.203443 0.869250 0.922117
H -1.757360 1.660222 -0.611550
H -2.561395 0.076407 -0.624629
$end
$scan
stre 2 4 2.600000 2.601000 0.100000
$end
--------------------------------------------------------------

   13    -317.4666952470      3.64e-07  Convergence criterion met
 Total energy in the final basis set =     -317.4666952470
   13    -317.4574051170      5.61e-07  Convergence criterion met
 Total energy in the final basis set =     -317.4574051170
   13    -317.4572833747      4.94e-07  Convergence criterion met
 Total energy in the final basis set =     -317.4572833747
   13    -317.4572967721      5.44e-07  Convergence criterion met
 Total energy in the final basis set =     -317.4572967721
   13    -317.4573209199      8.48e-07  Convergence criterion met
 Total energy in the final basis set =     -317.4573209199
   14    -317.4573299333      2.39e-07  Convergence criterion met
 Total energy in the final basis set =     -317.4573299333
   13    -317.4573510745      9.80e-07  Convergence criterion met
 Total energy in the final basis set =     -317.4573510745
   13    -317.4573774878      3.33e-07  Convergence criterion met
   10    -317.5850538718      4.33e-07  Convergence criterion met
 Total energy in the final basis set =     -317.5850538718
   10    -317.5850978945      4.32e-07  Convergence criterion met
 Total energy in the final basis set =     -317.5850978945
   10    -317.5851164357      4.32e-07  Convergence criterion met
 Total energy in the final basis set =     -317.5851164357
   10    -317.5851243177      4.32e-07  Convergence criterion met
 Total energy in the final basis set =     -317.5851243177
   10    -317.5851279300      4.32e-07  Convergence criterion met
 Total energy in the final basis set =     -317.5851279300
   10    -317.5851294302      4.32e-07  Convergence criterion met
 Total energy in the final basis set =     -317.5851294302

             Standard Nuclear Orientation (Angstroms)
    I     Atom           X                Y                Z
 ----------------------------------------------------------------
    1      F      -0.9872348411    -1.1323076794     1.0330053702
    2      F       2.0075328459     0.1857295256    -1.4843076284
    3      C      -0.7458466543     0.1009465643     0.5297741133
    4      C       0.4903502181     0.5996338201     0.5861609437
    5      C      -1.9760060204     0.7171260274    -0.0470576750
    6      H       1.1809225623    -0.0109824332    -1.0977082973
    7      H       0.6941380488     1.5985553479     0.2250054331
    8      H       1.2880336651     0.0539974295     1.0753072631
    9      H      -2.7421618295     0.8187720946     0.7294409398
   10      H      -1.7635115432     1.7020880651    -0.4657951125
   11      H      -2.3925164516     0.0768432383    -0.8321213501
 ----------------------------------------------------------------

   10    -317.5851301066      4.32e-07  Convergence criterion met
 Total energy in the final basis set =     -317.5851301066

                    Orbital Energies (a.u.)
 --------------------------------------------------------------

 Alpha MOs
 -- Occupied --
-24.713 -24.639 -10.294 -10.211 -10.194  -1.225  -1.145  -0.809
 -0.725  -0.593  -0.511  -0.502  -0.492  -0.476  -0.428  -0.418
 -0.405  -0.376  -0.358  -0.356  -0.270

 Beta MOs
 -- Occupied --
-24.713 -24.639 -10.294 -10.211 -10.194  -1.225  -1.145  -0.809
 -0.725  -0.593  -0.511  -0.502  -0.492  -0.476  -0.428  -0.418
 -0.405  -0.376  -0.358  -0.356  -0.270

          Ground-State Mulliken Net Atomic Charges

     Atom                 Charge (a.u.)    Spin (a.u.)
  --------------------------------------------------------
      1 F                    -0.283483       0.000000
      2 F                    -0.375044       0.000000
      3 C                     0.399143      -0.000000
      4 C                    -0.398727      -0.000000
      5 C                    -0.383727       0.000000
      6 H                     0.342141       0.000000
      7 H                     0.139338      -0.000000
      8 H                     0.144714       0.000000
      9 H                     0.143730      -0.000000
     10 H                     0.130125      -0.000000
     11 H                     0.141790      -0.000000
  --------------------------------------------------------
  Sum of atomic charges =    -0.000000

                    Cartesian Multipole Moments
 -----------------------------------------------------------------
    Charge (ESU x 10^10)
                 0.0000
    Dipole Moment (Debye)
         X      -2.4508      Y       1.0012      Z       0.6451
       Tot       2.7249
    Quadrupole Moments (Debye-Ang)
        XX     -31.1553     XY      -1.9827     YY     -28.9388
        XZ       4.5985     YZ       0.9616     ZZ     -32.0806

 Final energy is   -317.585130106575
 **  OPTIMIZATION CONVERGED  **
 Total job time:  145.01s(wall), 1691.12s(cpu)
        *  Thank you very much for using Q-Chem.  Have a nice day.  *
