 Q-Chem 5.1, Q-Chem, Inc., Pleasanton, CA (2018)
 Q-Chem 5.1.1 for Intel X86 EM64T Linux

User input:
--------------------------------------------------------------

$comment
potential surface scanner
$end

$rem
JOBTYPE  PES_SCAN
UNRESTRICTED TRUE
SYM_IGNORE  TRUE
GEOM_OPT_MAX_CYCLES 400
SCF_MAX_CYCLES 400
METHOD   B3LYP
BASIS   6-31G**
PDB_PRINT 2
SCF_CONVERGENCE 6
THRESH 14
SCF_PRINT 1
$end
$molecule
0 1
F -0.486400 -1.298900 0.159500
F 1.889200 0.001700 -0.126500
C -0.435600 -0.028600 -0.332400
C 0.768200 0.660400 0.276200
C -1.735300 0.665500 0.023300
H -0.320900 -0.108600 -1.417700
H 0.851700 1.700600 -0.050500
H 0.742100 0.621000 1.368800
H -1.880200 0.688200 1.108400
H -1.756200 1.691300 -0.356400
H -2.582900 0.117800 -0.401000
$end
$scan
stre 2 4 1.300000 1.301000 0.100000
$end
--------------------------------------------------------------

    8    -317.6070310312      9.75e-07  Convergence criterion met
 Total energy in the final basis set =     -317.6070310312
    9    -317.6033333947      5.99e-07  Convergence criterion met
 Total energy in the final basis set =     -317.6033333947
    9    -317.6037071949      6.06e-07  Convergence criterion met
 Total energy in the final basis set =     -317.6037071949
    9    -317.6037494565      6.07e-07  Convergence criterion met
 Total energy in the final basis set =     -317.6037494565
    9    -317.6037599248      6.07e-07  Convergence criterion met
 Total energy in the final basis set =     -317.6037599248
    9    -317.6037708333      6.08e-07  Convergence criterion met
 Total energy in the final basis set =     -317.6037708333
    9    -317.6037852773      6.11e-07  Convergence criterion met
 Total energy in the final basis set =     -317.6037852773
    9    -317.6038009236      6.15e-07  Convergence criterion met
 Total energy in the final basis set =     -317.6038009236
    9    -317.6038109470      6.16e-07  Convergence criterion met
 Total energy in the final basis set =     -317.6038109470
    9    -317.6038144491      6.15e-07  Convergence criterion met
 Total energy in the final basis set =     -317.6038144491

             Standard Nuclear Orientation (Angstroms)
    I     Atom           X                Y                Z
 ----------------------------------------------------------------
    1      F      -0.4967726164    -1.3456928065     0.1554345508
    2      F       1.8929402891     0.0656775094    -0.1466159917
    3      C      -0.4350439866    -0.0340172162    -0.3306663376
    4      C       0.7977599162     0.6281700177     0.2707353975
    5      C      -1.7287243540     0.6785768434     0.0212982738
    6      H      -0.3060953456    -0.1010793026    -1.4196078061
    7      H       0.7865359432     1.6984702309     0.0045261286
    8      H       0.7210657516     0.5596714063     1.3681285951
    9      H      -1.8368223454     0.7732825897     1.1065879452
   10      H      -1.7605544513     1.6789742507    -0.4212887771
   11      H      -2.5805888007     0.1083664773    -0.3568319785
 ----------------------------------------------------------------

    9    -317.6038149283      6.14e-07  Convergence criterion met
 Total energy in the final basis set =     -317.6038149283

                    Orbital Energies (a.u.)
 --------------------------------------------------------------

 Alpha MOs
 -- Occupied --
-24.688 -24.668 -10.265 -10.261 -10.192  -1.227  -1.173  -0.791
 -0.697  -0.611  -0.527  -0.518  -0.498  -0.469  -0.440  -0.411
 -0.397  -0.380  -0.337  -0.330  -0.309

 Beta MOs
 -- Occupied --
-24.688 -24.668 -10.265 -10.261 -10.192  -1.227  -1.173  -0.791
 -0.697  -0.611  -0.527  -0.518  -0.498  -0.469  -0.440  -0.411
 -0.397  -0.380  -0.337  -0.330  -0.309

          Ground-State Mulliken Net Atomic Charges

     Atom                 Charge (a.u.)    Spin (a.u.)
  --------------------------------------------------------
      1 F                    -0.326972      -0.000000
      2 F                    -0.268439      -0.000000
      3 C                     0.204422       0.000000
      4 C                     0.138628      -0.000000
      5 C                    -0.352685      -0.000000
      6 H                     0.093126       0.000000
      7 H                     0.069804      -0.000000
      8 H                     0.084035       0.000000
      9 H                     0.119324       0.000000
     10 H                     0.109783       0.000000
     11 H                     0.128973       0.000000
  --------------------------------------------------------
  Sum of atomic charges =     0.000000

                    Cartesian Multipole Moments
 -----------------------------------------------------------------
    Charge (ESU x 10^10)
                 0.0000
    Dipole Moment (Debye)
         X      -1.1850      Y       2.0590      Z      -0.1358
       Tot       2.3795
    Quadrupole Moments (Debye-Ang)
        XX     -30.7565     XY      -0.4015     YY     -30.2982
        XZ       0.8344     YZ       0.4268     ZZ     -27.8912

 Final energy is   -317.603814928258
 **  OPTIMIZATION CONVERGED  **
 Total job time:  32.20s(wall), 371.90s(cpu)
        *  Thank you very much for using Q-Chem.  Have a nice day.  *
