 Q-Chem 5.1, Q-Chem, Inc., Pleasanton, CA (2018)
 Q-Chem 5.1.1 for Intel X86 EM64T Linux

User input:
--------------------------------------------------------------

$comment
potential surface scanner
$end

$rem
JOBTYPE  PES_SCAN
UNRESTRICTED TRUE
SYM_IGNORE  TRUE
GEOM_OPT_MAX_CYCLES 400
SCF_MAX_CYCLES 400
METHOD   B3LYP
BASIS   6-31G**
PDB_PRINT 2
SCF_CONVERGENCE 6
THRESH 14
SCF_PRINT 1
$end
$molecule
0 3
F -0.314231 -1.073516 0.508212
F 0.909224 -0.448884 -1.741538
C -0.680945 0.270791 0.698843
C 0.429495 1.103741 1.130608
C -1.719310 0.682846 -0.283782
H 0.590232 -0.941458 -1.014290
H 1.184882 1.413904 0.407521
H 0.593855 1.344530 2.176865
H -2.572105 -0.003925 -0.263059
H -2.073847 1.693697 -0.068919
H -1.293546 0.668676 -1.298754
$end
$scan
stre 2 4 3.200000 3.201000 0.100000
$end
--------------------------------------------------------------

   10    -317.4911787685      6.41e-07  Convergence criterion met
 Total energy in the final basis set =     -317.4911787685
   10    -317.4911873942      6.38e-07  Convergence criterion met
 Total energy in the final basis set =     -317.4911873942
   10    -317.4912644021      6.38e-07  Convergence criterion met
 Total energy in the final basis set =     -317.4912644021
   10    -317.4912881510      6.40e-07  Convergence criterion met
 Total energy in the final basis set =     -317.4912881510
   10    -317.4912903981      6.41e-07  Convergence criterion met
 Total energy in the final basis set =     -317.4912903981
   10    -317.4912920835      6.42e-07  Convergence criterion met
 Total energy in the final basis set =     -317.4912920835
   10    -317.4912934727      6.43e-07  Convergence criterion met
 Total energy in the final basis set =     -317.4912934727
   10    -317.4912946710      6.44e-07  Convergence criterion met
 Total energy in the final basis set =     -317.4912946710

             Standard Nuclear Orientation (Angstroms)
    I     Atom           X                Y                Z
 ----------------------------------------------------------------
    1      F      -0.3431910356    -1.0835320338     0.5074149515
    2      F       0.9545467903    -0.4036901399    -1.6809130398
    3      C      -0.6931638521     0.2660642677     0.6957990729
    4      C       0.4356224562     1.0873070980     1.1025462937
    5      C      -1.7342628693     0.6846396292    -0.2812999037
    6      H       0.6164162484    -0.9207282038    -0.9795517407
    7      H       1.1847146089     1.3725711101     0.3633941163
    8      H       0.6185606877     1.3378453120     2.1433386781
    9      H      -2.5859349202    -0.0033910758    -0.2639346642
   10      H      -2.0892826637     1.6934977727    -0.0578553503
   11      H      -1.3103214505     0.6798182635    -1.2972314138
 ----------------------------------------------------------------

   10    -317.4912954806      6.44e-07  Convergence criterion met
 Total energy in the final basis set =     -317.4912954806

                    Orbital Energies (a.u.)
 --------------------------------------------------------------

 Alpha MOs
 -- Occupied --
-24.716 -24.651 -10.280 -10.220 -10.197  -1.216  -1.153  -0.801
 -0.715  -0.596  -0.525  -0.497  -0.480  -0.478  -0.432  -0.414
 -0.405  -0.372  -0.366  -0.365  -0.248  -0.209

 Beta MOs
 -- Occupied --
-24.711 -24.650 -10.266 -10.207 -10.197  -1.205  -1.153  -0.773
 -0.690  -0.574  -0.517  -0.482  -0.465  -0.456  -0.417  -0.404
 -0.399  -0.366  -0.365  -0.361

          Ground-State Mulliken Net Atomic Charges

     Atom                 Charge (a.u.)    Spin (a.u.)
  --------------------------------------------------------
      1 F                    -0.305669       0.083328
      2 F                    -0.380261       0.000421
      3 C                     0.285157       0.879779
      4 C                    -0.254594       1.003167
      5 C                    -0.372571      -0.048073
      6 H                     0.354532       0.004351
      7 H                     0.141085       0.011384
      8 H                     0.131985      -0.021341
      9 H                     0.132011       0.022579
     10 H                     0.126034       0.002572
     11 H                     0.142289       0.061832
  --------------------------------------------------------
  Sum of atomic charges =    -0.000000

                    Cartesian Multipole Moments
 -----------------------------------------------------------------
    Charge (ESU x 10^10)
                -0.0000
    Dipole Moment (Debye)
         X      -0.9980      Y       0.9027      Z       1.3210
       Tot       1.8857
    Quadrupole Moments (Debye-Ang)
        XX     -28.4528     XY      -0.2782     YY     -28.3580
        XZ       2.8192     YZ       1.1752     ZZ     -31.9109

 Final energy is   -317.491295480624
 **  OPTIMIZATION CONVERGED  **
 Total job time:  27.98s(wall), 324.08s(cpu)
        *  Thank you very much for using Q-Chem.  Have a nice day.  *
