 Q-Chem 5.1, Q-Chem, Inc., Pleasanton, CA (2018)
 Q-Chem 5.1.1 for Intel X86 EM64T Linux

User input:
--------------------------------------------------------------

$comment
potential surface scanner
$end

$rem
JOBTYPE  PES_SCAN
UNRESTRICTED TRUE
SYM_IGNORE  TRUE
GEOM_OPT_MAX_CYCLES 400
SCF_MAX_CYCLES 400
METHOD   B3LYP
BASIS   6-31G**
PDB_PRINT 2
SCF_CONVERGENCE 6
THRESH 14
SCF_PRINT 1
$end
$molecule
0 3
F -0.391180 -1.104362 0.495201
F 1.032080 -0.317625 -1.556363
C -0.708768 0.255030 0.682013
C 0.450181 1.052633 1.048208
C -1.760463 0.686854 -0.277749
H 0.661170 -0.883986 -0.911436
H 1.184255 1.314195 0.287396
H 0.657205 1.317875 2.080973
H -2.615955 0.004113 -0.254092
H -2.105589 1.696750 -0.043291
H -1.349233 0.688926 -1.299154
$end
$scan
stre 2 4 2.900000 2.901000 0.100000
$end
--------------------------------------------------------------

   10    -317.4910975503      6.50e-07  Convergence criterion met
 Total energy in the final basis set =     -317.4910975503
   10    -317.4905002530      6.50e-07  Convergence criterion met
 Total energy in the final basis set =     -317.4905002530
   10    -317.4905527717      6.53e-07  Convergence criterion met
 Total energy in the final basis set =     -317.4905527717
   10    -317.4905633263      6.56e-07  Convergence criterion met
 Total energy in the final basis set =     -317.4905633263
   10    -317.4905646850      6.56e-07  Convergence criterion met
 Total energy in the final basis set =     -317.4905646850
   10    -317.4905658069      6.55e-07  Convergence criterion met
 Total energy in the final basis set =     -317.4905658069

             Standard Nuclear Orientation (Angstroms)
    I     Atom           X                Y                Z
 ----------------------------------------------------------------
    1      F      -0.4118967762    -1.1150491857     0.4855057403
    2      F       1.0667182384    -0.2789230053    -1.4916073016
    3      C      -0.7134261446     0.2488661234     0.6716266884
    4      C       0.4581284992     1.0352941251     1.0208521839
    5      C      -1.7723307605     0.6879442206    -0.2765982907
    6      H       0.6819754483    -0.8694328646    -0.8770036613
    7      H       1.1827790459     1.2973276402     0.2526164572
    8      H       0.6737170630     1.3035787287     2.0513256004
    9      H      -2.6311330849     0.0097409196    -0.2464922472
   10      H      -2.1097220010     1.6991759554    -0.0364277030
   11      H      -1.3711065276     0.6918803427    -1.3020914664
 ----------------------------------------------------------------

   10    -317.4905665886      6.54e-07  Convergence criterion met
 Total energy in the final basis set =     -317.4905665886

                    Orbital Energies (a.u.)
 --------------------------------------------------------------

 Alpha MOs
 -- Occupied --
-24.715 -24.654 -10.279 -10.215 -10.197  -1.215  -1.157  -0.800
 -0.714  -0.594  -0.528  -0.494  -0.480  -0.476  -0.431  -0.414
 -0.404  -0.371  -0.369  -0.367  -0.245  -0.209

 Beta MOs
 -- Occupied --
-24.710 -24.654 -10.265 -10.202 -10.197  -1.204  -1.157  -0.772
 -0.688  -0.572  -0.521  -0.479  -0.464  -0.456  -0.416  -0.404
 -0.399  -0.369  -0.366  -0.360

          Ground-State Mulliken Net Atomic Charges

     Atom                 Charge (a.u.)    Spin (a.u.)
  --------------------------------------------------------
      1 F                    -0.308306       0.083047
      2 F                    -0.374017       0.000828
      3 C                     0.281897       0.881661
      4 C                    -0.260754       1.000717
      5 C                    -0.367963      -0.047731
      6 H                     0.356174       0.004452
      7 H                     0.148257       0.011185
      8 H                     0.127721      -0.021567
      9 H                     0.131508       0.021350
     10 H                     0.126648       0.002997
     11 H                     0.138835       0.063060
  --------------------------------------------------------
  Sum of atomic charges =     0.000000

                    Cartesian Multipole Moments
 -----------------------------------------------------------------
    Charge (ESU x 10^10)
                 0.0000
    Dipole Moment (Debye)
         X      -1.0424      Y       0.7555      Z       1.0270
       Tot       1.6469
    Quadrupole Moments (Debye-Ang)
        XX     -28.6441     XY      -0.5912     YY     -28.4437
        XZ       2.7297     YZ       1.3399     ZZ     -31.2653

 Final energy is   -317.490566588600
 **  OPTIMIZATION CONVERGED  **
 Total job time:  21.87s(wall), 251.37s(cpu)
        *  Thank you very much for using Q-Chem.  Have a nice day.  *
