 Q-Chem 5.1, Q-Chem, Inc., Pleasanton, CA (2018)
 Q-Chem 5.1.1 for Intel X86 EM64T Linux

User input:
--------------------------------------------------------------

$comment
potential surface scanner
$end

$rem
JOBTYPE  PES_SCAN
UNRESTRICTED TRUE
SYM_IGNORE  TRUE
GEOM_OPT_MAX_CYCLES 400
SCF_MAX_CYCLES 400
METHOD   B3LYP
BASIS   6-31G**
PDB_PRINT 2
SCF_CONVERGENCE 6
THRESH 14
SCF_PRINT 1
$end
$molecule
0 3
F -0.431090 -1.125886 0.470159
F 1.099626 -0.248328 -1.424385
C -0.716157 0.242002 0.657806
C 0.467258 1.016989 0.992034
C -1.784160 0.690422 -0.275332
H 0.705916 -0.861429 -0.837980
H 1.179032 1.292386 0.218345
H 0.688639 1.287148 2.021130
H -2.645278 0.015509 -0.239367
H -2.114543 1.701546 -0.024969
H -1.395543 0.700044 -1.305733
$end
$scan
stre 2 4 2.700000 2.701000 0.100000
$end
--------------------------------------------------------------

   10    -317.4895689615      6.59e-07  Convergence criterion met
 Total energy in the final basis set =     -317.4895689615
   10    -317.4878377693      6.68e-07  Convergence criterion met
 Total energy in the final basis set =     -317.4878377693
   10    -317.4878958004      6.70e-07  Convergence criterion met
 Total energy in the final basis set =     -317.4878958004
   10    -317.4879246034      6.71e-07  Convergence criterion met
 Total energy in the final basis set =     -317.4879246034
   10    -317.4879291615      6.70e-07  Convergence criterion met
 Total energy in the final basis set =     -317.4879291615
   10    -317.4879313729      6.69e-07  Convergence criterion met
 Total energy in the final basis set =     -317.4879313729
   10    -317.4879325346      6.68e-07  Convergence criterion met
 Total energy in the final basis set =     -317.4879325346
   10    -317.4879337290      6.67e-07  Convergence criterion met
 Total energy in the final basis set =     -317.4879337290

             Standard Nuclear Orientation (Angstroms)
    I     Atom           X                Y                Z
 ----------------------------------------------------------------
    1      F      -0.4515100388    -1.1368416993     0.4448327069
    2      F       1.1486224535    -0.2302869281    -1.3498037822
    3      C      -0.7183449745     0.2344694157     0.6382811201
    4      C       0.4762398605     0.9982623291     0.9585655761
    5      C      -1.7999226618     0.6954449641    -0.2723084580
    6      H       0.7411098739    -0.8615123556    -0.7927325708
    7      H       1.1687699896     1.3042740667     0.1813650078
    8      H       0.7041889248     1.2624168850     1.9883128311
    9      H      -2.6641214079     0.0251025527    -0.2268194305
   10      H      -2.1201281851     1.7063451586    -0.0078867606
   11      H      -1.4312038343     0.7127286111    -1.3100982398
 ----------------------------------------------------------------

   10    -317.4879343687      6.67e-07  Convergence criterion met
 Total energy in the final basis set =     -317.4879343687

                    Orbital Energies (a.u.)
 --------------------------------------------------------------

 Alpha MOs
 -- Occupied --
-24.714 -24.654 -10.278 -10.211 -10.197  -1.214  -1.158  -0.799
 -0.712  -0.593  -0.530  -0.493  -0.482  -0.475  -0.430  -0.413
 -0.403  -0.371  -0.370  -0.365  -0.242  -0.207

 Beta MOs
 -- Occupied --
-24.709 -24.654 -10.264 -10.198 -10.197  -1.204  -1.157  -0.772
 -0.686  -0.571  -0.523  -0.477  -0.465  -0.456  -0.417  -0.403
 -0.398  -0.370  -0.362  -0.360

          Ground-State Mulliken Net Atomic Charges

     Atom                 Charge (a.u.)    Spin (a.u.)
  --------------------------------------------------------
      1 F                    -0.309850       0.081877
      2 F                    -0.371181       0.002675
      3 C                     0.280356       0.883996
      4 C                    -0.264922       0.996483
      5 C                    -0.365692      -0.048218
      6 H                     0.357376       0.004670
      7 H                     0.155443       0.011295
      8 H                     0.123185      -0.021046
      9 H                     0.131438       0.020926
     10 H                     0.127084       0.003338
     11 H                     0.136764       0.064004
  --------------------------------------------------------
  Sum of atomic charges =    -0.000000

                    Cartesian Multipole Moments
 -----------------------------------------------------------------
    Charge (ESU x 10^10)
                -0.0000
    Dipole Moment (Debye)
         X      -1.0804      Y       0.7110      Z       0.8433
       Tot       1.5440
    Quadrupole Moments (Debye-Ang)
        XX     -28.7898     XY      -0.7786     YY     -28.4149
        XZ       2.5968     YZ       1.2670     ZZ     -30.8837

 Final energy is   -317.487934368701
 **  OPTIMIZATION CONVERGED  **
 Total job time:  27.91s(wall), 324.04s(cpu)
        *  Thank you very much for using Q-Chem.  Have a nice day.  *
