 Q-Chem 5.1, Q-Chem, Inc., Pleasanton, CA (2018)
 Q-Chem 5.1.1 for Intel X86 EM64T Linux

User input:
--------------------------------------------------------------

$comment
potential surface scanner
$end

$rem
JOBTYPE  PES_SCAN
UNRESTRICTED TRUE
SYM_IGNORE  TRUE
GEOM_OPT_MAX_CYCLES 400
SCF_MAX_CYCLES 400
METHOD   B3LYP
BASIS   6-31G**
PDB_PRINT 2
SCF_CONVERGENCE 6
THRESH 14
SCF_PRINT 1
$end
$molecule
0 3
F -0.508174 -0.984460 -0.433477
F 2.031558 -0.713859 -0.102937
C -0.734758 0.240753 0.236482
C 0.468912 1.005189 0.499566
C -2.062879 0.800251 -0.129620
H 1.199712 -1.079468 -0.328080
H 0.932840 1.615576 -0.274198
H 0.959441 0.976849 1.466266
H -2.842618 0.035250 -0.054079
H -2.317662 1.629933 0.534801
H -2.072674 1.184390 -1.163014
$end
$scan
stre 2 4 2.300000 2.301000 0.100000
$end
--------------------------------------------------------------

   10    -317.4837246138      6.57e-07  Convergence criterion met
 Total energy in the final basis set =     -317.4837246138
   10    -317.4805586524      6.74e-07  Convergence criterion met
 Total energy in the final basis set =     -317.4805586524
   10    -317.4805793564      6.76e-07  Convergence criterion met
 Total energy in the final basis set =     -317.4805793564
   10    -317.4806067551      6.78e-07  Convergence criterion met
 Total energy in the final basis set =     -317.4806067551
   10    -317.4806107198      6.80e-07  Convergence criterion met
 Total energy in the final basis set =     -317.4806107198
   10    -317.4806128588      6.81e-07  Convergence criterion met
 Total energy in the final basis set =     -317.4806128588

             Standard Nuclear Orientation (Angstroms)
    I     Atom           X                Y                Z
 ----------------------------------------------------------------
    1      F      -0.5146354360    -1.0004018118    -0.4408474187
    2      F       1.9871924911    -0.6611172202    -0.0830039473
    3      C      -0.7265854607     0.2296265589     0.2326971773
    4      C       0.4842410514     0.9827698116     0.4903834885
    5      C      -2.0525641767     0.7971829429    -0.1287181190
    6      H       1.1806172276    -1.0696949094    -0.3295957896
    7      H       0.9351999057     1.6100370457    -0.2771435276
    8      H       0.9605946280     0.9743650348     1.4641991310
    9      H      -2.8370709260     0.0371512803    -0.0519111354
   10      H      -2.3001905980     1.6277753512     0.5372744942
   11      H      -2.0631007062     1.1827099160    -1.1616243535
 ----------------------------------------------------------------

   10    -317.4806132679      6.81e-07  Convergence criterion met
 Total energy in the final basis set =     -317.4806132679

                    Orbital Energies (a.u.)
 --------------------------------------------------------------

 Alpha MOs
 -- Occupied --
-24.712 -24.652 -10.275 -10.204 -10.200  -1.211  -1.157  -0.797
 -0.711  -0.591  -0.528  -0.489  -0.485  -0.464  -0.425  -0.413
 -0.403  -0.383  -0.373  -0.367  -0.214  -0.202

 Beta MOs
 -- Occupied --
-24.708 -24.649 -10.261 -10.200 -10.191  -1.200  -1.152  -0.771
 -0.685  -0.570  -0.523  -0.472  -0.457  -0.453  -0.409  -0.403
 -0.397  -0.370  -0.364  -0.361

          Ground-State Mulliken Net Atomic Charges

     Atom                 Charge (a.u.)    Spin (a.u.)
  --------------------------------------------------------
      1 F                    -0.314529       0.087137
      2 F                    -0.354337       0.039892
      3 C                     0.282585       0.895637
      4 C                    -0.254974       0.930026
      5 C                    -0.364853      -0.053795
      6 H                     0.359761       0.004479
      7 H                     0.124008       0.017110
      8 H                     0.134729      -0.014105
      9 H                     0.132827       0.023298
     10 H                     0.129663       0.004402
     11 H                     0.125119       0.065918
  --------------------------------------------------------
  Sum of atomic charges =    -0.000000

                    Cartesian Multipole Moments
 -----------------------------------------------------------------
    Charge (ESU x 10^10)
                 0.0000
    Dipole Moment (Debye)
         X      -1.8264      Y       1.0332      Z      -0.0717
       Tot       2.0996
    Quadrupole Moments (Debye-Ang)
        XX     -31.3072     XY      -0.1610     YY     -28.3257
        XZ       0.1636     YZ       0.0768     ZZ     -28.5844

 Final energy is   -317.480613267923
 **  OPTIMIZATION CONVERGED  **
 Total job time:  23.13s(wall), 256.20s(cpu)
        *  Thank you very much for using Q-Chem.  Have a nice day.  *
