 Q-Chem 5.1, Q-Chem, Inc., Pleasanton, CA (2018)
 Q-Chem 5.1.1 for Intel X86 EM64T Linux

User input:
--------------------------------------------------------------

$comment
potential surface scanner
$end

$rem
JOBTYPE  PES_SCAN
UNRESTRICTED TRUE
SYM_IGNORE  TRUE
GEOM_OPT_MAX_CYCLES 400
SCF_MAX_CYCLES 400
METHOD   B3LYP
BASIS   6-31G**
PDB_PRINT 2
SCF_CONVERGENCE 6
THRESH 14
SCF_PRINT 1
$end
$molecule
0 1
F -0.507579 -1.328306 0.190627
F 1.991384 0.020731 -0.239618
C -0.444984 -0.026945 -0.308828
C 0.748024 0.660924 0.302789
C -1.754226 0.679641 0.011669
H -0.291993 -0.096392 -1.392782
H 0.799514 1.717233 0.029763
H 0.777889 0.531542 1.386744
H -1.890424 0.776044 1.093378
H -1.784648 1.677775 -0.435874
H -2.589256 0.098153 -0.386167
$end
$scan
stre 2 4 1.600000 1.601000 0.100000
$end
--------------------------------------------------------------

    9    -317.6030717709      8.03e-07  Convergence criterion met
 Total energy in the final basis set =     -317.6030717709
    9    -317.5910350498      7.35e-07  Convergence criterion met
 Total energy in the final basis set =     -317.5910350498
    9    -317.5909933870      7.29e-07  Convergence criterion met
 Total energy in the final basis set =     -317.5909933870
    9    -317.5910767963      7.27e-07  Convergence criterion met
 Total energy in the final basis set =     -317.5910767963
    9    -317.5910806843      7.26e-07  Convergence criterion met
 Total energy in the final basis set =     -317.5910806843
    9    -317.5910822809      7.26e-07  Convergence criterion met
 Total energy in the final basis set =     -317.5910822809
    9    -317.5910835304      7.25e-07  Convergence criterion met
 Total energy in the final basis set =     -317.5910835304
    9    -317.5910853983      7.25e-07  Convergence criterion met
 Total energy in the final basis set =     -317.5910853983
    9    -317.5910864603      7.24e-07  Convergence criterion met
 Total energy in the final basis set =     -317.5910864603

             Standard Nuclear Orientation (Angstroms)
    I     Atom           X                Y                Z
 ----------------------------------------------------------------
    1      F      -0.5144211344    -1.3211525616     0.2085506352
    2      F       2.0413467805     0.0038537446    -0.2904562428
    3      C      -0.4500751559    -0.0246199160    -0.2976807050
    4      C       0.7242193898     0.6753545461     0.3213130586
    5      C      -1.7660603896     0.6809791424     0.0063619266
    6      H      -0.2843505743    -0.0956419013    -1.3789916690
    7      H       0.8016724649     1.7264277567     0.0463016056
    8      H       0.8045972997     0.5137085030     1.3954834452
    9      H      -1.9148210496     0.7816095167     1.0859266587
   10      H      -1.7950068127     1.6765473165    -0.4466995935
   11      H      -2.5933998184     0.0933338529    -0.3984081197
 ----------------------------------------------------------------

    9    -317.5910867663      7.24e-07  Convergence criterion met
 Total energy in the final basis set =     -317.5910867663

                    Orbital Energies (a.u.)
 --------------------------------------------------------------

 Alpha MOs
 -- Occupied --
-24.676 -24.644 -10.278 -10.274 -10.201  -1.184  -1.103  -0.805
 -0.708  -0.613  -0.522  -0.485  -0.474  -0.442  -0.424  -0.405
 -0.398  -0.358  -0.338  -0.330  -0.322

 Beta MOs
 -- Occupied --
-24.676 -24.644 -10.278 -10.274 -10.201  -1.184  -1.103  -0.805
 -0.708  -0.613  -0.522  -0.485  -0.474  -0.442  -0.424  -0.405
 -0.398  -0.358  -0.338  -0.330  -0.322

          Ground-State Mulliken Net Atomic Charges

     Atom                 Charge (a.u.)    Spin (a.u.)
  --------------------------------------------------------
      1 F                    -0.318134       0.000000
      2 F                    -0.362284      -0.000000
      3 C                     0.226749      -0.000000
      4 C                     0.070914      -0.000000
      5 C                    -0.357795       0.000000
      6 H                     0.112962      -0.000000
      7 H                     0.120766       0.000000
      8 H                     0.135468      -0.000000
      9 H                     0.122025      -0.000000
     10 H                     0.113110      -0.000000
     11 H                     0.136219      -0.000000
  --------------------------------------------------------
  Sum of atomic charges =    -0.000000

                    Cartesian Multipole Moments
 -----------------------------------------------------------------
    Charge (ESU x 10^10)
                -0.0000
    Dipole Moment (Debye)
         X      -2.2758      Y       2.4677      Z       0.3004
       Tot       3.3703
    Quadrupole Moments (Debye-Ang)
        XX     -32.9220     XY      -0.0970     YY     -29.3821
        XZ       1.6772     YZ       0.6676     ZZ     -27.4172

 Final energy is   -317.591086766341
 **  OPTIMIZATION CONVERGED  **
 Total job time:  30.58s(wall), 343.53s(cpu)
        *  Thank you very much for using Q-Chem.  Have a nice day.  *
