 Q-Chem 5.1, Q-Chem, Inc., Pleasanton, CA (2018)
 Q-Chem 5.1.1 for Intel X86 EM64T Linux

User input:
--------------------------------------------------------------

$comment
potential surface scanner
$end

$rem
JOBTYPE  PES_SCAN
UNRESTRICTED TRUE
SYM_IGNORE  TRUE
GEOM_OPT_MAX_CYCLES 400
SCF_MAX_CYCLES 400
METHOD   B3LYP
BASIS   6-31G**
PDB_PRINT 2
SCF_CONVERGENCE 6
THRESH 14
SCF_PRINT 1
$end
$molecule
0 3
F -0.368296 -1.093918 0.502017
F 0.998658 -0.358186 -1.618815
C -0.701850 0.260857 0.689365
C 0.442297 1.070358 1.075573
C -1.748477 0.685399 -0.279157
H 0.639389 -0.900235 -0.947304
H 1.184874 1.340248 0.324912
H 0.638711 1.327237 2.112410
H -2.603402 0.001768 -0.256086
H -2.096440 1.696167 -0.052959
H -1.331761 0.680709 -1.298249
$end
$scan
stre 2 4 3.000000 3.001000 0.100000
$end
--------------------------------------------------------------

   10    -317.4913033390      6.47e-07  Convergence criterion met
 Total energy in the final basis set =     -317.4913033390
   10    -317.4910207943      6.45e-07  Convergence criterion met
 Total energy in the final basis set =     -317.4910207943
   10    -317.4910806409      6.47e-07  Convergence criterion met
 Total energy in the final basis set =     -317.4910806409
   10    -317.4910924233      6.49e-07  Convergence criterion met
 Total energy in the final basis set =     -317.4910924233
   10    -317.4910939468      6.50e-07  Convergence criterion met
 Total energy in the final basis set =     -317.4910939468
   10    -317.4910955485      6.50e-07  Convergence criterion met
 Total energy in the final basis set =     -317.4910955485
   10    -317.4910967371      6.50e-07  Convergence criterion met
 Total energy in the final basis set =     -317.4910967371

             Standard Nuclear Orientation (Angstroms)
    I     Atom           X                Y                Z
 ----------------------------------------------------------------
    1      F      -0.3911800343    -1.1043623453     0.4952009298
    2      F       1.0320798597    -0.3176246006    -1.5563628781
    3      C      -0.7087676965     0.2550303943     0.6820132636
    4      C       0.4501806802     1.0526329235     1.0482078246
    5      C      -1.7604633087     0.6868544763    -0.2777485388
    6      H       0.6611703554    -0.8839860701    -0.9114363487
    7      H       1.1842554995     1.3141954033     0.2873957897
    8      H       0.6572048482     1.3178746306     2.0809734856
    9      H      -2.6159550512     0.0041131937    -0.2540916916
   10      H      -2.1055887549     1.6967501407    -0.0432913186
   11      H      -1.3492333972     0.6889258538    -1.2991535176
 ----------------------------------------------------------------

   10    -317.4910975485      6.50e-07  Convergence criterion met
 Total energy in the final basis set =     -317.4910975485

                    Orbital Energies (a.u.)
 --------------------------------------------------------------

 Alpha MOs
 -- Occupied --
-24.715 -24.653 -10.279 -10.217 -10.197  -1.215  -1.156  -0.800
 -0.714  -0.595  -0.527  -0.495  -0.480  -0.477  -0.431  -0.414
 -0.404  -0.372  -0.368  -0.367  -0.246  -0.209

 Beta MOs
 -- Occupied --
-24.710 -24.653 -10.265 -10.204 -10.197  -1.204  -1.155  -0.773
 -0.688  -0.573  -0.520  -0.480  -0.464  -0.456  -0.417  -0.404
 -0.399  -0.367  -0.367  -0.361

          Ground-State Mulliken Net Atomic Charges

     Atom                 Charge (a.u.)    Spin (a.u.)
  --------------------------------------------------------
      1 F                    -0.307401       0.083267
      2 F                    -0.376237       0.000557
      3 C                     0.282948       0.880821
      4 C                    -0.258429       1.001911
      5 C                    -0.369356      -0.047684
      6 H                     0.355602       0.004411
      7 H                     0.145296       0.011173
      8 H                     0.129459      -0.021610
      9 H                     0.131668       0.021640
     10 H                     0.126446       0.002870
     11 H                     0.140004       0.062644
  --------------------------------------------------------
  Sum of atomic charges =    -0.000000

                    Cartesian Multipole Moments
 -----------------------------------------------------------------
    Charge (ESU x 10^10)
                 0.0000
    Dipole Moment (Debye)
         X      -1.0305      Y       0.7998      Z       1.1286
       Tot       1.7249
    Quadrupole Moments (Debye-Ang)
        XX     -28.5837     XY      -0.4903     YY     -28.4199
        XZ       2.7820     YZ       1.3078     ZZ     -31.4721

 Final energy is   -317.491097548519
 **  OPTIMIZATION CONVERGED  **
 Total job time:  25.93s(wall), 291.11s(cpu)
        *  Thank you very much for using Q-Chem.  Have a nice day.  *
