 Q-Chem 5.1, Q-Chem, Inc., Pleasanton, CA (2018)
 Q-Chem 5.1.1 for Intel X86 EM64T Linux

User input:
--------------------------------------------------------------

$comment
potential surface scanner
$end

$rem
JOBTYPE  PES_SCAN
UNRESTRICTED TRUE
SYM_IGNORE  TRUE
GEOM_OPT_MAX_CYCLES 400
SCF_MAX_CYCLES 400
METHOD   B3LYP
BASIS   6-31G**
PDB_PRINT 2
SCF_CONVERGENCE 6
THRESH 14
SCF_PRINT 1
$end
$molecule
0 3
F -0.514635 -1.000402 -0.440847
F 1.987192 -0.661117 -0.083004
C -0.726585 0.229627 0.232697
C 0.484241 0.982770 0.490383
C -2.052564 0.797183 -0.128718
H 1.180617 -1.069695 -0.329596
H 0.935200 1.610037 -0.277144
H 0.960595 0.974365 1.464199
H -2.837071 0.037151 -0.051911
H -2.300191 1.627775 0.537274
H -2.063101 1.182710 -1.161624
$end
$scan
stre 2 4 2.200000 2.201000 0.100000
$end
--------------------------------------------------------------

   10    -317.4806132525      6.81e-07  Convergence criterion met
 Total energy in the final basis set =     -317.4806132525
   10    -317.4761824650      7.06e-07  Convergence criterion met
 Total energy in the final basis set =     -317.4761824650
   10    -317.4762070599      7.08e-07  Convergence criterion met
 Total energy in the final basis set =     -317.4762070599
   10    -317.4762404272      7.11e-07  Convergence criterion met
 Total energy in the final basis set =     -317.4762404272
   10    -317.4762451514      7.13e-07  Convergence criterion met
 Total energy in the final basis set =     -317.4762451514
   10    -317.4762470012      7.15e-07  Convergence criterion met
 Total energy in the final basis set =     -317.4762470012

             Standard Nuclear Orientation (Angstroms)
    I     Atom           X                Y                Z
 ----------------------------------------------------------------
    1      F      -0.5205968055    -1.0170003502    -0.4471946320
    2      F       1.9411123055    -0.6111489694    -0.0661353442
    3      C      -0.7176960576     0.2189249411     0.2297783479
    4      C       0.5009294124     0.9592551292     0.4813179325
    5      C      -2.0413705802     0.7940678350    -0.1278451964
    6      H       1.1618795640    -1.0616395082    -0.3321822902
    7      H       0.9349805135     1.6075353040    -0.2782583807
    8      H       0.9595413771     0.9750063620     1.4633584080
    9      H      -2.8306485436     0.0390585491    -0.0498079161
   10      H      -2.2822489646     1.6258571861     0.5391382680
   11      H      -2.0521842211     1.1804875214    -1.1604601968
 ----------------------------------------------------------------

   10    -317.4762473355      7.16e-07  Convergence criterion met
 Total energy in the final basis set =     -317.4762473355

                    Orbital Energies (a.u.)
 --------------------------------------------------------------

 Alpha MOs
 -- Occupied --
-24.710 -24.657 -10.273 -10.201 -10.199  -1.209  -1.162  -0.796
 -0.709  -0.589  -0.532  -0.487  -0.483  -0.463  -0.423  -0.412
 -0.402  -0.390  -0.374  -0.370  -0.205  -0.200

 Beta MOs
 -- Occupied --
-24.705 -24.654 -10.259 -10.199 -10.188  -1.198  -1.156  -0.769
 -0.683  -0.568  -0.527  -0.469  -0.456  -0.452  -0.408  -0.401
 -0.396  -0.372  -0.367  -0.362

          Ground-State Mulliken Net Atomic Charges

     Atom                 Charge (a.u.)    Spin (a.u.)
  --------------------------------------------------------
      1 F                    -0.318774       0.085819
      2 F                    -0.343416       0.048907
      3 C                     0.280792       0.901472
      4 C                    -0.253635       0.913397
      5 C                    -0.364260      -0.054175
      6 H                     0.361108       0.005811
      7 H                     0.121121       0.017982
      8 H                     0.131746      -0.013154
      9 H                     0.131883       0.023567
     10 H                     0.129134       0.004508
     11 H                     0.124302       0.065866
  --------------------------------------------------------
  Sum of atomic charges =    -0.000000

                    Cartesian Multipole Moments
 -----------------------------------------------------------------
    Charge (ESU x 10^10)
                -0.0000
    Dipole Moment (Debye)
         X      -1.6491      Y       0.9255      Z      -0.1068
       Tot       1.8941
    Quadrupole Moments (Debye-Ang)
        XX     -31.0030     XY      -0.4175     YY     -28.3108
        XZ       0.0730     YZ       0.0947     ZZ     -28.6214

 Final energy is   -317.476247335454
 **  OPTIMIZATION CONVERGED  **
 Total job time:  22.35s(wall), 255.16s(cpu)
        *  Thank you very much for using Q-Chem.  Have a nice day.  *
