 Q-Chem 5.1, Q-Chem, Inc., Pleasanton, CA (2018)
 Q-Chem 5.1.1 for Intel X86 EM64T Linux

User input:
--------------------------------------------------------------

$comment
potential surface scanner
$end

$rem
JOBTYPE  PES_SCAN
UNRESTRICTED TRUE
SYM_IGNORE  TRUE
GEOM_OPT_MAX_CYCLES 400
SCF_MAX_CYCLES 400
METHOD   B3LYP
BASIS   6-31G**
PDB_PRINT 2
SCF_CONVERGENCE 6
THRESH 14
SCF_PRINT 1
$end
$molecule
0 1
F -0.807758 -1.152997 0.956660
F 0.571266 -0.209270 -2.186714
C -0.575717 0.142460 0.640185
C 0.539135 0.728761 1.081169
C -1.661418 0.715177 -0.208359
H 0.818500 -0.026493 -1.306482
H 0.730470 1.771574 0.860955
H 1.248295 0.185367 1.694142
H -2.634612 0.551941 0.264943
H -1.513162 1.785627 -0.362014
H -1.661300 0.218260 -1.182784
$end
$scan
stre 2 4 3.500000 3.501000 0.100000
$end
--------------------------------------------------------------

   10    -317.5893507127      3.55e-07  Convergence criterion met
 Total energy in the final basis set =     -317.5893507127
   10    -317.5860240764      4.39e-07  Convergence criterion met
 Total energy in the final basis set =     -317.5860240764
   10    -317.5877527791      4.08e-07  Convergence criterion met
 Total energy in the final basis set =     -317.5877527791
   10    -317.5888148352      3.51e-07  Convergence criterion met
 Total energy in the final basis set =     -317.5888148352
   10    -317.5888879161      3.62e-07  Convergence criterion met
 Total energy in the final basis set =     -317.5888879161
   10    -317.5888917740      3.61e-07  Convergence criterion met
 Total energy in the final basis set =     -317.5888917740
   10    -317.5888950858      3.61e-07  Convergence criterion met
 Total energy in the final basis set =     -317.5888950858
   10    -317.5888964211      3.61e-07  Convergence criterion met
 Total energy in the final basis set =     -317.5888964211
   10    -317.5888975690      3.61e-07  Convergence criterion met
 Total energy in the final basis set =     -317.5888975690

             Standard Nuclear Orientation (Angstroms)
    I     Atom           X                Y                Z
 ----------------------------------------------------------------
    1      F      -0.7905994703    -1.1553267563     0.9496886799
    2      F       0.5398955956    -0.2321135537    -2.2444427888
    3      C      -0.5675075880     0.1465765511     0.6501248175
    4      C       0.5318611048     0.7406839554     1.1176395203
    5      C      -1.6473676658     0.7156421200    -0.2089503377
    6      H       0.7952464406    -0.0453364893    -1.3678057016
    7      H       0.7178111073     1.7864181382     0.9069851605
    8      H       1.2360730893     0.1994444984     1.7380791649
    9      H      -2.6242725170     0.5535973999     0.2571233131
   10      H      -1.4980577523     1.7856140371    -0.3651991236
   11      H      -1.6393833442     0.2152070993    -1.1815417046
 ----------------------------------------------------------------

   10    -317.5888982902      3.62e-07  Convergence criterion met
 Total energy in the final basis set =     -317.5888982902

                    Orbital Energies (a.u.)
 --------------------------------------------------------------

 Alpha MOs
 -- Occupied --
-24.708 -24.659 -10.288 -10.201 -10.195  -1.220  -1.162  -0.803
 -0.718  -0.587  -0.515  -0.501  -0.491  -0.473  -0.422  -0.414
 -0.399  -0.373  -0.371  -0.369  -0.267

 Beta MOs
 -- Occupied --
-24.708 -24.659 -10.288 -10.201 -10.195  -1.220  -1.162  -0.803
 -0.718  -0.587  -0.515  -0.501  -0.491  -0.473  -0.422  -0.414
 -0.399  -0.373  -0.371  -0.369  -0.267

          Ground-State Mulliken Net Atomic Charges

     Atom                 Charge (a.u.)    Spin (a.u.)
  --------------------------------------------------------
      1 F                    -0.284586      -0.000000
      2 F                    -0.363377       0.000000
      3 C                     0.370428       0.000000
      4 C                    -0.339906      -0.000000
      5 C                    -0.387750       0.000000
      6 H                     0.348163       0.000000
      7 H                     0.117062      -0.000000
      8 H                     0.122422       0.000000
      9 H                     0.135810       0.000000
     10 H                     0.124004      -0.000000
     11 H                     0.157731      -0.000000
  --------------------------------------------------------
  Sum of atomic charges =     0.000000

                    Cartesian Multipole Moments
 -----------------------------------------------------------------
    Charge (ESU x 10^10)
                 0.0000
    Dipole Moment (Debye)
         X      -0.1127      Y       1.6127      Z       1.3367
       Tot       2.0977
    Quadrupole Moments (Debye-Ang)
        XX     -26.5741     XY      -0.7672     YY     -29.1268
        XZ       1.9513     YZ      -0.2446     ZZ     -35.2816

 Final energy is   -317.588898290192
 **  OPTIMIZATION CONVERGED  **
 Total job time:  33.20s(wall), 376.21s(cpu)
        *  Thank you very much for using Q-Chem.  Have a nice day.  *
