 Q-Chem 5.1, Q-Chem, Inc., Pleasanton, CA (2018)
 Q-Chem 5.1.1 for Intel X86 EM64T Linux

User input:
--------------------------------------------------------------

$comment
potential surface scanner
$end

$rem
JOBTYPE  PES_SCAN
UNRESTRICTED TRUE
SYM_IGNORE  TRUE
GEOM_OPT_MAX_CYCLES 400
SCF_MAX_CYCLES 400
METHOD   B3LYP
BASIS   6-31G**
PDB_PRINT 2
SCF_CONVERGENCE 6
THRESH 14
SCF_PRINT 1
$end
$molecule
0 1
F -0.496773 -1.345693 0.155435
F 1.892940 0.065678 -0.146616
C -0.435044 -0.034017 -0.330666
C 0.797760 0.628170 0.270735
C -1.728724 0.678577 0.021298
H -0.306095 -0.101079 -1.419608
H 0.786536 1.698470 0.004526
H 0.721066 0.559671 1.368129
H -1.836822 0.773283 1.106588
H -1.760554 1.678974 -0.421289
H -2.580589 0.108366 -0.356832
$end
$scan
stre 2 4 1.400000 1.401000 0.100000
$end
--------------------------------------------------------------

    9    -317.6038148385      6.14e-07  Convergence criterion met
 Total energy in the final basis set =     -317.6038148385
    8    -317.6084562898      8.97e-07  Convergence criterion met
 Total energy in the final basis set =     -317.6084562898
    8    -317.6090257394      8.89e-07  Convergence criterion met
 Total energy in the final basis set =     -317.6090257394
    8    -317.6090962901      8.84e-07  Convergence criterion met
 Total energy in the final basis set =     -317.6090962901
    8    -317.6091000579      8.85e-07  Convergence criterion met
 Total energy in the final basis set =     -317.6091000579

             Standard Nuclear Orientation (Angstroms)
    I     Atom           X                Y                Z
 ----------------------------------------------------------------
    1      F      -0.4994613948    -1.3367631544     0.1651133604
    2      F       1.9418271432     0.0330072427    -0.1803820968
    3      C      -0.4395675310    -0.0284310130    -0.3224337872
    4      C       0.7722832583     0.6454814706     0.2854957124
    5      C      -1.7417412338     0.6778110175     0.0186798521
    6      H      -0.3004979804    -0.0918763735    -1.4094354390
    7      H       0.8006257831     1.7057826138     0.0069808353
    8      H       0.7429056774     0.5558983495     1.3776137402
    9      H      -1.8612204162     0.7709914382     1.1027608274
   10      H      -1.7766446736     1.6778993229    -0.4243978999
   11      H      -2.5848076322     0.1005990856    -0.3682951050
 ----------------------------------------------------------------

    8    -317.6091010433      8.84e-07  Convergence criterion met
 Total energy in the final basis set =     -317.6091010433

                    Orbital Energies (a.u.)
 --------------------------------------------------------------

 Alpha MOs
 -- Occupied --
-24.672 -24.671 -10.270 -10.265 -10.195  -1.183  -1.170  -0.796
 -0.701  -0.610  -0.520  -0.496  -0.488  -0.456  -0.439  -0.408
 -0.400  -0.375  -0.339  -0.333  -0.316

 Beta MOs
 -- Occupied --
-24.672 -24.671 -10.270 -10.265 -10.195  -1.183  -1.170  -0.796
 -0.701  -0.610  -0.520  -0.496  -0.488  -0.456  -0.439  -0.408
 -0.400  -0.375  -0.339  -0.333  -0.316

          Ground-State Mulliken Net Atomic Charges

     Atom                 Charge (a.u.)    Spin (a.u.)
  --------------------------------------------------------
      1 F                    -0.323434      -0.000000
      2 F                    -0.320398       0.000000
      3 C                     0.214287       0.000000
      4 C                     0.127617      -0.000000
      5 C                    -0.354422      -0.000000
      6 H                     0.099331       0.000000
      7 H                     0.090543       0.000000
      8 H                     0.104374      -0.000000
      9 H                     0.120043       0.000000
     10 H                     0.110610       0.000000
     11 H                     0.131450       0.000000
  --------------------------------------------------------
  Sum of atomic charges =     0.000000

                    Cartesian Multipole Moments
 -----------------------------------------------------------------
    Charge (ESU x 10^10)
                 0.0000
    Dipole Moment (Debye)
         X      -1.5787      Y       2.2291      Z      -0.0002
       Tot       2.7316
    Quadrupole Moments (Debye-Ang)
        XX     -31.5272     XY      -0.2543     YY     -29.9449
        XZ       1.0550     YZ       0.4960     ZZ     -27.6905

 Final energy is   -317.609101043347
 **  OPTIMIZATION CONVERGED  **
 Total job time:  17.02s(wall), 193.55s(cpu)
        *  Thank you very much for using Q-Chem.  Have a nice day.  *
