 Q-Chem 5.1, Q-Chem, Inc., Pleasanton, CA (2018)
 Q-Chem 5.1.1 for Intel X86 EM64T Linux

User input:
--------------------------------------------------------------

$comment
potential surface scanner
$end

$rem
JOBTYPE  PES_SCAN
UNRESTRICTED TRUE
SYM_IGNORE  TRUE
GEOM_OPT_MAX_CYCLES 400
SCF_MAX_CYCLES 400
METHOD   B3LYP
BASIS   6-31G**
PDB_PRINT 2
SCF_CONVERGENCE 6
THRESH 14
SCF_PRINT 1
$end
$molecule
0 3
F -0.250147 -1.051130 0.507849
F 0.800782 -0.547280 -1.858661
C -0.652081 0.281732 0.702256
C 0.418962 1.136938 1.185616
C -1.685572 0.680167 -0.290790
H 0.531995 -0.983572 -1.077238
H 1.186591 1.497461 0.498916
H 0.541275 1.358980 2.241991
H -2.534163 -0.012310 -0.270980
H -2.049194 1.689400 -0.084025
H -1.254745 0.660014 -1.303231
$end
$scan
stre 2 4 3.400000 3.401000 0.100000
$end
--------------------------------------------------------------

   10    -317.4908596769      6.38e-07  Convergence criterion met
 Total energy in the final basis set =     -317.4908596769
   10    -317.4908855300      6.36e-07  Convergence criterion met
 Total energy in the final basis set =     -317.4908855300
   10    -317.4909766204      6.35e-07  Convergence criterion met
 Total energy in the final basis set =     -317.4909766204
   10    -317.4910120572      6.35e-07  Convergence criterion met
 Total energy in the final basis set =     -317.4910120572
   10    -317.4910152873      6.35e-07  Convergence criterion met
 Total energy in the final basis set =     -317.4910152873
   10    -317.4910172214      6.37e-07  Convergence criterion met
 Total energy in the final basis set =     -317.4910172214
   10    -317.4910186608      6.38e-07  Convergence criterion met
 Total energy in the final basis set =     -317.4910186608
   10    -317.4910198366      6.39e-07  Convergence criterion met
 Total energy in the final basis set =     -317.4910198366

             Standard Nuclear Orientation (Angstroms)
    I     Atom           X                Y                Z
 ----------------------------------------------------------------
    1      F      -0.2835854960    -1.0627629167     0.5103290575
    2      F       0.8543939410    -0.4968835276    -1.8013825417
    3      C      -0.6678538649     0.2759500312     0.7020780776
    4      C       0.4239635544     1.1204241497     1.1581861419
    5      C      -1.7023056564     0.6814245469    -0.2873093413
    6      H       0.5616948817    -0.9624516801    -1.0458684598
    7      H       1.1852923221     1.4543381345     0.4516446127
    8      H       0.5690827136     1.3527386211     2.2092896782
    9      H      -2.5525699514    -0.0087924602    -0.2692694045
   10      H      -2.0624579997     1.6909655869    -0.0758614957
   11      H      -1.2719514442     0.6654495145    -1.3001333249
 ----------------------------------------------------------------

   10    -317.4910206415      6.40e-07  Convergence criterion met
 Total energy in the final basis set =     -317.4910206415

                    Orbital Energies (a.u.)
 --------------------------------------------------------------

 Alpha MOs
 -- Occupied --
-24.717 -24.648 -10.281 -10.222 -10.197  -1.217  -1.151  -0.802
 -0.716  -0.597  -0.523  -0.498  -0.480  -0.477  -0.433  -0.414
 -0.405  -0.373  -0.364  -0.362  -0.250  -0.209

 Beta MOs
 -- Occupied --
-24.712 -24.648 -10.267 -10.209 -10.197  -1.206  -1.151  -0.774
 -0.691  -0.576  -0.515  -0.483  -0.465  -0.457  -0.418  -0.404
 -0.400  -0.365  -0.363  -0.361

          Ground-State Mulliken Net Atomic Charges

     Atom                 Charge (a.u.)    Spin (a.u.)
  --------------------------------------------------------
      1 F                    -0.304346       0.082898
      2 F                    -0.382929       0.000488
      3 C                     0.287376       0.879511
      4 C                    -0.252493       1.003183
      5 C                    -0.376278      -0.048695
      6 H                     0.353943       0.004279
      7 H                     0.138329       0.011852
      8 H                     0.133599      -0.020630
      9 H                     0.132395       0.024041
     10 H                     0.125470       0.002212
     11 H                     0.144934       0.060860
  --------------------------------------------------------
  Sum of atomic charges =     0.000000

                    Cartesian Multipole Moments
 -----------------------------------------------------------------
    Charge (ESU x 10^10)
                 0.0000
    Dipole Moment (Debye)
         X      -0.9443      Y       1.0237      Z       1.5033
       Tot       2.0493
    Quadrupole Moments (Debye-Ang)
        XX     -28.2934     XY      -0.0652     YY     -28.2872
        XZ       2.7335     YZ       0.9734     ZZ     -32.3839

 Final energy is   -317.491020641487
 **  OPTIMIZATION CONVERGED  **
 Total job time:  28.90s(wall), 330.36s(cpu)
        *  Thank you very much for using Q-Chem.  Have a nice day.  *
