 Q-Chem 5.1, Q-Chem, Inc., Pleasanton, CA (2018)
 Q-Chem 5.1.1 for Intel X86 EM64T Linux

User input:
--------------------------------------------------------------

$comment
potential surface scanner
$end

$rem
JOBTYPE  PES_SCAN
UNRESTRICTED TRUE
SYM_IGNORE  TRUE
GEOM_OPT_MAX_CYCLES 400
SCF_MAX_CYCLES 400
METHOD   B3LYP
BASIS   6-31G**
PDB_PRINT 2
SCF_CONVERGENCE 6
THRESH 14
SCF_PRINT 1
$end
$molecule
0 3
F -0.343191 -1.083532 0.507415
F 0.954547 -0.403690 -1.680913
C -0.693164 0.266064 0.695799
C 0.435622 1.087307 1.102546
C -1.734263 0.684640 -0.281300
H 0.616416 -0.920728 -0.979552
H 1.184715 1.372571 0.363394
H 0.618561 1.337845 2.143339
H -2.585935 -0.003391 -0.263935
H -2.089283 1.693498 -0.057855
H -1.310321 0.679818 -1.297231
$end
$scan
stre 2 4 3.100000 3.101000 0.100000
$end
--------------------------------------------------------------

   10    -317.4912954807      6.44e-07  Convergence criterion met
 Total energy in the final basis set =     -317.4912954807
   10    -317.4912144853      6.41e-07  Convergence criterion met
 Total energy in the final basis set =     -317.4912144853
   10    -317.4912842182      6.42e-07  Convergence criterion met
 Total energy in the final basis set =     -317.4912842182
   10    -317.4913001218      6.45e-07  Convergence criterion met
 Total energy in the final basis set =     -317.4913001218
   10    -317.4913014322      6.45e-07  Convergence criterion met
 Total energy in the final basis set =     -317.4913014322
   10    -317.4913024825      6.46e-07  Convergence criterion met
 Total energy in the final basis set =     -317.4913024825

             Standard Nuclear Orientation (Angstroms)
    I     Atom           X                Y                Z
 ----------------------------------------------------------------
    1      F      -0.3682956601    -1.0939183207     0.5020173630
    2      F       0.9986581322    -0.3581864612    -1.6188146013
    3      C      -0.7018495939     0.2608571807     0.6893648435
    4      C       0.4422969813     1.0703580976     1.0755728470
    5      C      -1.7484769124     0.6853994670    -0.2791571838
    6      H       0.6393891277    -0.9002353662    -0.9473035825
    7      H       1.1848739926     1.3402477908     0.3249116547
    8      H       0.6387111120     1.3272366456     2.1124096806
    9      H      -2.6034017727     0.0017677264    -0.2560859610
   10      H      -2.0964403889     1.6961665805    -0.0529590982
   11      H      -1.3317610176     0.6807086595    -1.2982489619
 ----------------------------------------------------------------

   10    -317.4913033390      6.47e-07  Convergence criterion met
 Total energy in the final basis set =     -317.4913033390

                    Orbital Energies (a.u.)
 --------------------------------------------------------------

 Alpha MOs
 -- Occupied --
-24.715 -24.652 -10.280 -10.219 -10.197  -1.216  -1.155  -0.801
 -0.715  -0.595  -0.526  -0.496  -0.480  -0.477  -0.432  -0.414
 -0.404  -0.372  -0.367  -0.366  -0.247  -0.209

 Beta MOs
 -- Occupied --
-24.711 -24.652 -10.266 -10.205 -10.197  -1.204  -1.154  -0.773
 -0.689  -0.574  -0.518  -0.481  -0.464  -0.456  -0.417  -0.404
 -0.399  -0.367  -0.366  -0.361

          Ground-State Mulliken Net Atomic Charges

     Atom                 Charge (a.u.)    Spin (a.u.)
  --------------------------------------------------------
      1 F                    -0.306531       0.083365
      2 F                    -0.378338       0.000444
      3 C                     0.283974       0.880309
      4 C                    -0.256197       1.002535
      5 C                    -0.370847      -0.047937
      6 H                     0.354987       0.004359
      7 H                     0.142953       0.011281
      8 H                     0.130861      -0.021439
      9 H                     0.131884       0.022183
     10 H                     0.126291       0.002670
     11 H                     0.140962       0.062229
  --------------------------------------------------------
  Sum of atomic charges =    -0.000000

                    Cartesian Multipole Moments
 -----------------------------------------------------------------
    Charge (ESU x 10^10)
                -0.0000
    Dipole Moment (Debye)
         X      -1.0230      Y       0.8481      Z       1.2240
       Tot       1.8066
    Quadrupole Moments (Debye-Ang)
        XX     -28.5298     XY      -0.3837     YY     -28.3954
        XZ       2.8208     YZ       1.2544     ZZ     -31.6773

 Final energy is   -317.491303338989
 **  OPTIMIZATION CONVERGED  **
 Total job time:  23.58s(wall), 258.49s(cpu)
        *  Thank you very much for using Q-Chem.  Have a nice day.  *
