 Q-Chem 5.1, Q-Chem, Inc., Pleasanton, CA (2018)
 Q-Chem 5.1.1 for Intel X86 EM64T Linux

User input:
--------------------------------------------------------------

$comment
potential surface scanner
$end

$rem
JOBTYPE  PES_SCAN
UNRESTRICTED TRUE
SYM_IGNORE  TRUE
GEOM_OPT_MAX_CYCLES 400
SCF_MAX_CYCLES 400
METHOD   B3LYP
BASIS   6-31G**
PDB_PRINT 2
SCF_CONVERGENCE 6
THRESH 14
SCF_PRINT 1
$end
$molecule
0 1
F -0.499461 -1.336763 0.165113
F 1.941827 0.033007 -0.180382
C -0.439568 -0.028431 -0.322434
C 0.772283 0.645481 0.285496
C -1.741741 0.677811 0.018680
H -0.300498 -0.091876 -1.409435
H 0.800626 1.705783 0.006981
H 0.742906 0.555898 1.377614
H -1.861220 0.770991 1.102761
H -1.776645 1.677899 -0.424398
H -2.584808 0.100599 -0.368295
$end
$scan
stre 2 4 1.500000 1.501000 0.100000
$end
--------------------------------------------------------------

    8    -317.6091010424      8.84e-07  Convergence criterion met
 Total energy in the final basis set =     -317.6091010424
    9    -317.6027341792      8.12e-07  Convergence criterion met
 Total energy in the final basis set =     -317.6027341792
    9    -317.6029734398      8.07e-07  Convergence criterion met
 Total energy in the final basis set =     -317.6029734398
    9    -317.6030528502      8.06e-07  Convergence criterion met
 Total energy in the final basis set =     -317.6030528502
    9    -317.6030585604      8.06e-07  Convergence criterion met
 Total energy in the final basis set =     -317.6030585604
    9    -317.6030622735      8.05e-07  Convergence criterion met
 Total energy in the final basis set =     -317.6030622735
    9    -317.6030659009      8.05e-07  Convergence criterion met
 Total energy in the final basis set =     -317.6030659009
    9    -317.6030697804      8.04e-07  Convergence criterion met
 Total energy in the final basis set =     -317.6030697804
    9    -317.6030713827      8.03e-07  Convergence criterion met
 Total energy in the final basis set =     -317.6030713827

             Standard Nuclear Orientation (Angstroms)
    I     Atom           X                Y                Z
 ----------------------------------------------------------------
    1      F      -0.5075790822    -1.3283059825     0.1906274306
    2      F       1.9913844414     0.0207307350    -0.2396181340
    3      C      -0.4449840605    -0.0269450015    -0.3088281716
    4      C       0.7480236737     0.6609244353     0.3027891388
    5      C      -1.7542258781     0.6796406662     0.0116685914
    6      H      -0.2919929642    -0.0963924618    -1.3927818242
    7      H       0.7995135168     1.7172326261     0.0297634341
    8      H       0.7778892215     0.5315416197     1.3867437657
    9      H      -1.8904238778     0.7760438730     1.0933777891
   10      H      -1.7846478679     1.6777753305    -0.4358735444
   11      H      -2.5892561226     0.0981531599    -0.3861674754
 ----------------------------------------------------------------

    9    -317.6030716708      8.03e-07  Convergence criterion met
 Total energy in the final basis set =     -317.6030716708

                    Orbital Energies (a.u.)
 --------------------------------------------------------------

 Alpha MOs
 -- Occupied --
-24.673 -24.658 -10.274 -10.269 -10.198  -1.181  -1.134  -0.800
 -0.704  -0.611  -0.520  -0.486  -0.479  -0.446  -0.434  -0.406
 -0.401  -0.367  -0.337  -0.336  -0.321

 Beta MOs
 -- Occupied --
-24.673 -24.658 -10.274 -10.269 -10.198  -1.181  -1.134  -0.800
 -0.704  -0.611  -0.520  -0.486  -0.479  -0.446  -0.434  -0.406
 -0.401  -0.367  -0.337  -0.336  -0.321

          Ground-State Mulliken Net Atomic Charges

     Atom                 Charge (a.u.)    Spin (a.u.)
  --------------------------------------------------------
      1 F                    -0.320660      -0.000000
      2 F                    -0.348329       0.000000
      3 C                     0.221539       0.000000
      4 C                     0.102254       0.000000
      5 C                    -0.356182       0.000000
      6 H                     0.106152      -0.000000
      7 H                     0.107172      -0.000000
      8 H                     0.121530      -0.000000
      9 H                     0.121005      -0.000000
     10 H                     0.111743       0.000000
     11 H                     0.133778      -0.000000
  --------------------------------------------------------
  Sum of atomic charges =    -0.000000

                    Cartesian Multipole Moments
 -----------------------------------------------------------------
    Charge (ESU x 10^10)
                 0.0000
    Dipole Moment (Debye)
         X      -1.9349      Y       2.3529      Z       0.1516
       Tot       3.0500
    Quadrupole Moments (Debye-Ang)
        XX     -32.2433     XY      -0.1772     YY     -29.6433
        XZ       1.3690     YZ       0.5935     ZZ     -27.5431

 Final energy is   -317.603071670790
 **  OPTIMIZATION CONVERGED  **
 Total job time:  29.19s(wall), 336.10s(cpu)
        *  Thank you very much for using Q-Chem.  Have a nice day.  *
