 Q-Chem 5.1, Q-Chem, Inc., Pleasanton, CA (2018)
 Q-Chem 5.1.1 for Intel X86 EM64T Linux

User input:
--------------------------------------------------------------

$comment
potential surface scanner
$end

$rem
JOBTYPE  PES_SCAN
UNRESTRICTED TRUE
SYM_IGNORE  TRUE
GEOM_OPT_MAX_CYCLES 400
SCF_MAX_CYCLES 400
METHOD   B3LYP
BASIS   6-31G**
PDB_PRINT 2
SCF_CONVERGENCE 6
THRESH 14
SCF_PRINT 1
$end
$molecule
0 1
F -1.043651 -1.079139 1.318236
F 0.818946 0.687329 -2.027107
C -0.650493 0.053162 0.690824
C 0.556630 0.556506 0.958538
C -1.694144 0.580077 -0.237000
H 0.875688 0.247128 -1.205997
H 0.873706 1.482137 0.494657
H 1.212222 0.078201 1.676219
H -2.562864 0.930683 0.330858
H -1.295589 1.392162 -0.844018
H -2.036752 -0.217841 -0.903506
$end
$scan
stre 2 4 3.100000 3.101000 0.100000
$end
--------------------------------------------------------------

   10    -317.5898207152      3.70e-07  Convergence criterion met
 Total energy in the final basis set =     -317.5898207152
   10    -317.5873607562      4.11e-07  Convergence criterion met
 Total energy in the final basis set =     -317.5873607562
   10    -317.5887712634      3.93e-07  Convergence criterion met
 Total energy in the final basis set =     -317.5887712634
   10    -317.5895699105      3.55e-07  Convergence criterion met
 Total energy in the final basis set =     -317.5895699105
   10    -317.5896177579      3.64e-07  Convergence criterion met
 Total energy in the final basis set =     -317.5896177579
   10    -317.5896226579      3.64e-07  Convergence criterion met
 Total energy in the final basis set =     -317.5896226579
   10    -317.5896365734      3.63e-07  Convergence criterion met
 Total energy in the final basis set =     -317.5896365734
   10    -317.5896390073      3.63e-07  Convergence criterion met
   10    -317.5899914611      3.49e-07  Convergence criterion met
 Total energy in the final basis set =     -317.5899914611
   10    -317.5899990108      3.49e-07  Convergence criterion met
 Total energy in the final basis set =     -317.5899990108
   10    -317.5900006980      3.49e-07  Convergence criterion met
 Total energy in the final basis set =     -317.5900006980
   10    -317.5900023805      3.49e-07  Convergence criterion met
 Total energy in the final basis set =     -317.5900023805
   10    -317.5900035358      3.49e-07  Convergence criterion met
 Total energy in the final basis set =     -317.5900035358
   10    -317.5900052420      3.49e-07  Convergence criterion met
 Total energy in the final basis set =     -317.5900052420

             Standard Nuclear Orientation (Angstroms)
    I     Atom           X                Y                Z
 ----------------------------------------------------------------
    1      F      -0.8715209969    -1.1420522478     1.0204752379
    2      F       0.6751421433    -0.0392278204    -2.0371392465
    3      C      -0.6013205809     0.1214959602     0.6249514419
    4      C       0.5603940347     0.6784103069     0.9764676090
    5      C      -1.6931349684     0.6953776942    -0.2130796922
    6      H       0.8431239557     0.0576636283    -1.1228241360
    7      H       0.7787474187     1.7015499934     0.6966054234
    8      H       1.2704319028     0.1403002349     1.5931522992
    9      H      -2.6537715232     0.5930018827     0.3007452494
   10      H      -1.5091527559     1.7497894973    -0.4255005581
   11      H      -1.7452396300     0.1540958703    -1.1621496281
 ----------------------------------------------------------------

   10    -317.5900061941      3.49e-07  Convergence criterion met
 Total energy in the final basis set =     -317.5900061941

                    Orbital Energies (a.u.)
 --------------------------------------------------------------

 Alpha MOs
 -- Occupied --
-24.714 -24.646 -10.295 -10.203 -10.198  -1.226  -1.150  -0.808
 -0.722  -0.592  -0.510  -0.502  -0.495  -0.475  -0.426  -0.416
 -0.402  -0.373  -0.362  -0.361  -0.272

 Beta MOs
 -- Occupied --
-24.714 -24.646 -10.295 -10.203 -10.198  -1.226  -1.150  -0.808
 -0.722  -0.592  -0.510  -0.502  -0.495  -0.475  -0.426  -0.416
 -0.402  -0.373  -0.362  -0.361  -0.272

          Ground-State Mulliken Net Atomic Charges

     Atom                 Charge (a.u.)    Spin (a.u.)
  --------------------------------------------------------
      1 F                    -0.279072      -0.000000
      2 F                    -0.380747       0.000000
      3 C                     0.384236      -0.000000
      4 C                    -0.365291      -0.000000
      5 C                    -0.382040       0.000000
      6 H                     0.343023      -0.000000
      7 H                     0.126839       0.000000
      8 H                     0.127789      -0.000000
      9 H                     0.135212      -0.000000
     10 H                     0.127961      -0.000000
     11 H                     0.162090       0.000000
  --------------------------------------------------------
  Sum of atomic charges =     0.000000

                    Cartesian Multipole Moments
 -----------------------------------------------------------------
    Charge (ESU x 10^10)
                -0.0000
    Dipole Moment (Debye)
         X      -0.4692      Y       1.4268      Z       1.5261
       Tot       2.1412
    Quadrupole Moments (Debye-Ang)
        XX     -26.5632     XY      -0.8679     YY     -28.9502
        XZ       2.6841     YZ       0.2248     ZZ     -35.0279

 Final energy is   -317.590006194148
 **  OPTIMIZATION CONVERGED  **
 Total job time:  90.56s(wall), 1042.22s(cpu)
        *  Thank you very much for using Q-Chem.  Have a nice day.  *
