 Q-Chem 5.1, Q-Chem, Inc., Pleasanton, CA (2018)
 Q-Chem 5.1.1 for Intel X86 EM64T Linux

User input:
--------------------------------------------------------------

$comment
potential surface scanner
$end

$rem
JOBTYPE  PES_SCAN
UNRESTRICTED TRUE
SYM_IGNORE  TRUE
GEOM_OPT_MAX_CYCLES 400
SCF_MAX_CYCLES 400
METHOD   B3LYP
BASIS   6-31G**
PDB_PRINT 2
SCF_CONVERGENCE 6
THRESH 14
SCF_PRINT 1
$end
$molecule
0 3
S 4.438078 -0.000448 0.063345
C -0.660258 0.000352 -0.066916
C -1.380050 -1.298131 0.083296
C -1.380294 1.298731 0.082987
H 0.325888 0.000381 -0.523076
H -2.068748 -1.490616 -0.758765
H -0.690959 -2.147189 0.130142
H -2.000785 -1.314448 0.990001
H -2.068676 1.491115 -0.759356
H -0.691341 2.147889 0.130098
H -2.001388 1.314968 0.989444
H 3.708432 -0.001801 1.201203
$end
$scan
stre 1 2 5.000000 5.001000 0.100000
$end
--------------------------------------------------------------

    9    -517.2317491716      8.68e-07  Convergence criterion met
 Total energy in the final basis set =     -517.2317491716
    9    -517.2303886246      8.31e-07  Convergence criterion met
 Total energy in the final basis set =     -517.2303886246
    9    -517.2314810954      8.48e-07  Convergence criterion met
 Total energy in the final basis set =     -517.2314810954
    9    -517.2317802354      8.67e-07  Convergence criterion met
 Total energy in the final basis set =     -517.2317802354
    9    -517.2317850243      8.69e-07  Convergence criterion met
 Total energy in the final basis set =     -517.2317850243

             Standard Nuclear Orientation (Angstroms)
    I     Atom           X                Y                Z
 ----------------------------------------------------------------
    1      S       4.3505304417    -0.0005337760     0.0797951279
    2      C      -0.6465892794     0.0003232354    -0.0898921504
    3      C      -1.3607906157    -1.2983076901     0.0835919388
    4      C      -1.3609877549     1.2988783753     0.0833330447
    5      H       0.3266481427     0.0003445831    -0.5743719891
    6      H      -2.0740163386    -1.4927457755    -0.7373476460
    7      H      -0.6700214384    -2.1468499329     0.1112575320
    8      H      -1.9544291690    -1.3135250377     1.0082959657
    9      H      -2.0739334569     1.4932473305    -0.7378668631
   10      H      -0.6703148760     2.1474932233     0.1112432376
   11      H      -1.9549530015     1.3140333083     1.0078251651
   12      H       3.6187563460    -0.0015548436     1.2165396368
 ----------------------------------------------------------------

    9    -517.2317853375      8.69e-07  Convergence criterion met
 Total energy in the final basis set =     -517.2317853375

                    Orbital Energies (a.u.)
 --------------------------------------------------------------

 Alpha MOs
 -- Occupied --
-88.912 -10.185 -10.176 -10.176  -7.973  -5.944  -5.934  -5.925
 -0.776  -0.739  -0.687  -0.566  -0.447  -0.424  -0.413  -0.404
 -0.381  -0.350  -0.344  -0.321  -0.274  -0.178

 Beta MOs
 -- Occupied --
-88.906 -10.177 -10.177 -10.171  -7.968  -5.931  -5.926  -5.922
 -0.759  -0.699  -0.684  -0.545  -0.442  -0.407  -0.399  -0.399
 -0.375  -0.347  -0.338  -0.259

          Ground-State Mulliken Net Atomic Charges

     Atom                 Charge (a.u.)    Spin (a.u.)
  --------------------------------------------------------
      1 S                    -0.075284       1.027606
      2 C                    -0.079451       1.019014
      3 C                    -0.333339      -0.080053
      4 C                    -0.333339      -0.080051
      5 H                     0.095618      -0.046546
      6 H                     0.109940       0.062318
      7 H                     0.108002       0.005998
      8 H                     0.106787       0.025410
      9 H                     0.109941       0.062323
     10 H                     0.108010       0.006009
     11 H                     0.106783       0.025389
     12 H                     0.076331      -0.027418
  --------------------------------------------------------
  Sum of atomic charges =    -0.000000

                    Cartesian Multipole Moments
 -----------------------------------------------------------------
    Charge (ESU x 10^10)
                 0.0000
    Dipole Moment (Debye)
         X      -0.6876      Y      -0.0008      Z       0.7327
       Tot       1.0048
    Quadrupole Moments (Debye-Ang)
        XX     -39.5165     XY      -0.0020     YY     -33.1196
        XZ       1.8193     YZ      -0.0007     ZZ     -33.8640

 Final energy is   -517.231785337534
 **  OPTIMIZATION CONVERGED  **
 Total job time:  16.75s(wall), 185.23s(cpu)
        *  Thank you very much for using Q-Chem.  Have a nice day.  *
