 Q-Chem 5.1, Q-Chem, Inc., Pleasanton, CA (2018)
 Q-Chem 5.1.1 for Intel X86 EM64T Linux

User input:
--------------------------------------------------------------

$comment
potential surface scanner
$end

$rem
JOBTYPE  PES_SCAN
UNRESTRICTED TRUE
SYM_IGNORE  TRUE
GEOM_OPT_MAX_CYCLES 400
SCF_MAX_CYCLES 400
METHOD   B3LYP
BASIS   6-31G**
PDB_PRINT 2
SCF_CONVERGENCE 6
THRESH 14
SCF_PRINT 1
$end
$molecule
0 3
S 3.737303 0.013203 1.131800
C -0.594680 -0.003328 -0.415341
C -1.139830 -1.300495 0.083316
C -1.129563 1.297049 0.086130
H -0.034516 -0.004569 -1.348018
H -2.142920 -1.510298 -0.328948
H -0.502999 -2.147803 -0.190571
H -1.254006 -1.296706 1.175148
H -2.131966 1.514603 -0.323791
H -0.487231 2.140157 -0.187845
H -1.241674 1.292599 1.178198
H 2.451980 0.006390 0.702326
$end
$scan
stre 1 2 4.500000 4.501000 0.100000
$end
--------------------------------------------------------------

    9    -517.2331115745      9.16e-07  Convergence criterion met
 Total energy in the final basis set =     -517.2331115745
    9    -517.2314286696      8.18e-07  Convergence criterion met
 Total energy in the final basis set =     -517.2314286696
    9    -517.2329290216      8.86e-07  Convergence criterion met
 Total energy in the final basis set =     -517.2329290216
    9    -517.2333402362      9.19e-07  Convergence criterion met
 Total energy in the final basis set =     -517.2333402362

             Standard Nuclear Orientation (Angstroms)
    I     Atom           X                Y                Z
 ----------------------------------------------------------------
    1      S       3.6496133765     0.0123800324     1.1221527627
    2      C      -0.5797829677    -0.0031209726    -0.4147162366
    3      C      -1.1210597242    -1.3007787329     0.0868633103
    4      C      -1.1112356598     1.2976164780     0.0894943862
    5      H      -0.0303927840    -0.0042066903    -1.3539993735
    6      H      -2.1257889564    -1.5114743784    -0.3209288349
    7      H      -0.4841959251    -2.1471939476    -0.1893707159
    8      H      -1.2304998335    -1.2969088229     1.1791465806
    9      H      -2.1153010391     1.5157069548    -0.3160668648
   10      H      -0.4691227735     2.1399907594    -0.1868743512
   11      H      -1.2188218751     1.2931051277     1.1819857769
   12      H       2.3664861619     0.0056861924     0.6847175601
 ----------------------------------------------------------------

    9    -517.2333475071      9.26e-07  Convergence criterion met
 Total energy in the final basis set =     -517.2333475071

                    Orbital Energies (a.u.)
 --------------------------------------------------------------

 Alpha MOs
 -- Occupied --
-88.905 -10.196 -10.183 -10.183  -7.967  -5.938  -5.928  -5.919
 -0.784  -0.732  -0.694  -0.574  -0.455  -0.432  -0.411  -0.406
 -0.389  -0.358  -0.351  -0.316  -0.268  -0.189

 Beta MOs
 -- Occupied --
-88.900 -10.184 -10.184 -10.183  -7.961  -5.925  -5.920  -5.916
 -0.767  -0.692  -0.691  -0.553  -0.450  -0.414  -0.405  -0.392
 -0.382  -0.354  -0.346  -0.254

          Ground-State Mulliken Net Atomic Charges

     Atom                 Charge (a.u.)    Spin (a.u.)
  --------------------------------------------------------
      1 S                    -0.087480       1.033463
      2 C                    -0.082740       1.002912
      3 C                    -0.335312      -0.077286
      4 C                    -0.335443      -0.077304
      5 H                     0.091009      -0.044088
      6 H                     0.113958       0.064408
      7 H                     0.113104       0.008099
      8 H                     0.110301       0.019493
      9 H                     0.113981       0.064443
     10 H                     0.113166       0.008033
     11 H                     0.110242       0.019597
     12 H                     0.075215      -0.021771
  --------------------------------------------------------
  Sum of atomic charges =     0.000000

                    Cartesian Multipole Moments
 -----------------------------------------------------------------
    Charge (ESU x 10^10)
                 0.0000
    Dipole Moment (Debye)
         X      -1.5744      Y      -0.0053      Z      -0.4771
       Tot       1.6451
    Quadrupole Moments (Debye-Ang)
        XX     -40.4209     XY      -0.0500     YY     -35.7263
        XZ      -2.6480     YZ       0.1056     ZZ     -33.9316

 Final energy is   -517.233347507110
 **  OPTIMIZATION CONVERGED  **
 Total job time:  14.33s(wall), 160.69s(cpu)
        *  Thank you very much for using Q-Chem.  Have a nice day.  *
