 Q-Chem 5.1, Q-Chem, Inc., Pleasanton, CA (2018)
 Q-Chem 5.1.1 for Intel X86 EM64T Linux

User input:
--------------------------------------------------------------

$comment
potential surface scanner
$end

$rem
JOBTYPE  PES_SCAN
UNRESTRICTED TRUE
SYM_IGNORE  TRUE
GEOM_OPT_MAX_CYCLES 400
SCF_MAX_CYCLES 400
METHOD   B3LYP
BASIS   6-31G**
PDB_PRINT 2
SCF_CONVERGENCE 6
THRESH 14
SCF_PRINT 1
$end
$molecule
0 1
S 1.788320 -0.000253 0.094667
C -0.158180 0.000040 -0.364830
C -0.815353 -1.277164 0.136446
C -0.814968 1.277424 0.136496
H -0.100022 0.000053 -1.456863
H -1.861147 -1.310752 -0.196275
H -0.305333 -2.165969 -0.240964
H -0.815378 -1.320586 1.230793
H -1.860748 1.311352 -0.196240
H -0.304670 2.166092 -0.240862
H -0.814996 1.320791 1.230846
H 1.592374 -0.000229 1.429188
$end
$scan
stre 1 2 2.100000 2.101000 0.100000
$end
--------------------------------------------------------------

    9    -517.3373448913      2.45e-07  Convergence criterion met
 Total energy in the final basis set =     -517.3373448913
    9    -517.3307081459      2.54e-07  Convergence criterion met
 Total energy in the final basis set =     -517.3307081459
    9    -517.3307630026      2.56e-07  Convergence criterion met
 Total energy in the final basis set =     -517.3307630026
    9    -517.3308306956      2.59e-07  Convergence criterion met
 Total energy in the final basis set =     -517.3308306956
    9    -517.3308336629      2.60e-07  Convergence criterion met
 Total energy in the final basis set =     -517.3308336629

             Standard Nuclear Orientation (Angstroms)
    I     Atom           X                Y                Z
 ----------------------------------------------------------------
    1      S       1.8496044103    -0.0002622841     0.1121480937
    2      C      -0.1926795306     0.0000466372    -0.3768058013
    3      C      -0.8240825532    -1.2798842795     0.1344223233
    4      C      -0.8236989770     1.2801488767     0.1344716238
    5      H      -0.1064604400     0.0000550934    -1.4653328365
    6      H      -1.8711911655    -1.3266218283    -0.1955611751
    7      H      -0.3062739884    -2.1640749207    -0.2422821038
    8      H      -0.8219701505    -1.3178620283     1.2285635680
    9      H      -1.8707883743     1.3272218174    -0.1955238846
   10      H      -0.3056165264     2.1642006485    -0.2421840232
   11      H      -0.8215885136     1.3180732941     1.2286153057
   12      H       1.6246448092    -0.0002420263     1.4418709102
 ----------------------------------------------------------------

    9    -517.3308340166      2.60e-07  Convergence criterion met
 Total energy in the final basis set =     -517.3308340166

                    Orbital Energies (a.u.)
 --------------------------------------------------------------

 Alpha MOs
 -- Occupied --
-88.864 -10.242 -10.190 -10.190  -7.924  -5.889  -5.886  -5.879
 -0.805  -0.699  -0.691  -0.581  -0.465  -0.443  -0.419  -0.397
 -0.380  -0.361  -0.352  -0.292  -0.230

 Beta MOs
 -- Occupied --
-88.864 -10.242 -10.190 -10.190  -7.924  -5.889  -5.886  -5.879
 -0.805  -0.699  -0.691  -0.581  -0.465  -0.443  -0.419  -0.397
 -0.380  -0.361  -0.352  -0.292  -0.230

          Ground-State Mulliken Net Atomic Charges

     Atom                 Charge (a.u.)    Spin (a.u.)
  --------------------------------------------------------
      1 S                    -0.140952       0.000000
      2 C                    -0.165662      -0.000000
      3 C                    -0.298390      -0.000000
      4 C                    -0.298391       0.000000
      5 H                     0.138491       0.000000
      6 H                     0.110495      -0.000000
      7 H                     0.131576       0.000000
      8 H                     0.113032       0.000000
      9 H                     0.110495      -0.000000
     10 H                     0.131576      -0.000000
     11 H                     0.113031      -0.000000
     12 H                     0.054698      -0.000000
  --------------------------------------------------------
  Sum of atomic charges =    -0.000000

                    Cartesian Multipole Moments
 -----------------------------------------------------------------
    Charge (ESU x 10^10)
                 0.0000
    Dipole Moment (Debye)
         X      -2.3759      Y       0.0004      Z       0.3683
       Tot       2.4043
    Quadrupole Moments (Debye-Ang)
        XX     -38.1948     XY       0.0004     YY     -35.0252
        XZ       1.4661     YZ      -0.0002     ZZ     -31.5769

 Final energy is   -517.330834016561
 **  OPTIMIZATION CONVERGED  **
 Total job time:  19.81s(wall), 211.14s(cpu)
        *  Thank you very much for using Q-Chem.  Have a nice day.  *
