 Q-Chem 5.1, Q-Chem, Inc., Pleasanton, CA (2018)
 Q-Chem 5.1.1 for Intel X86 EM64T Linux

User input:
--------------------------------------------------------------

$comment
potential surface scanner
$end

$rem
JOBTYPE  PES_SCAN
UNRESTRICTED TRUE
SYM_IGNORE  TRUE
GEOM_OPT_MAX_CYCLES 400
SCF_MAX_CYCLES 400
METHOD   B3LYP
BASIS   6-31G**
PDB_PRINT 2
SCF_CONVERGENCE 6
THRESH 14
SCF_PRINT 1
$end
$molecule
0 3
S 2.293401 -0.000322 0.213037
C -0.429508 0.000090 -0.439473
C -0.907849 -1.293528 0.118255
C -0.907481 1.293829 0.118295
H -0.141144 0.000069 -1.486617
H -1.947937 -1.451215 -0.218812
H -0.311153 -2.134504 -0.236398
H -0.920969 -1.290498 1.211216
H -1.947512 1.451839 -0.218794
H -0.310525 2.134640 -0.236311
H -0.920630 1.290762 1.211255
H 1.981204 -0.000357 1.526750
$end
$scan
stre 1 2 5.400000 5.401000 0.100000
$end
--------------------------------------------------------------

   10    -517.2183882772      5.30e-07  Convergence criterion met
 Total energy in the final basis set =     -517.2183882772
   10    -517.2229689794      4.05e-07  Convergence criterion met
 Total energy in the final basis set =     -517.2229689794
   10    -517.2257417892      3.82e-07  Convergence criterion met
 Total energy in the final basis set =     -517.2257417892
   10    -517.2276271660      3.50e-07  Convergence criterion met
 Total energy in the final basis set =     -517.2276271660
    9    -517.2289288592      9.60e-07  Convergence criterion met
 Total energy in the final basis set =     -517.2289288592
    9    -517.2298047574      9.18e-07  Convergence criterion met
 Total energy in the final basis set =     -517.2298047574
    9    -517.2304299919      8.95e-07  Convergence criterion met
 Total energy in the final basis set =     -517.2304299919
    9    -517.2308563274      8.84e-07  Convergence criterion met
    9    -517.2315269587      8.64e-07  Convergence criterion met
 Total energy in the final basis set =     -517.2315269587
    9    -517.2315480577      8.65e-07  Convergence criterion met
 Total energy in the final basis set =     -517.2315480577
    9    -517.2315779044      8.66e-07  Convergence criterion met
 Total energy in the final basis set =     -517.2315779044
    9    -517.2316074993      8.65e-07  Convergence criterion met
 Total energy in the final basis set =     -517.2316074993
    9    -517.2316229793      8.63e-07  Convergence criterion met
 Total energy in the final basis set =     -517.2316229793
    9    -517.2316241380      8.63e-07  Convergence criterion met
 Total energy in the final basis set =     -517.2316241380

             Standard Nuclear Orientation (Angstroms)
    I     Atom           X                Y                Z
 ----------------------------------------------------------------
    1      S       4.6431943343    -0.0005702231     0.0906728597
    2      C      -0.7526089917     0.0002175109    -0.1221788720
    3      C      -1.4603365815    -1.2995065186     0.0679086448
    4      C      -1.4601646129     1.3000409744     0.0678698344
    5      H       0.2013458411     0.0001452646    -0.6429839655
    6      H      -2.1602223996    -1.5179066897    -0.7587979794
    7      H      -0.7627162996    -2.1415357830     0.1212212669
    8      H      -2.0652132086    -1.3007037445     0.9848822488
    9      H      -2.1601242505     1.5184410568    -0.7587743304
   10      H      -0.7624421569     2.1419944739     0.1210232138
   11      H      -2.0649369391     1.3013923659     0.9849130710
   12      H       4.3341222650    -0.0012036874     1.4066470079
 ----------------------------------------------------------------

    9    -517.2316246041      8.63e-07  Convergence criterion met
 Total energy in the final basis set =     -517.2316246041

                    Orbital Energies (a.u.)
 --------------------------------------------------------------

 Alpha MOs
 -- Occupied --
-88.911 -10.183 -10.175 -10.175  -7.973  -5.944  -5.934  -5.925
 -0.775  -0.739  -0.685  -0.565  -0.445  -0.423  -0.413  -0.403
 -0.380  -0.349  -0.342  -0.321  -0.273  -0.177

 Beta MOs
 -- Occupied --
-88.906 -10.176 -10.176 -10.170  -7.967  -5.931  -5.926  -5.922
 -0.757  -0.699  -0.683  -0.543  -0.441  -0.405  -0.399  -0.397
 -0.374  -0.345  -0.337  -0.259

          Ground-State Mulliken Net Atomic Charges

     Atom                 Charge (a.u.)    Spin (a.u.)
  --------------------------------------------------------
      1 S                    -0.074451       1.027418
      2 C                    -0.074609       1.018808
      3 C                    -0.333628      -0.079838
      4 C                    -0.333628      -0.079839
      5 H                     0.093850      -0.046145
      6 H                     0.109030       0.063475
      7 H                     0.108714       0.007550
      8 H                     0.106052       0.022453
      9 H                     0.109030       0.063474
     10 H                     0.108715       0.007546
     11 H                     0.106053       0.022460
     12 H                     0.074872      -0.027361
  --------------------------------------------------------
  Sum of atomic charges =     0.000000

                    Cartesian Multipole Moments
 -----------------------------------------------------------------
    Charge (ESU x 10^10)
                 0.0000
    Dipole Moment (Debye)
         X      -0.3592      Y      -0.0005      Z       0.8704
       Tot       0.9416
    Quadrupole Moments (Debye-Ang)
        XX     -37.8180     XY      -0.0018     YY     -33.1274
        XZ       3.6072     YZ      -0.0010     ZZ     -32.8706

 Final energy is   -517.231624604134
 **  OPTIMIZATION CONVERGED  **
 Total job time:  88.09s(wall), 1026.44s(cpu)
        *  Thank you very much for using Q-Chem.  Have a nice day.  *
