 Q-Chem 5.1, Q-Chem, Inc., Pleasanton, CA (2018)
 Q-Chem 5.1.1 for Intel X86 EM64T Linux

User input:
--------------------------------------------------------------

$comment
potential surface scanner
$end

$rem
JOBTYPE  PES_SCAN
UNRESTRICTED TRUE
SYM_IGNORE  TRUE
GEOM_OPT_MAX_CYCLES 400
SCF_MAX_CYCLES 400
METHOD   B3LYP
BASIS   6-31G**
PDB_PRINT 2
SCF_CONVERGENCE 6
THRESH 14
SCF_PRINT 1
$end
$molecule
0 3
S 4.262888 -0.000605 0.096904
C -0.632664 0.000306 -0.111830
C -1.341056 -1.298333 0.083944
C -1.341229 1.298883 0.083723
H 0.325757 0.000323 -0.625002
H -2.078409 -1.493761 -0.715171
H -0.649557 -2.146706 0.091654
H -1.906928 -1.312799 1.025905
H -2.078338 1.494256 -0.715630
H -0.649803 2.147316 0.091656
H -1.907396 1.313295 1.025505
H 3.526633 -0.001373 1.230746
$end
$scan
stre 1 2 4.800000 4.801000 0.100000
$end
--------------------------------------------------------------

    9    -517.2318209746      8.70e-07  Convergence criterion met
 Total energy in the final basis set =     -517.2318209746
    9    -517.2306550834      8.34e-07  Convergence criterion met
 Total energy in the final basis set =     -517.2306550834
    9    -517.2315919923      8.51e-07  Convergence criterion met
 Total energy in the final basis set =     -517.2315919923
    9    -517.2318508842      8.69e-07  Convergence criterion met
 Total energy in the final basis set =     -517.2318508842
    9    -517.2318547578      8.71e-07  Convergence criterion met
 Total energy in the final basis set =     -517.2318547578

             Standard Nuclear Orientation (Angstroms)
    I     Atom           X                Y                Z
 ----------------------------------------------------------------
    1      S       4.1747032924    -0.0006630490     0.1143027943
    2      C      -0.6189157218     0.0002954073    -0.1331155503
    3      C      -1.3208711259    -1.2983730576     0.0843858823
    4      C      -1.3210318619     1.2989074593     0.0841969899
    5      H       0.3235313337     0.0003109780    -0.6751426450
    6      H      -2.0815433895    -1.4947026687    -0.6923579738
    7      H      -0.6291578791    -2.1465333568     0.0720632856
    8      H      -1.8586201606    -1.3123220518     1.0426786553
    9      H      -2.0814969050     1.4951858627    -0.6927631780
   10      H      -0.6293802497     2.1471225382     0.0720715436
   11      H      -1.8590456285     1.3128075157     1.0423394641
   12      H       3.4317262959    -0.0012335774     1.2437447320
 ----------------------------------------------------------------

    9    -517.2318552049      8.71e-07  Convergence criterion met
 Total energy in the final basis set =     -517.2318552049

                    Orbital Energies (a.u.)
 --------------------------------------------------------------

 Alpha MOs
 -- Occupied --
-88.911 -10.185 -10.176 -10.176  -7.973  -5.944  -5.934  -5.925
 -0.776  -0.739  -0.687  -0.566  -0.447  -0.424  -0.413  -0.404
 -0.381  -0.350  -0.344  -0.321  -0.273  -0.178

 Beta MOs
 -- Occupied --
-88.906 -10.177 -10.177 -10.171  -7.967  -5.931  -5.926  -5.922
 -0.759  -0.699  -0.684  -0.545  -0.442  -0.407  -0.399  -0.399
 -0.375  -0.347  -0.338  -0.259

          Ground-State Mulliken Net Atomic Charges

     Atom                 Charge (a.u.)    Spin (a.u.)
  --------------------------------------------------------
      1 S                    -0.075637       1.027834
      2 C                    -0.080793       1.018861
      3 C                    -0.333504      -0.080080
      4 C                    -0.333503      -0.080079
      5 H                     0.097443      -0.046596
      6 H                     0.109990       0.062368
      7 H                     0.108085       0.006064
      8 H                     0.106493       0.025335
      9 H                     0.109991       0.062372
     10 H                     0.108091       0.006073
     11 H                     0.106490       0.025319
     12 H                     0.076855      -0.027472
  --------------------------------------------------------
  Sum of atomic charges =    -0.000000

                    Cartesian Multipole Moments
 -----------------------------------------------------------------
    Charge (ESU x 10^10)
                -0.0000
    Dipole Moment (Debye)
         X      -0.6988      Y      -0.0004      Z       0.7338
       Tot       1.0133
    Quadrupole Moments (Debye-Ang)
        XX     -39.4156     XY      -0.0007     YY     -33.1236
        XZ       1.5709     YZ      -0.0007     ZZ     -33.7745

 Final energy is   -517.231855204916
 **  OPTIMIZATION CONVERGED  **
 Total job time:  16.04s(wall), 184.70s(cpu)
        *  Thank you very much for using Q-Chem.  Have a nice day.  *
