 Q-Chem 5.1, Q-Chem, Inc., Pleasanton, CA (2018)
 Q-Chem 5.1.1 for Intel X86 EM64T Linux

User input:
--------------------------------------------------------------

$comment
potential surface scanner
$end

$rem
JOBTYPE  PES_SCAN
UNRESTRICTED TRUE
SYM_IGNORE  TRUE
GEOM_OPT_MAX_CYCLES 400
SCF_MAX_CYCLES 400
METHOD   B3LYP
BASIS   6-31G**
PDB_PRINT 2
SCF_CONVERGENCE 6
THRESH 14
SCF_PRINT 1
$end
$molecule
0 3
S 2.811404 0.001294 0.995948
C -0.406472 -0.000494 -0.380741
C -0.942432 -1.298639 0.130405
C -0.939006 1.298899 0.130856
H 0.051856 -0.000838 -1.369076
H -1.949511 -1.502355 -0.273233
H -0.309062 -2.145203 -0.151970
H -1.042526 -1.291741 1.222474
H -1.945304 1.505706 -0.273139
H -0.303048 2.143765 -0.150802
H -1.039741 1.291679 1.222879
H 1.543739 -0.001272 0.458807
$end
$scan
stre 1 2 3.400000 3.401000 0.100000
$end
--------------------------------------------------------------

   10    -517.2358748133      3.17e-07  Convergence criterion met
 Total energy in the final basis set =     -517.2358748133
    9    -517.2346082826      9.64e-07  Convergence criterion met
 Total energy in the final basis set =     -517.2346082826
   10    -517.2354706662      3.14e-07  Convergence criterion met
 Total energy in the final basis set =     -517.2354706662
   10    -517.2357875947      3.22e-07  Convergence criterion met
 Total energy in the final basis set =     -517.2357875947
   10    -517.2358024936      3.24e-07  Convergence criterion met
 Total energy in the final basis set =     -517.2358024936
   10    -517.2358048721      3.24e-07  Convergence criterion met
 Total energy in the final basis set =     -517.2358048721
   10    -517.2358074954      3.24e-07  Convergence criterion met
 Total energy in the final basis set =     -517.2358074954
   10    -517.2358090053      3.24e-07  Convergence criterion met
 Total energy in the final basis set =     -517.2358090053

             Standard Nuclear Orientation (Angstroms)
    I     Atom           X                Y                Z
 ----------------------------------------------------------------
    1      S       2.7401162974     0.0011444922     0.9759507694
    2      C      -0.3824374419    -0.0004937534    -0.3692836048
    3      C      -0.9267420393    -1.2981497395     0.1362139954
    4      C      -0.9233663509     1.2984248185     0.1366513986
    5      H       0.0615879894    -0.0008002463    -1.3645998684
    6      H      -1.9312732619    -1.4953248467    -0.2761873384
    7      H      -0.2944257901    -2.1462192819    -0.1436345114
    8      H      -1.0342987493    -1.2927622597     1.2273869564
    9      H      -1.9271208054     1.4986556150    -0.2761414023
   10      H      -0.2884676693     2.1448092677    -0.1424644976
   11      H      -1.0316051346     1.2927304501     1.2277729999
   12      H       1.4679299558    -0.0012135160     0.4307431033
 ----------------------------------------------------------------

   10    -517.2358096456      3.24e-07  Convergence criterion met
 Total energy in the final basis set =     -517.2358096456

                    Orbital Energies (a.u.)
 --------------------------------------------------------------

 Alpha MOs
 -- Occupied --
-88.889 -10.211 -10.190 -10.190  -7.950  -5.922  -5.912  -5.903
 -0.796  -0.716  -0.702  -0.585  -0.464  -0.448  -0.419  -0.397
 -0.389  -0.366  -0.360  -0.303  -0.256  -0.203

 Beta MOs
 -- Occupied --
-88.883 -10.199 -10.191 -10.191  -7.944  -5.907  -5.904  -5.900
 -0.780  -0.699  -0.672  -0.565  -0.458  -0.428  -0.414  -0.391
 -0.372  -0.362  -0.355  -0.240

          Ground-State Mulliken Net Atomic Charges

     Atom                 Charge (a.u.)    Spin (a.u.)
  --------------------------------------------------------
      1 S                    -0.102529       1.117021
      2 C                    -0.110824       0.914790
      3 C                    -0.326529      -0.066432
      4 C                    -0.326791      -0.066425
      5 H                     0.110830      -0.035563
      6 H                     0.119486       0.059974
      7 H                     0.123352       0.008815
      8 H                     0.116798       0.014244
      9 H                     0.119577       0.059967
     10 H                     0.123567       0.008836
     11 H                     0.116619       0.014216
     12 H                     0.036444      -0.029444
  --------------------------------------------------------
  Sum of atomic charges =    -0.000000

                    Cartesian Multipole Moments
 -----------------------------------------------------------------
    Charge (ESU x 10^10)
                -0.0000
    Dipole Moment (Debye)
         X      -2.3386      Y      -0.0015      Z      -0.8296
       Tot       2.4814
    Quadrupole Moments (Debye-Ang)
        XX     -39.9698     XY      -0.0372     YY     -35.3240
        XZ      -2.8520     YZ       0.0847     ZZ     -33.9573

 Final energy is   -517.235809645571
 **  OPTIMIZATION CONVERGED  **
 Total job time:  29.45s(wall), 331.56s(cpu)
        *  Thank you very much for using Q-Chem.  Have a nice day.  *
