 Q-Chem 5.1, Q-Chem, Inc., Pleasanton, CA (2018)
 Q-Chem 5.1.1 for Intel X86 EM64T Linux

User input:
--------------------------------------------------------------

$comment
potential surface scanner
$end

$rem
JOBTYPE  PES_SCAN
UNRESTRICTED TRUE
SYM_IGNORE  TRUE
GEOM_OPT_MAX_CYCLES 400
SCF_MAX_CYCLES 400
METHOD   B3LYP
BASIS   6-31G**
PDB_PRINT 2
SCF_CONVERGENCE 6
THRESH 14
SCF_PRINT 1
$end
$molecule
0 3
S 1.644223 -0.195098 1.449639
C -0.081605 0.036392 -0.344220
C -0.671185 -1.277448 0.178601
C -0.765435 1.298697 0.189098
H -0.243713 0.025145 -1.439445
H -1.718529 -1.347114 -0.137915
H -0.140980 -2.146966 -0.219615
H -0.670696 -1.343966 1.272750
H -1.810813 1.322074 -0.139472
H -0.279516 2.202758 -0.191246
H -0.750928 1.343196 1.280444
H 1.019075 0.083131 -0.336208
$end
$scan
stre 1 2 2.400000 2.401000 0.100000
$end
--------------------------------------------------------------

   13    -517.2317101549      7.84e-07  Convergence criterion met
 Total energy in the final basis set =     -517.2317101549
   10    -517.2214862200      8.16e-07  Convergence criterion met
 Total energy in the final basis set =     -517.2214862200
   10    -517.2219532253      7.89e-07  Convergence criterion met
 Total energy in the final basis set =     -517.2219532253
   10    -517.2220681104      7.28e-07  Convergence criterion met
 Total energy in the final basis set =     -517.2220681104
   10    -517.2220961385      6.78e-07  Convergence criterion met
 Total energy in the final basis set =     -517.2220961385
   10    -517.2221358667      5.71e-07  Convergence criterion met
 Total energy in the final basis set =     -517.2221358667
    9    -517.2221482817      9.86e-07  Convergence criterion met
 Total energy in the final basis set =     -517.2221482817
    9    -517.2221526515      9.76e-07  Convergence criterion met
 Total energy in the final basis set =     -517.2221526515
    9    -517.2221551848      9.76e-07  Convergence criterion met
 Total energy in the final basis set =     -517.2221551848
    9    -517.2221592384      9.79e-07  Convergence criterion met
 Total energy in the final basis set =     -517.2221592384
    9    -517.2221639225      9.85e-07  Convergence criterion met
 Total energy in the final basis set =     -517.2221639225
    9    -517.2221683036      9.91e-07  Convergence criterion met
 Total energy in the final basis set =     -517.2221683036
    9    -517.2221702286      9.91e-07  Convergence criterion met
 Total energy in the final basis set =     -517.2221702286

             Standard Nuclear Orientation (Angstroms)
    I     Atom           X                Y                Z
 ----------------------------------------------------------------
    1      S       1.5806356171    -0.1721212800     1.4037603997
    2      C      -0.0698988007     0.0347042069    -0.3262570841
    3      C      -0.6606515636    -1.2842051189     0.1907000688
    4      C      -0.7563496208     1.3014389294     0.1994768863
    5      H      -0.2745039301     0.0199292715    -1.4184810863
    6      H      -1.7024630685    -1.3545558233    -0.1437153937
    7      H      -0.1221210815    -2.1504510638    -0.2029236849
    8      H      -0.6785131299    -1.3547243684     1.2842603733
    9      H      -1.7875396806     1.3436730313    -0.1696941759
   10      H      -0.2435613864     2.2020722784    -0.1524134550
   11      H      -0.7824225938     1.3351875132     1.2904913264
   12      H       1.0272872387     0.0798534237    -0.3927931747
 ----------------------------------------------------------------

    9    -517.2221706236      9.90e-07  Convergence criterion met
 Total energy in the final basis set =     -517.2221706236

                    Orbital Energies (a.u.)
 --------------------------------------------------------------

 Alpha MOs
 -- Occupied --
-88.888 -10.207 -10.191 -10.181  -7.950  -5.919  -5.918  -5.901
 -0.810  -0.699  -0.693  -0.608  -0.476  -0.453  -0.413  -0.398
 -0.374  -0.355  -0.347  -0.292  -0.255  -0.237

 Beta MOs
 -- Occupied --
-88.878 -10.204 -10.190 -10.181  -7.940  -5.899  -5.898  -5.894
 -0.801  -0.693  -0.632  -0.589  -0.456  -0.450  -0.411  -0.393
 -0.363  -0.353  -0.338  -0.230

          Ground-State Mulliken Net Atomic Charges

     Atom                 Charge (a.u.)    Spin (a.u.)
  --------------------------------------------------------
      1 S                    -0.095506       1.820415
      2 C                    -0.260001       0.097159
      3 C                    -0.320914       0.012826
      4 C                    -0.288536      -0.003620
      5 H                     0.112234       0.051518
      6 H                     0.118429       0.019754
      7 H                     0.124467      -0.000452
      8 H                     0.127380      -0.001048
      9 H                     0.103327      -0.000408
     10 H                     0.107765       0.000620
     11 H                     0.130120      -0.000156
     12 H                     0.141233       0.003391
  --------------------------------------------------------
  Sum of atomic charges =    -0.000000

                    Cartesian Multipole Moments
 -----------------------------------------------------------------
    Charge (ESU x 10^10)
                 0.0000
    Dipole Moment (Debye)
         X      -1.3065      Y       0.0740      Z      -1.2330
       Tot       1.7980
    Quadrupole Moments (Debye-Ang)
        XX     -36.5368     XY       1.6073     YY     -33.9073
        XZ      -1.7581     YZ      -0.3357     ZZ     -35.8512

 Final energy is   -517.222170623600
 **  OPTIMIZATION CONVERGED  **
 Total job time:  49.11s(wall), 539.86s(cpu)
        *  Thank you very much for using Q-Chem.  Have a nice day.  *
