 Q-Chem 5.1, Q-Chem, Inc., Pleasanton, CA (2018)
 Q-Chem 5.1.1 for Intel X86 EM64T Linux

User input:
--------------------------------------------------------------

$comment
potential surface scanner
$end

$rem
JOBTYPE  PES_SCAN
UNRESTRICTED TRUE
SYM_IGNORE  TRUE
GEOM_OPT_MAX_CYCLES 400
SCF_MAX_CYCLES 400
METHOD   B3LYP
BASIS   6-31G**
PDB_PRINT 2
SCF_CONVERGENCE 6
THRESH 14
SCF_PRINT 1
$end
$molecule
0 3
S 1.881377 -0.249336 1.559947
C -0.114467 0.040423 -0.382385
C -0.702949 -1.264585 0.153376
C -0.794499 1.296069 0.163196
H -0.192189 0.035361 -1.480539
H -1.755381 -1.348682 -0.141154
H -0.174414 -2.139291 -0.237347
H -0.673182 -1.308455 1.248769
H -1.856520 1.302498 -0.108043
H -0.342164 2.205895 -0.244052
H -0.724781 1.344547 1.253914
H 0.979064 0.086356 -0.223271
$end
$scan
stre 1 2 2.700000 2.701000 0.100000
$end
--------------------------------------------------------------

   15    -517.2497632289      9.63e-07  Convergence criterion met
 Total energy in the final basis set =     -517.2497632289
   15    -517.2443778283      9.68e-07  Convergence criterion met
 Total energy in the final basis set =     -517.2443778283
   15    -517.2450633385      8.50e-07  Convergence criterion met
 Total energy in the final basis set =     -517.2450633385
   15    -517.2452359530      7.50e-07  Convergence criterion met
 Total energy in the final basis set =     -517.2452359530
   15    -517.2452435758      7.17e-07  Convergence criterion met
 Total energy in the final basis set =     -517.2452435758
   15    -517.2452503160      6.72e-07  Convergence criterion met
 Total energy in the final basis set =     -517.2452503160
   15    -517.2452562513      6.26e-07  Convergence criterion met
 Total energy in the final basis set =     -517.2452562513
   15    -517.2452612800      5.87e-07  Convergence criterion met
 Total energy in the final basis set =     -517.2452612800
   15    -517.2452642677      5.67e-07  Convergence criterion met
 Total energy in the final basis set =     -517.2452642677
   15    -517.2452655824      5.63e-07  Convergence criterion met
 Total energy in the final basis set =     -517.2452655824

             Standard Nuclear Orientation (Angstroms)
    I     Atom           X                Y                Z
 ----------------------------------------------------------------
    1      S       1.7873695182    -0.2421131792     1.5331780158
    2      C      -0.1035898857     0.0400223189    -0.3733035864
    3      C      -0.6910313551    -1.2672520742     0.1596564784
    4      C      -0.7846519686     1.2967202105     0.1699098028
    5      H      -0.2032554009     0.0328108934    -1.4710982622
    6      H      -1.7438809719    -1.3449333464    -0.1352315095
    7      H      -0.1650933088    -2.1406336443    -0.2367327463
    8      H      -0.6640699331    -1.3191764015     1.2547072018
    9      H      -1.8455981975     1.3009146741    -0.1051108678
   10      H      -0.3319052688     2.2051466609    -0.2399893061
   11      H      -0.7174852567     1.3497043568     1.2601035884
   12      H       0.9930870290     0.0895895309    -0.2536778087
 ----------------------------------------------------------------

   15    -517.2452661044      5.65e-07  Convergence criterion met
 Total energy in the final basis set =     -517.2452661044

                    Orbital Energies (a.u.)
 --------------------------------------------------------------

 Alpha MOs
 -- Occupied --
-88.904 -10.200 -10.185 -10.178  -7.964  -5.934  -5.932  -5.915
 -0.798  -0.704  -0.689  -0.601  -0.474  -0.447  -0.407  -0.391
 -0.366  -0.349  -0.344  -0.306  -0.269  -0.264

 Beta MOs
 -- Occupied --
-88.893 -10.197 -10.184 -10.178  -7.954  -5.913  -5.913  -5.909
 -0.792  -0.689  -0.627  -0.589  -0.459  -0.445  -0.406  -0.388
 -0.352  -0.348  -0.338  -0.239

          Ground-State Mulliken Net Atomic Charges

     Atom                 Charge (a.u.)    Spin (a.u.)
  --------------------------------------------------------
      1 S                    -0.072952       1.864488
      2 C                    -0.203336       0.113874
      3 C                    -0.317733       0.007332
      4 C                    -0.301462      -0.003583
      5 H                     0.109661       0.019191
      6 H                     0.113226       0.011405
      7 H                     0.117247       0.000052
      8 H                     0.116915      -0.001326
      9 H                     0.104553       0.002176
     10 H                     0.105254       0.000514
     11 H                     0.124837       0.000437
     12 H                     0.103790      -0.014561
  --------------------------------------------------------
  Sum of atomic charges =    -0.000000

                    Cartesian Multipole Moments
 -----------------------------------------------------------------
    Charge (ESU x 10^10)
                -0.0000
    Dipole Moment (Debye)
         X      -0.9996      Y       0.0953      Z      -0.8867
       Tot       1.3396
    Quadrupole Moments (Debye-Ang)
        XX     -35.9436     XY       1.4945     YY     -34.3348
        XZ      -0.9937     YZ      -0.4980     ZZ     -35.3714

 Final energy is   -517.245266104421
 **  OPTIMIZATION CONVERGED  **
 Total job time:  45.39s(wall), 532.15s(cpu)
        *  Thank you very much for using Q-Chem.  Have a nice day.  *
