 Q-Chem 5.1, Q-Chem, Inc., Pleasanton, CA (2018)
 Q-Chem 5.1.1 for Intel X86 EM64T Linux

User input:
--------------------------------------------------------------

$comment
potential surface scanner
$end

$rem
JOBTYPE  PES_SCAN
UNRESTRICTED TRUE
SYM_IGNORE  TRUE
GEOM_OPT_MAX_CYCLES 400
SCF_MAX_CYCLES 400
METHOD   B3LYP
BASIS   6-31G**
PDB_PRINT 2
SCF_CONVERGENCE 6
THRESH 14
SCF_PRINT 1
$end
$molecule
0 3
S 4.465543 -0.000526 0.121419
C -0.726408 0.000235 -0.167795
C -1.420152 -1.299383 0.068924
C -1.420046 1.299919 0.068868
H 0.193777 0.000185 -0.747153
H -2.175452 -1.516555 -0.707836
H -0.721279 -2.142030 0.073644
H -1.960899 -1.300774 1.025182
H -2.175402 1.517068 -0.707844
H -0.721117 2.142521 0.073451
H -1.960711 1.301431 1.025172
H 4.152043 -0.001289 1.436372
$end
$scan
stre 1 2 5.100000 5.101000 0.100000
$end
--------------------------------------------------------------

    9    -517.2316378082      8.64e-07  Convergence criterion met
 Total energy in the final basis set =     -517.2316378082
    9    -517.2306847327      8.36e-07  Convergence criterion met
 Total energy in the final basis set =     -517.2306847327
    9    -517.2314282076      8.49e-07  Convergence criterion met
 Total energy in the final basis set =     -517.2314282076
    9    -517.2316335192      8.63e-07  Convergence criterion met
 Total energy in the final basis set =     -517.2316335192
    9    -517.2316368761      8.65e-07  Convergence criterion met
 Total energy in the final basis set =     -517.2316368761
    9    -517.2316381719      8.65e-07  Convergence criterion met
 Total energy in the final basis set =     -517.2316381719
    9    -517.2316444990      8.66e-07  Convergence criterion met
 Total energy in the final basis set =     -517.2316444990
    9    -517.2316555552      8.68e-07  Convergence criterion met
    9    -517.2316906710      8.70e-07  Convergence criterion met
 Total energy in the final basis set =     -517.2316906710
    9    -517.2317121290      8.68e-07  Convergence criterion met
 Total energy in the final basis set =     -517.2317121290
    9    -517.2317243197      8.68e-07  Convergence criterion met
 Total energy in the final basis set =     -517.2317243197
    9    -517.2317403392      8.68e-07  Convergence criterion met
 Total energy in the final basis set =     -517.2317403392
    9    -517.2317458823      8.70e-07  Convergence criterion met
 Total energy in the final basis set =     -517.2317458823
    9    -517.2317485285      8.67e-07  Convergence criterion met
 Total energy in the final basis set =     -517.2317485285

             Standard Nuclear Orientation (Angstroms)
    I     Atom           X                Y                Z
 ----------------------------------------------------------------
    1      S       4.4380779941    -0.0004484806     0.0633450728
    2      C      -0.6602581536     0.0003516645    -0.0669157892
    3      C      -1.3800501593    -1.2981306893     0.0832959899
    4      C      -1.3802943677     1.2987309195     0.0829866996
    5      H       0.3258883982     0.0003808906    -0.5230758350
    6      H      -2.0687480436    -1.4906158568    -0.7587646027
    7      H      -0.6909590887    -2.1471891506     0.1301422401
    8      H      -2.0007854313    -1.3144482910     0.9900012809
    9      H      -2.0686760969     1.4911153218    -0.7593562122
   10      H      -0.6913412110     2.1478891416     0.1300981718
   11      H      -2.0013884871     1.3149676307     0.9894442603
   12      H       3.7084316468    -0.0018011004     1.2012027236
 ----------------------------------------------------------------

    9    -517.2317491719      8.68e-07  Convergence criterion met
 Total energy in the final basis set =     -517.2317491719

                    Orbital Energies (a.u.)
 --------------------------------------------------------------

 Alpha MOs
 -- Occupied --
-88.912 -10.185 -10.176 -10.176  -7.973  -5.944  -5.934  -5.925
 -0.776  -0.739  -0.687  -0.567  -0.447  -0.424  -0.413  -0.404
 -0.381  -0.350  -0.344  -0.321  -0.274  -0.178

 Beta MOs
 -- Occupied --
-88.906 -10.177 -10.177 -10.171  -7.968  -5.931  -5.926  -5.922
 -0.759  -0.699  -0.684  -0.545  -0.442  -0.407  -0.400  -0.399
 -0.375  -0.347  -0.339  -0.259

          Ground-State Mulliken Net Atomic Charges

     Atom                 Charge (a.u.)    Spin (a.u.)
  --------------------------------------------------------
      1 S                    -0.075153       1.027532
      2 C                    -0.078735       1.018950
      3 C                    -0.333290      -0.079974
      4 C                    -0.333291      -0.079973
      5 H                     0.094772      -0.046465
      6 H                     0.109903       0.062314
      7 H                     0.107957       0.005940
      8 H                     0.106940       0.025412
      9 H                     0.109904       0.062320
     10 H                     0.107967       0.005952
     11 H                     0.106936       0.025388
     12 H                     0.076089      -0.027395
  --------------------------------------------------------
  Sum of atomic charges =     0.000000

                    Cartesian Multipole Moments
 -----------------------------------------------------------------
    Charge (ESU x 10^10)
                 0.0000
    Dipole Moment (Debye)
         X      -0.6865      Y      -0.0010      Z       0.7283
       Tot       1.0008
    Quadrupole Moments (Debye-Ang)
        XX     -39.5860     XY      -0.0029     YY     -33.1177
        XZ       1.9331     YZ      -0.0007     ZZ     -33.9162

 Final energy is   -517.231749171890
 **  OPTIMIZATION CONVERGED  **
 Total job time:  47.00s(wall), 487.32s(cpu)
        *  Thank you very much for using Q-Chem.  Have a nice day.  *
