 Q-Chem 5.1, Q-Chem, Inc., Pleasanton, CA (2018)
 Q-Chem 5.1.1 for Intel X86 EM64T Linux

User input:
--------------------------------------------------------------

$comment
potential surface scanner
$end

$rem
JOBTYPE  PES_SCAN
UNRESTRICTED TRUE
SYM_IGNORE  TRUE
GEOM_OPT_MAX_CYCLES 400
SCF_MAX_CYCLES 400
METHOD   B3LYP
BASIS   6-31G**
PDB_PRINT 2
SCF_CONVERGENCE 6
THRESH 14
SCF_PRINT 1
$end
$molecule
0 3
S 2.740116 0.001144 0.975951
C -0.382437 -0.000494 -0.369284
C -0.926742 -1.298150 0.136214
C -0.923366 1.298425 0.136651
H 0.061588 -0.000800 -1.364600
H -1.931273 -1.495325 -0.276187
H -0.294426 -2.146219 -0.143635
H -1.034299 -1.292762 1.227387
H -1.927121 1.498656 -0.276141
H -0.288468 2.144809 -0.142464
H -1.031605 1.292730 1.227773
H 1.467930 -0.001214 0.430743
$end
$scan
stre 1 2 3.300000 3.301000 0.100000
$end
--------------------------------------------------------------

   10    -517.2358096450      3.24e-07  Convergence criterion met
 Total energy in the final basis set =     -517.2358096450
    9    -517.2344153029      9.77e-07  Convergence criterion met
 Total energy in the final basis set =     -517.2344153029
   10    -517.2352240598      3.21e-07  Convergence criterion met
 Total energy in the final basis set =     -517.2352240598
   10    -517.2355690423      3.29e-07  Convergence criterion met
 Total energy in the final basis set =     -517.2355690423
   10    -517.2355929433      3.31e-07  Convergence criterion met
 Total energy in the final basis set =     -517.2355929433
   10    -517.2355974486      3.32e-07  Convergence criterion met
 Total energy in the final basis set =     -517.2355974486
   10    -517.2356012844      3.32e-07  Convergence criterion met
 Total energy in the final basis set =     -517.2356012844
   10    -517.2356038033      3.32e-07  Convergence criterion met
 Total energy in the final basis set =     -517.2356038033
   10    -517.2356048483      3.32e-07  Convergence criterion met
 Total energy in the final basis set =     -517.2356048483

             Standard Nuclear Orientation (Angstroms)
    I     Atom           X                Y                Z
 ----------------------------------------------------------------
    1      S       2.6623186645     0.0022850879     0.9662678988
    2      C      -0.3587377322    -0.0007607375    -0.3615909380
    3      C      -0.9093704882    -1.2978307128     0.1413836398
    4      C      -0.9054495044     1.2977914227     0.1419589645
    5      H       0.0631102716    -0.0008865135    -1.3670240716
    6      H      -1.9126285955    -1.4890852053    -0.2759615271
    7      H      -0.2788393580    -2.1474101822    -0.1375551956
    8      H      -1.0199080860    -1.2929942655     1.2320135775
    9      H      -1.9078485619     1.4926163649    -0.2757378643
   10      H      -0.2718952644     2.1453727610    -0.1362547598
   11      H      -1.0169679436     1.2925465017     1.2325461719
   12      H       1.3861135982    -0.0008445214     0.4023621037
 ----------------------------------------------------------------

   10    -517.2356054277      3.32e-07  Convergence criterion met
 Total energy in the final basis set =     -517.2356054277

                    Orbital Energies (a.u.)
 --------------------------------------------------------------

 Alpha MOs
 -- Occupied --
-88.886 -10.214 -10.192 -10.191  -7.948  -5.919  -5.910  -5.900
 -0.798  -0.713  -0.703  -0.587  -0.465  -0.451  -0.420  -0.398
 -0.386  -0.367  -0.361  -0.301  -0.254  -0.205

 Beta MOs
 -- Occupied --
-88.880 -10.201 -10.192 -10.192  -7.942  -5.904  -5.901  -5.897
 -0.782  -0.700  -0.668  -0.567  -0.459  -0.431  -0.415  -0.392
 -0.368  -0.363  -0.356  -0.238

          Ground-State Mulliken Net Atomic Charges

     Atom                 Charge (a.u.)    Spin (a.u.)
  --------------------------------------------------------
      1 S                    -0.105981       1.147868
      2 C                    -0.118588       0.888818
      3 C                    -0.323196      -0.062720
      4 C                    -0.324138      -0.062723
      5 H                     0.114350      -0.033225
      6 H                     0.120076       0.057822
      7 H                     0.124585       0.008760
      8 H                     0.117903       0.013055
      9 H                     0.120423       0.057875
     10 H                     0.125159       0.008785
     11 H                     0.117357       0.013020
     12 H                     0.032049      -0.037335
  --------------------------------------------------------
  Sum of atomic charges =     0.000000

                    Cartesian Multipole Moments
 -----------------------------------------------------------------
    Charge (ESU x 10^10)
                 0.0000
    Dipole Moment (Debye)
         X      -2.4485      Y      -0.0026      Z      -0.8871
       Tot       2.6043
    Quadrupole Moments (Debye-Ang)
        XX     -40.0039     XY      -0.1160     YY     -35.2480
        XZ      -2.8966     YZ       0.2482     ZZ     -33.9971

 Final energy is   -517.235605427657
 **  OPTIMIZATION CONVERGED  **
 Total job time:  30.39s(wall), 351.24s(cpu)
        *  Thank you very much for using Q-Chem.  Have a nice day.  *
