 Q-Chem 5.1, Q-Chem, Inc., Pleasanton, CA (2018)
 Q-Chem 5.1.1 for Intel X86 EM64T Linux

User input:
--------------------------------------------------------------

$comment
potential surface scanner
$end

$rem
JOBTYPE  PES_SCAN
UNRESTRICTED TRUE
SYM_IGNORE  TRUE
GEOM_OPT_MAX_CYCLES 400
SCF_MAX_CYCLES 400
METHOD   B3LYP
BASIS   6-31G**
PDB_PRINT 2
SCF_CONVERGENCE 6
THRESH 14
SCF_PRINT 1
$end
$molecule
0 1
S 1.657900 -0.000200 0.107500
C -0.098900 0.000100 -0.384900
C -0.779700 -1.258900 0.138700
C -0.779300 1.259100 0.138700
H -0.135800 0.000100 -1.479400
H -1.829100 -1.282800 -0.175600
H -0.301500 -2.163300 -0.253500
H -0.763000 -1.307700 1.233500
H -1.828700 1.283400 -0.175500
H -0.300800 2.163400 -0.253400
H -0.762600 1.307800 1.233400
H 1.451400 -0.000200 1.432900
$end
$scan
stre 1 2 1.600000 1.601000 0.100000
$end
--------------------------------------------------------------

    9    -517.3397527088      2.29e-07  Convergence criterion met
 Total energy in the final basis set =     -517.3397527088
    9    -517.3268240487      2.00e-07  Convergence criterion met
 Total energy in the final basis set =     -517.3268240487
    8    -517.3111773705      9.30e-07  Convergence criterion met
 Total energy in the final basis set =     -517.3111773705
    8    -517.3120207437      9.06e-07  Convergence criterion met
 Total energy in the final basis set =     -517.3120207437
    8    -517.3127691860      8.78e-07  Convergence criterion met
 Total energy in the final basis set =     -517.3127691860
    8    -517.3128087948      8.76e-07  Convergence criterion met
 Total energy in the final basis set =     -517.3128087948
    8    -517.3128355637      8.75e-07  Convergence criterion met
 Total energy in the final basis set =     -517.3128355637
    8    -517.3128385583      8.75e-07  Convergence criterion met
 Total energy in the final basis set =     -517.3128385583

             Standard Nuclear Orientation (Angstroms)
    I     Atom           X                Y                Z
 ----------------------------------------------------------------
    1      S       1.5501240264    -0.0002188194     0.0236895548
    2      C      -0.0145888271     0.0000238928    -0.3104865405
    3      C      -0.7880422638    -1.2642118770     0.1432198559
    4      C      -0.7876674953     1.2644687635     0.1432654204
    5      H      -0.0599843777     0.0000487238    -1.4112322633
    6      H      -1.8282586126    -1.2383831708    -0.1972437086
    7      H      -0.3139885392    -2.1711277916    -0.2421895857
    8      H      -0.7934006724    -1.3278287559     1.2381910804
    9      H      -1.8278849833     1.2389761029    -0.1972223848
   10      H      -0.3133295148     2.1712593519    -0.2420883737
   11      H      -0.7930304566     1.3280294775     1.2382390063
   12      H       1.4999517163    -0.0002358978     1.3762579389
 ----------------------------------------------------------------

    8    -517.3128393035      8.75e-07  Convergence criterion met
 Total energy in the final basis set =     -517.3128393035

                    Orbital Energies (a.u.)
 --------------------------------------------------------------

 Alpha MOs
 -- Occupied --
-88.863 -10.213 -10.182 -10.182  -7.931  -5.896  -5.891  -5.885
 -0.851  -0.712  -0.689  -0.581  -0.466  -0.451  -0.423  -0.395
 -0.389  -0.351  -0.350  -0.313  -0.227

 Beta MOs
 -- Occupied --
-88.863 -10.213 -10.182 -10.182  -7.931  -5.896  -5.891  -5.885
 -0.851  -0.712  -0.689  -0.581  -0.466  -0.451  -0.423  -0.395
 -0.389  -0.351  -0.350  -0.313  -0.227

          Ground-State Mulliken Net Atomic Charges

     Atom                 Charge (a.u.)    Spin (a.u.)
  --------------------------------------------------------
      1 S                    -0.008971       0.000000
      2 C                    -0.216281      -0.000000
      3 C                    -0.302791       0.000000
      4 C                    -0.302791      -0.000000
      5 H                     0.139427      -0.000000
      6 H                     0.103289      -0.000000
      7 H                     0.117257      -0.000000
      8 H                     0.102926      -0.000000
      9 H                     0.103289       0.000000
     10 H                     0.117257       0.000000
     11 H                     0.102926       0.000000
     12 H                     0.044466      -0.000000
  --------------------------------------------------------
  Sum of atomic charges =    -0.000000

                    Cartesian Multipole Moments
 -----------------------------------------------------------------
    Charge (ESU x 10^10)
                -0.0000
    Dipole Moment (Debye)
         X      -1.4936      Y       0.0002      Z       0.4051
       Tot       1.5476
    Quadrupole Moments (Debye-Ang)
        XX     -36.9567     XY       0.0002     YY     -35.2693
        XZ       1.6891     YZ      -0.0003     ZZ     -31.7171

 Final energy is   -517.312839303498
 **  OPTIMIZATION CONVERGED  **
 Total job time:  27.24s(wall), 299.39s(cpu)
        *  Thank you very much for using Q-Chem.  Have a nice day.  *
