 Q-Chem 5.1, Q-Chem, Inc., Pleasanton, CA (2018)
 Q-Chem 5.1.1 for Intel X86 EM64T Linux

User input:
--------------------------------------------------------------

$comment
potential surface scanner
$end

$rem
JOBTYPE  PES_SCAN
UNRESTRICTED TRUE
SYM_IGNORE  TRUE
GEOM_OPT_MAX_CYCLES 400
SCF_MAX_CYCLES 400
METHOD   B3LYP
BASIS   6-31G**
PDB_PRINT 2
SCF_CONVERGENCE 6
THRESH 14
SCF_PRINT 1
$end
$molecule
0 1
S 1.657900 -0.000200 0.107500
C -0.098900 0.000100 -0.384900
C -0.779700 -1.258900 0.138700
C -0.779300 1.259100 0.138700
H -0.135800 0.000100 -1.479400
H -1.829100 -1.282800 -0.175600
H -0.301500 -2.163300 -0.253500
H -0.763000 -1.307700 1.233500
H -1.828700 1.283400 -0.175500
H -0.300800 2.163400 -0.253400
H -0.762600 1.307800 1.233400
H 1.451400 -0.000200 1.432900
$end
$scan
stre 1 2 1.400000 1.401000 0.100000
$end
--------------------------------------------------------------

    9    -517.3397527088      2.29e-07  Convergence criterion met
 Total energy in the final basis set =     -517.3397527088
    9    -517.3268240487      2.00e-07  Convergence criterion met
 Total energy in the final basis set =     -517.3268240487
    8    -517.2850197798      8.54e-07  Convergence criterion met
 Total energy in the final basis set =     -517.2850197798
    8    -517.2112422394      7.11e-07  Convergence criterion met
 Total energy in the final basis set =     -517.2112422394
    8    -517.2045098429      6.93e-07  Convergence criterion met
 Total energy in the final basis set =     -517.2045098429
    8    -517.2051426816      6.80e-07  Convergence criterion met
 Total energy in the final basis set =     -517.2051426816
    8    -517.2052204960      6.77e-07  Convergence criterion met
 Total energy in the final basis set =     -517.2052204960
    8    -517.2052660352      6.74e-07  Convergence criterion met
 Total energy in the final basis set =     -517.2052660352
    8    -517.2052701055      6.73e-07  Convergence criterion met
 Total energy in the final basis set =     -517.2052701055
    8    -517.2052719548      6.73e-07  Convergence criterion met
 Total energy in the final basis set =     -517.2052719548

             Standard Nuclear Orientation (Angstroms)
    I     Atom           X                Y                Z
 ----------------------------------------------------------------
    1      S       1.4355247459    -0.0001976032    -0.0117027985
    2      C       0.0613081924     0.0000087302    -0.2791517050
    3      C      -0.7813243092    -1.2606676952     0.1463438896
    4      C      -0.7809502932     1.2609198264     0.1463897399
    5      H      -0.0397438569     0.0000439092    -1.3799799320
    6      H      -1.8171237694    -1.2048034457    -0.2010844483
    7      H      -0.3189920162    -2.1717626381    -0.2449686656
    8      H      -0.7899944612    -1.3320287090     1.2411954109
    9      H      -1.8167581670     1.2053970756    -0.2010657504
   10      H      -0.3183274577     2.1718928877    -0.2448637298
   11      H      -0.7896215019     1.3322248814     1.2412449837
   12      H       1.4859028942    -0.0002272194     1.3500430053
 ----------------------------------------------------------------

    8    -517.2052726714      6.73e-07  Convergence criterion met
 Total energy in the final basis set =     -517.2052726714

                    Orbital Energies (a.u.)
 --------------------------------------------------------------

 Alpha MOs
 -- Occupied --
-88.851 -10.205 -10.181 -10.181  -7.928  -5.893  -5.888  -5.882
 -0.899  -0.716  -0.688  -0.585  -0.473  -0.456  -0.437  -0.401
 -0.389  -0.365  -0.353  -0.298  -0.213

 Beta MOs
 -- Occupied --
-88.851 -10.205 -10.181 -10.181  -7.928  -5.893  -5.888  -5.882
 -0.899  -0.716  -0.688  -0.585  -0.473  -0.456  -0.437  -0.401
 -0.389  -0.365  -0.353  -0.298  -0.213

          Ground-State Mulliken Net Atomic Charges

     Atom                 Charge (a.u.)    Spin (a.u.)
  --------------------------------------------------------
      1 S                    -0.004571      -0.000000
      2 C                    -0.181560      -0.000000
      3 C                    -0.314069       0.000000
      4 C                    -0.314070       0.000000
      5 H                     0.149632       0.000000
      6 H                     0.101954       0.000000
      7 H                     0.113318       0.000000
      8 H                     0.103099      -0.000000
      9 H                     0.101954       0.000000
     10 H                     0.113318       0.000000
     11 H                     0.103099       0.000000
     12 H                     0.027895      -0.000000
  --------------------------------------------------------
  Sum of atomic charges =     0.000000

                    Cartesian Multipole Moments
 -----------------------------------------------------------------
    Charge (ESU x 10^10)
                 0.0000
    Dipole Moment (Debye)
         X      -1.4561      Y       0.0002      Z       0.2535
       Tot       1.4780
    Quadrupole Moments (Debye-Ang)
        XX     -36.9118     XY       0.0002     YY     -35.1677
        XZ       1.6228     YZ      -0.0003     ZZ     -31.6668

 Final energy is   -517.205272671441
 **  OPTIMIZATION CONVERGED  **
 Total job time:  32.58s(wall), 365.19s(cpu)
        *  Thank you very much for using Q-Chem.  Have a nice day.  *
