 Q-Chem 5.1, Q-Chem, Inc., Pleasanton, CA (2018)
 Q-Chem 5.1.1 for Intel X86 EM64T Linux

User input:
--------------------------------------------------------------

$comment
potential surface scanner
$end

$rem
JOBTYPE  PES_SCAN
UNRESTRICTED TRUE
SYM_IGNORE  TRUE
GEOM_OPT_MAX_CYCLES 400
SCF_MAX_CYCLES 400
METHOD   B3LYP
BASIS   6-31G**
PDB_PRINT 2
SCF_CONVERGENCE 6
THRESH 14
SCF_PRINT 1
$end
$molecule
0 3
S 1.523203 -0.147358 1.354647
C -0.057579 0.033229 -0.306232
C -0.650478 -1.291912 0.203736
C -0.747591 1.305332 0.209938
H -0.310760 0.013683 -1.394402
H -1.684336 -1.367276 -0.153654
H -0.098675 -2.154146 -0.179561
H -0.690258 -1.362307 1.296542
H -1.759379 1.372973 -0.206235
H -0.202907 2.201423 -0.102802
H -0.821452 1.322240 1.298818
H 1.030110 0.074921 -0.458384
$end
$scan
stre 1 2 2.200000 2.201000 0.100000
$end
--------------------------------------------------------------

   10    -517.2104488482      9.66e-07  Convergence criterion met
 Total energy in the final basis set =     -517.2104488482
   13    -517.1959260204      5.31e-07  Convergence criterion met
 Total energy in the final basis set =     -517.1959260204
   13    -517.1959144004      5.35e-07  Convergence criterion met
 Total energy in the final basis set =     -517.1959144004
   13    -517.1962957320      5.71e-07  Convergence criterion met
 Total energy in the final basis set =     -517.1962957320
   13    -517.1963148735      5.83e-07  Convergence criterion met
 Total energy in the final basis set =     -517.1963148735
   13    -517.1963237323      5.92e-07  Convergence criterion met
 Total energy in the final basis set =     -517.1963237323
   13    -517.1963296938      5.98e-07  Convergence criterion met
 Total energy in the final basis set =     -517.1963296938
   13    -517.1963358190      6.03e-07  Convergence criterion met
 Total energy in the final basis set =     -517.1963358190
   13    -517.1963440561      6.10e-07  Convergence criterion met
 Total energy in the final basis set =     -517.1963440561
   13    -517.1963557265      6.21e-07  Convergence criterion met
 Total energy in the final basis set =     -517.1963557265
   13    -517.1963683574      6.36e-07  Convergence criterion met
 Total energy in the final basis set =     -517.1963683574
   13    -517.1963763257      6.48e-07  Convergence criterion met
 Total energy in the final basis set =     -517.1963763257
   13    -517.1963790673      6.53e-07  Convergence criterion met
 Total energy in the final basis set =     -517.1963790673

             Standard Nuclear Orientation (Angstroms)
    I     Atom           X                Y                Z
 ----------------------------------------------------------------
    1      S       1.4767901377    -0.1239765239     1.2995694247
    2      C      -0.0435354409     0.0319263498    -0.2829305748
    3      C      -0.6429274107    -1.3006180296     0.2165348922
    4      C      -0.7380608267     1.3101769111     0.2221828803
    5      H      -0.3518378966     0.0083022689    -1.3668996021
    6      H      -1.6600170333    -1.3927366063    -0.1826023998
    7      H      -0.0653555880    -2.1582926457    -0.1376691056
    8      H      -0.7218423211    -1.3581398701     1.3073982076
    9      H      -1.7285247648     1.4052545614    -0.2375434677
   10      H      -0.1630648496     2.2007676503    -0.0483711441
   11      H      -0.8575990318     1.3074793543     1.3071238092
   12      H       1.0258730258     0.0706585798    -0.5343819199
 ----------------------------------------------------------------

   13    -517.1963795131      6.54e-07  Convergence criterion met
 Total energy in the final basis set =     -517.1963795131

                    Orbital Energies (a.u.)
 --------------------------------------------------------------

 Alpha MOs
 -- Occupied --
-88.877 -10.215 -10.196 -10.185  -7.940  -5.909  -5.907  -5.891
 -0.821  -0.700  -0.692  -0.612  -0.475  -0.460  -0.418  -0.403
 -0.379  -0.361  -0.350  -0.283  -0.247  -0.210

 Beta MOs
 -- Occupied --
-88.867 -10.213 -10.195 -10.185  -7.930  -5.889  -5.888  -5.885
 -0.809  -0.697  -0.639  -0.589  -0.459  -0.449  -0.414  -0.398
 -0.370  -0.358  -0.334  -0.223

          Ground-State Mulliken Net Atomic Charges

     Atom                 Charge (a.u.)    Spin (a.u.)
  --------------------------------------------------------
      1 S                    -0.103332       1.771523
      2 C                    -0.308339       0.047448
      3 C                    -0.322427       0.019704
      4 C                    -0.280211       0.000844
      5 H                     0.109538       0.106854
      6 H                     0.121411       0.025877
      7 H                     0.130404      -0.000959
      8 H                     0.134391      -0.001030
      9 H                     0.103165      -0.001747
     10 H                     0.111901       0.000406
     11 H                     0.132298      -0.000441
     12 H                     0.171201       0.031523
  --------------------------------------------------------
  Sum of atomic charges =     0.000000

                    Cartesian Multipole Moments
 -----------------------------------------------------------------
    Charge (ESU x 10^10)
                 0.0000
    Dipole Moment (Debye)
         X      -1.5302      Y       0.0491      Z      -1.4469
       Tot       2.1065
    Quadrupole Moments (Debye-Ang)
        XX     -37.0810     XY       1.5444     YY     -33.4580
        XZ      -2.2985     YZ      -0.2602     ZZ     -36.2200

 Final energy is   -517.196379513059
 **  OPTIMIZATION CONVERGED  **
 Total job time:  52.79s(wall), 609.27s(cpu)
        *  Thank you very much for using Q-Chem.  Have a nice day.  *
