 Q-Chem 5.1, Q-Chem, Inc., Pleasanton, CA (2018)
 Q-Chem 5.1.1 for Intel X86 EM64T Linux

User input:
--------------------------------------------------------------

$comment
potential surface scanner
$end

$rem
JOBTYPE  PES_SCAN
UNRESTRICTED TRUE
SYM_IGNORE  TRUE
GEOM_OPT_MAX_CYCLES 400
SCF_MAX_CYCLES 400
METHOD   B3LYP
BASIS   6-31G**
PDB_PRINT 2
SCF_CONVERGENCE 6
THRESH 14
SCF_PRINT 1
$end
$molecule
0 3
S 2.662319 0.002285 0.966268
C -0.358738 -0.000761 -0.361591
C -0.909370 -1.297831 0.141384
C -0.905450 1.297791 0.141959
H 0.063110 -0.000887 -1.367024
H -1.912629 -1.489085 -0.275962
H -0.278839 -2.147410 -0.137555
H -1.019908 -1.292994 1.232014
H -1.907849 1.492616 -0.275738
H -0.271895 2.145373 -0.136255
H -1.016968 1.292547 1.232546
H 1.386114 -0.000845 0.402362
$end
$scan
stre 1 2 3.200000 3.201000 0.100000
$end
--------------------------------------------------------------

   10    -517.2356054295      3.32e-07  Convergence criterion met
 Total energy in the final basis set =     -517.2356054295
    9    -517.2341003752      9.91e-07  Convergence criterion met
 Total energy in the final basis set =     -517.2341003752
   10    -517.2348356930      3.27e-07  Convergence criterion met
 Total energy in the final basis set =     -517.2348356930
   10    -517.2352548472      3.34e-07  Convergence criterion met
 Total energy in the final basis set =     -517.2352548472
   10    -517.2353098670      3.43e-07  Convergence criterion met
 Total energy in the final basis set =     -517.2353098670
   10    -517.2353280954      3.95e-07  Convergence criterion met
 Total energy in the final basis set =     -517.2353280954
   10    -517.2353462576      4.70e-07  Convergence criterion met
 Total energy in the final basis set =     -517.2353462576
   10    -517.2353655872      4.70e-07  Convergence criterion met
   10    -517.2354003211      3.64e-07  Convergence criterion met
 Total energy in the final basis set =     -517.2354003211
   10    -517.2354036744      3.56e-07  Convergence criterion met
 Total energy in the final basis set =     -517.2354036744
   10    -517.2354058403      3.52e-07  Convergence criterion met
 Total energy in the final basis set =     -517.2354058403
   10    -517.2354082326      3.48e-07  Convergence criterion met
 Total energy in the final basis set =     -517.2354082326
   10    -517.2354107464      3.44e-07  Convergence criterion met
 Total energy in the final basis set =     -517.2354107464
   10    -517.2354123168      3.42e-07  Convergence criterion met
 Total energy in the final basis set =     -517.2354123168

             Standard Nuclear Orientation (Angstroms)
    I     Atom           X                Y                Z
 ----------------------------------------------------------------
    1      S       2.5463176108     0.0066805023     1.0271446134
    2      C      -0.3326252634    -0.0011001123    -0.3698621133
    3      C      -0.8851345267    -1.2959523780     0.1414339605
    4      C      -0.8804203753     1.2956269851     0.1416344047
    5      H       0.0509835956    -0.0014725857    -1.3905630502
    6      H      -1.9033702072    -1.4681597104    -0.2453929168
    7      H      -0.2773479179    -2.1522570903    -0.1668672185
    8      H      -0.9572646698    -1.2971233339     1.2349488550
    9      H      -1.8962672422     1.4735335637    -0.2487951213
   10      H      -0.2672384734     2.1493643730    -0.1632032989
   11      H      -0.9569332351     1.2953558291     1.2348723137
   12      H       1.2891977046    -0.0036970427     0.3670575715
 ----------------------------------------------------------------

   10    -517.2354128157      3.41e-07  Convergence criterion met
 Total energy in the final basis set =     -517.2354128157

                    Orbital Energies (a.u.)
 --------------------------------------------------------------

 Alpha MOs
 -- Occupied --
-88.884 -10.217 -10.193 -10.193  -7.945  -5.916  -5.907  -5.897
 -0.802  -0.709  -0.705  -0.589  -0.468  -0.455  -0.422  -0.400
 -0.383  -0.369  -0.362  -0.299  -0.252  -0.208

 Beta MOs
 -- Occupied --
-88.877 -10.205 -10.194 -10.194  -7.939  -5.900  -5.898  -5.894
 -0.785  -0.702  -0.662  -0.570  -0.462  -0.435  -0.417  -0.395
 -0.365  -0.363  -0.356  -0.235

          Ground-State Mulliken Net Atomic Charges

     Atom                 Charge (a.u.)    Spin (a.u.)
  --------------------------------------------------------
      1 S                    -0.111921       1.197765
      2 C                    -0.124222       0.846462
      3 C                    -0.323085      -0.057119
      4 C                    -0.323758      -0.057055
      5 H                     0.121523      -0.030051
      6 H                     0.121854       0.054567
      7 H                     0.121000       0.007557
      8 H                     0.124463       0.012676
      9 H                     0.122167       0.054548
     10 H                     0.121433       0.007672
     11 H                     0.124035       0.012505
     12 H                     0.026512      -0.049527
  --------------------------------------------------------
  Sum of atomic charges =    -0.000000

                    Cartesian Multipole Moments
 -----------------------------------------------------------------
    Charge (ESU x 10^10)
                -0.0000
    Dipole Moment (Debye)
         X      -2.5795      Y      -0.0087      Z      -1.0099
       Tot       2.7702
    Quadrupole Moments (Debye-Ang)
        XX     -40.4120     XY      -0.1078     YY     -32.4618
        XZ      -1.9965     YZ       0.1351     ZZ     -36.3766

 Final energy is   -517.235412815668
 **  OPTIMIZATION CONVERGED  **
 Total job time:  55.14s(wall), 642.43s(cpu)
        *  Thank you very much for using Q-Chem.  Have a nice day.  *
