 Q-Chem 5.1, Q-Chem, Inc., Pleasanton, CA (2018)
 Q-Chem 5.1.1 for Intel X86 EM64T Linux

User input:
--------------------------------------------------------------

$comment
potential surface scanner
$end

$rem
JOBTYPE  PES_SCAN
UNRESTRICTED TRUE
SYM_IGNORE  TRUE
GEOM_OPT_MAX_CYCLES 400
SCF_MAX_CYCLES 400
METHOD   B3LYP
BASIS   6-31G**
PDB_PRINT 2
SCF_CONVERGENCE 6
THRESH 14
SCF_PRINT 1
$end
$molecule
0 1
S 1.973343 -0.000288 0.147098
C -0.261151 0.000063 -0.397915
C -0.844030 -1.284742 0.129713
C -0.843649 1.285019 0.129762
H -0.115779 0.000061 -1.477504
H -1.893182 -1.357645 -0.195211
H -0.310169 -2.158688 -0.246877
H -0.838232 -1.312993 1.223392
H -1.892775 1.358243 -0.195171
H -0.309524 2.158821 -0.246787
H -0.837855 1.313219 1.223442
H 1.702900 -0.000268 1.468462
$end
$scan
stre 1 2 2.400000 2.401000 0.100000
$end
--------------------------------------------------------------

    9    -517.3144733037      2.77e-07  Convergence criterion met
 Total energy in the final basis set =     -517.3144733037
    9    -517.3058971948      2.76e-07  Convergence criterion met
 Total energy in the final basis set =     -517.3058971948
    9    -517.3058014852      2.78e-07  Convergence criterion met
 Total energy in the final basis set =     -517.3058014852
    9    -517.3059011660      2.84e-07  Convergence criterion met
 Total energy in the final basis set =     -517.3059011660
    9    -517.3059037506      2.85e-07  Convergence criterion met
 Total energy in the final basis set =     -517.3059037506

             Standard Nuclear Orientation (Angstroms)
    I     Atom           X                Y                Z
 ----------------------------------------------------------------
    1      S       2.0353877114    -0.0003030157     0.1631478315
    2      C      -0.2958795787     0.0000685576    -0.4071083524
    3      C      -0.8555527566    -1.2870198058     0.1272028989
    4      C      -0.8551700400     1.2872997322     0.1272534759
    5      H      -0.1198520229     0.0000626070    -1.4811256000
    6      H      -1.9047357970    -1.3746686489    -0.1970522778
    7      H      -0.3115006798    -2.1548312597    -0.2482776765
    8      H      -0.8499080601    -1.3102574877     1.2206722530
    9      H      -1.9043238066     1.3752686692    -0.1970087530
   10      H      -0.3108561830     2.1549638232    -0.2481875599
   11      H      -0.8495307989     1.3104876496     1.2207238470
   12      H       1.7518190122    -0.0002688210     1.4821639133
 ----------------------------------------------------------------

    9    -517.3059042547      2.85e-07  Convergence criterion met
 Total energy in the final basis set =     -517.3059042547

                    Orbital Energies (a.u.)
 --------------------------------------------------------------

 Alpha MOs
 -- Occupied --
-88.854 -10.258 -10.198 -10.198  -7.913  -5.878  -5.876  -5.868
 -0.808  -0.709  -0.674  -0.588  -0.473  -0.447  -0.427  -0.404
 -0.373  -0.373  -0.359  -0.264  -0.221

 Beta MOs
 -- Occupied --
-88.854 -10.258 -10.198 -10.198  -7.913  -5.878  -5.876  -5.868
 -0.808  -0.709  -0.674  -0.588  -0.473  -0.447  -0.427  -0.404
 -0.373  -0.373  -0.359  -0.264  -0.221

          Ground-State Mulliken Net Atomic Charges

     Atom                 Charge (a.u.)    Spin (a.u.)
  --------------------------------------------------------
      1 S                    -0.257576      -0.000000
      2 C                    -0.083930      -0.000000
      3 C                    -0.310674       0.000000
      4 C                    -0.310675       0.000000
      5 H                     0.145293       0.000000
      6 H                     0.117144      -0.000000
      7 H                     0.143488       0.000000
      8 H                     0.123650      -0.000000
      9 H                     0.117144      -0.000000
     10 H                     0.143488      -0.000000
     11 H                     0.123650      -0.000000
     12 H                     0.048998       0.000000
  --------------------------------------------------------
  Sum of atomic charges =    -0.000000

                    Cartesian Multipole Moments
 -----------------------------------------------------------------
    Charge (ESU x 10^10)
                 0.0000
    Dipole Moment (Debye)
         X      -3.4190      Y       0.0005      Z       0.2113
       Tot       3.4256
    Quadrupole Moments (Debye-Ang)
        XX     -39.7963     XY       0.0007     YY     -34.5891
        XZ       1.2056     YZ      -0.0002     ZZ     -31.4225

 Final energy is   -517.305904254652
 **  OPTIMIZATION CONVERGED  **
 Total job time:  19.43s(wall), 207.74s(cpu)
        *  Thank you very much for using Q-Chem.  Have a nice day.  *
