 Q-Chem 5.1, Q-Chem, Inc., Pleasanton, CA (2018)
 Q-Chem 5.1.1 for Intel X86 EM64T Linux

User input:
--------------------------------------------------------------

$comment
potential surface scanner
$end

$rem
JOBTYPE  PES_SCAN
UNRESTRICTED TRUE
SYM_IGNORE  TRUE
GEOM_OPT_MAX_CYCLES 400
SCF_MAX_CYCLES 400
METHOD   B3LYP
BASIS   6-31G**
PDB_PRINT 2
SCF_CONVERGENCE 6
THRESH 14
SCF_PRINT 1
$end
$molecule
0 1
S 2.097668 -0.000319 0.177538
C -0.330888 0.000072 -0.415853
C -0.867957 -1.289105 0.124744
C -0.867569 1.289386 0.124798
H -0.124319 0.000063 -1.483594
H -1.916132 -1.393341 -0.200761
H -0.311641 -2.150173 -0.247670
H -0.864587 -1.306402 1.218054
H -1.915709 1.393947 -0.200712
H -0.310990 2.150300 -0.247575
H -0.864206 1.306632 1.218109
H 1.806226 -0.000254 1.495324
$end
$scan
stre 1 2 2.600000 2.601000 0.100000
$end
--------------------------------------------------------------

    9    -517.2975371437      3.00e-07  Convergence criterion met
 Total energy in the final basis set =     -517.2975371437
    9    -517.2895198543      3.47e-07  Convergence criterion met
 Total energy in the final basis set =     -517.2895198543
    9    -517.2880216434      4.04e-07  Convergence criterion met
 Total energy in the final basis set =     -517.2880216434
    9    -517.2885929045      3.95e-07  Convergence criterion met
 Total energy in the final basis set =     -517.2885929045
    9    -517.2894899500      3.75e-07  Convergence criterion met
 Total energy in the final basis set =     -517.2894899500
    9    -517.2894976508      3.72e-07  Convergence criterion met
 Total energy in the final basis set =     -517.2894976508
    9    -517.2895003488      3.71e-07  Convergence criterion met
 Total energy in the final basis set =     -517.2895003488

             Standard Nuclear Orientation (Angstroms)
    I     Atom           X                Y                Z
 ----------------------------------------------------------------
    1      S       2.1611262949    -0.0003261955     0.1925598767
    2      C      -0.3644380021     0.0000763781    -0.4251170829
    3      C      -0.8804529560    -1.2908919707     0.1221267082
    4      C      -0.8800652850     1.2911754092     0.1221803176
    5      H      -0.1302247453     0.0000639888    -1.4864766982
    6      H      -1.9274482057    -1.4123929097    -0.2037871833
    7      H      -0.3120307813    -2.1451529831    -0.2471678707
    8      H      -0.8788463326    -1.3017567856     1.2152871428
    9      H      -1.9270202643     1.4130051153    -0.2037396304
   10      H      -0.3113790881     2.1452786964    -0.2470721202
   11      H      -0.8784694080     1.3019908473     1.2153410682
   12      H       1.8591447734    -0.0002635905     1.5082674721
 ----------------------------------------------------------------

    9    -517.2895019302      3.69e-07  Convergence criterion met
 Total energy in the final basis set =     -517.2895019302

                    Orbital Energies (a.u.)
 --------------------------------------------------------------

 Alpha MOs
 -- Occupied --
-88.846 -10.267 -10.204 -10.204  -7.905  -5.869  -5.868  -5.860
 -0.814  -0.717  -0.664  -0.594  -0.480  -0.451  -0.434  -0.410
 -0.381  -0.376  -0.354  -0.247  -0.213

 Beta MOs
 -- Occupied --
-88.846 -10.267 -10.204 -10.204  -7.905  -5.869  -5.868  -5.860
 -0.814  -0.717  -0.664  -0.594  -0.480  -0.451  -0.434  -0.410
 -0.381  -0.376  -0.354  -0.247  -0.213

          Ground-State Mulliken Net Atomic Charges

     Atom                 Charge (a.u.)    Spin (a.u.)
  --------------------------------------------------------
      1 S                    -0.323116      -0.000000
      2 C                    -0.036388      -0.000000
      3 C                    -0.321637       0.000000
      4 C                    -0.321637       0.000000
      5 H                     0.150263       0.000000
      6 H                     0.121989      -0.000000
      7 H                     0.151583      -0.000000
      8 H                     0.130513      -0.000000
      9 H                     0.121989      -0.000000
     10 H                     0.151583       0.000000
     11 H                     0.130512       0.000000
     12 H                     0.044346       0.000000
  --------------------------------------------------------
  Sum of atomic charges =     0.000000

                    Cartesian Multipole Moments
 -----------------------------------------------------------------
    Charge (ESU x 10^10)
                -0.0000
    Dipole Moment (Debye)
         X      -4.1789      Y       0.0007      Z       0.0966
       Tot       4.1800
    Quadrupole Moments (Debye-Ang)
        XX     -41.0842     XY       0.0010     YY     -34.2767
        XZ       1.0404     YZ      -0.0001     ZZ     -31.3246

 Final energy is   -517.289501930234
 **  OPTIMIZATION CONVERGED  **
 Total job time:  24.57s(wall), 274.67s(cpu)
        *  Thank you very much for using Q-Chem.  Have a nice day.  *
