 Q-Chem 5.1, Q-Chem, Inc., Pleasanton, CA (2018)
 Q-Chem 5.1.1 for Intel X86 EM64T Linux

User input:
--------------------------------------------------------------

$comment
potential surface scanner
$end

$rem
JOBTYPE  PES_SCAN
UNRESTRICTED TRUE
SYM_IGNORE  TRUE
GEOM_OPT_MAX_CYCLES 400
SCF_MAX_CYCLES 400
METHOD   B3LYP
BASIS   6-31G**
PDB_PRINT 2
SCF_CONVERGENCE 6
THRESH 14
SCF_PRINT 1
$end
$molecule
0 3
S 2.966413 0.004476 1.032298
C -0.446553 -0.001172 -0.396560
C -0.975630 -1.299340 0.119598
C -0.970444 1.298719 0.120615
H 0.028427 -0.001683 -1.376466
H -1.986392 -1.507818 -0.273179
H -0.343298 -2.145263 -0.167438
H -1.066128 -1.292189 1.212781
H -1.980532 1.511391 -0.271646
H -0.334880 2.142328 -0.166081
H -1.060709 1.291184 1.213833
H 1.699624 0.000169 0.514652
$end
$scan
stre 1 2 3.600000 3.601000 0.100000
$end
--------------------------------------------------------------

   10    -517.2356288051      3.07e-07  Convergence criterion met
 Total energy in the final basis set =     -517.2356288051
    9    -517.2340242559      9.21e-07  Convergence criterion met
 Total energy in the final basis set =     -517.2340242559
    9    -517.2353488213      9.77e-07  Convergence criterion met
 Total energy in the final basis set =     -517.2353488213
   10    -517.2357868061      3.10e-07  Convergence criterion met
 Total energy in the final basis set =     -517.2357868061
   10    -517.2358014315      3.11e-07  Convergence criterion met
 Total energy in the final basis set =     -517.2358014315
   10    -517.2358024390      3.11e-07  Convergence criterion met
 Total energy in the final basis set =     -517.2358024390
   10    -517.2358038043      3.12e-07  Convergence criterion met
 Total energy in the final basis set =     -517.2358038043
   10    -517.2358054541      3.12e-07  Convergence criterion met
 Total energy in the final basis set =     -517.2358054541
   10    -517.2358065734      3.11e-07  Convergence criterion met
 Total energy in the final basis set =     -517.2358065734

             Standard Nuclear Orientation (Angstroms)
    I     Atom           X                Y                Z
 ----------------------------------------------------------------
    1      S       2.8989249969     0.0014153302     1.0052015028
    2      C      -0.4227872210    -0.0005143132    -0.3826833270
    3      C      -0.9607538401    -1.2983728130     0.1262238802
    4      C      -0.9572762278     1.2986083514     0.1267005642
    5      H       0.0455082992    -0.0009071114    -1.3661819651
    6      H      -1.9677836628    -1.5013555997    -0.2783707120
    7      H      -0.3281598430    -2.1456394061    -0.1559578559
    8      H      -1.0625504871    -1.2925860363     1.2182732666
    9      H      -1.9635200887     1.5047162926    -0.2782531608
   10      H      -0.3220725634     2.1441750051    -0.1547271822
   11      H      -1.0596499222     1.2924972771     1.2187015357
   12      H       1.6300185598    -0.0012349767     0.4834804534
 ----------------------------------------------------------------

   10    -517.2358072262      3.11e-07  Convergence criterion met
 Total energy in the final basis set =     -517.2358072262

                    Orbital Energies (a.u.)
 --------------------------------------------------------------

 Alpha MOs
 -- Occupied --
-88.893 -10.207 -10.189 -10.189  -7.955  -5.926  -5.916  -5.907
 -0.793  -0.720  -0.700  -0.582  -0.461  -0.443  -0.417  -0.395
 -0.393  -0.364  -0.358  -0.306  -0.259  -0.200

 Beta MOs
 -- Occupied --
-88.888 -10.195 -10.189 -10.189  -7.949  -5.912  -5.908  -5.904
 -0.776  -0.697  -0.678  -0.562  -0.456  -0.424  -0.412  -0.389
 -0.378  -0.360  -0.353  -0.244

          Ground-State Mulliken Net Atomic Charges

     Atom                 Charge (a.u.)    Spin (a.u.)
  --------------------------------------------------------
      1 S                    -0.098080       1.079689
      2 C                    -0.097988       0.946722
      3 C                    -0.331263      -0.070673
      4 C                    -0.331377      -0.070666
      5 H                     0.104573      -0.038539
      6 H                     0.118083       0.062484
      7 H                     0.120829       0.008756
      8 H                     0.115199       0.015747
      9 H                     0.118121       0.062471
     10 H                     0.120962       0.008775
     11 H                     0.115103       0.015721
     12 H                     0.045836      -0.020488
  --------------------------------------------------------
  Sum of atomic charges =     0.000000

                    Cartesian Multipole Moments
 -----------------------------------------------------------------
    Charge (ESU x 10^10)
                -0.0000
    Dipole Moment (Debye)
         X      -2.1491      Y      -0.0017      Z      -0.7403
       Tot       2.2730
    Quadrupole Moments (Debye-Ang)
        XX     -39.9443     XY      -0.0219     YY     -35.4251
        XZ      -2.7771     YZ       0.0518     ZZ     -33.9371

 Final energy is   -517.235807226174
 **  OPTIMIZATION CONVERGED  **
 Total job time:  29.21s(wall), 342.24s(cpu)
        *  Thank you very much for using Q-Chem.  Have a nice day.  *
