 Q-Chem 5.1, Q-Chem, Inc., Pleasanton, CA (2018)
 Q-Chem 5.1.1 for Intel X86 EM64T Linux

User input:
--------------------------------------------------------------

$comment
potential surface scanner
$end

$rem
JOBTYPE  PES_SCAN
UNRESTRICTED TRUE
SYM_IGNORE  TRUE
GEOM_OPT_MAX_CYCLES 400
SCF_MAX_CYCLES 400
METHOD   B3LYP
BASIS   6-31G**
PDB_PRINT 2
SCF_CONVERGENCE 6
THRESH 14
SCF_PRINT 1
$end
$molecule
0 1
S 1.657900 -0.000200 0.107500
C -0.098900 0.000100 -0.384900
C -0.779700 -1.258900 0.138700
C -0.779300 1.259100 0.138700
H -0.135800 0.000100 -1.479400
H -1.829100 -1.282800 -0.175600
H -0.301500 -2.163300 -0.253500
H -0.763000 -1.307700 1.233500
H -1.828700 1.283400 -0.175500
H -0.300800 2.163400 -0.253400
H -0.762600 1.307800 1.233400
H 1.451400 -0.000200 1.432900
$end
$scan
stre 1 2 1.200000 1.201000 0.100000
$end
--------------------------------------------------------------

    9    -517.3397527088      2.29e-07  Convergence criterion met
 Total energy in the final basis set =     -517.3397527088
    9    -517.3268240487      2.00e-07  Convergence criterion met
 Total energy in the final basis set =     -517.3268240487
    8    -517.2850197798      8.54e-07  Convergence criterion met
 Total energy in the final basis set =     -517.2850197798
    8    -517.2071409035      7.12e-07  Convergence criterion met
 Total energy in the final basis set =     -517.2071409035
    8    -517.0816095185      8.21e-07  Convergence criterion met
 Total energy in the final basis set =     -517.0816095185
    9    -516.9131663274      4.43e-07  Convergence criterion met
 Total energy in the final basis set =     -516.9131663274
    9    -516.9017002206      4.63e-07  Convergence criterion met
 Total energy in the final basis set =     -516.9017002206
    9    -516.9004951501      4.75e-07  Convergence criterion met
    9    -516.9011554085      4.87e-07  Convergence criterion met
 Total energy in the final basis set =     -516.9011554085
    9    -516.9011578905      4.87e-07  Convergence criterion met
 Total energy in the final basis set =     -516.9011578905
    9    -516.9011595919      4.87e-07  Convergence criterion met
 Total energy in the final basis set =     -516.9011595919
    9    -516.9011608949      4.86e-07  Convergence criterion met
 Total energy in the final basis set =     -516.9011608949
    9    -516.9011622667      4.86e-07  Convergence criterion met
 Total energy in the final basis set =     -516.9011622667
    9    -516.9011634550      4.86e-07  Convergence criterion met
 Total energy in the final basis set =     -516.9011634550

             Standard Nuclear Orientation (Angstroms)
    I     Atom           X                Y                Z
 ----------------------------------------------------------------
    1      S       1.3321959644    -0.0001835408    -0.0482455643
    2      C       0.1504224616    -0.0000061906    -0.2565995116
    3      C      -0.7808591891    -1.2672142923     0.1497980849
    4      C      -0.7804838726     1.2674677505     0.1498423273
    5      H      -0.0375148841     0.0000444905    -1.3475596452
    6      H      -1.8084505387    -1.1902573714    -0.2157329288
    7      H      -0.3167109796    -2.1816761480    -0.2335661060
    8      H      -0.7973283254    -1.3243907267     1.2451466478
    9      H      -1.8080838579     1.1908531489    -0.2157338165
   10      H      -0.3160338083     2.1818060192    -0.2334500427
   11      H      -0.7969765910     1.3245820523     1.2451948323
   12      H       1.4897236206    -0.0002251915     1.3233057229
 ----------------------------------------------------------------

    9    -516.9011640546      4.86e-07  Convergence criterion met
 Total energy in the final basis set =     -516.9011640546

                    Orbital Energies (a.u.)
 --------------------------------------------------------------

 Alpha MOs
 -- Occupied --
-88.833 -10.204 -10.179 -10.179  -7.933  -5.898  -5.888  -5.882
 -0.950  -0.715  -0.686  -0.595  -0.480  -0.460  -0.457  -0.405
 -0.387  -0.379  -0.358  -0.277  -0.193

 Beta MOs
 -- Occupied --
-88.833 -10.204 -10.179 -10.179  -7.933  -5.898  -5.888  -5.882
 -0.950  -0.715  -0.686  -0.595  -0.480  -0.460  -0.457  -0.405
 -0.387  -0.379  -0.358  -0.277  -0.193

          Ground-State Mulliken Net Atomic Charges

     Atom                 Charge (a.u.)    Spin (a.u.)
  --------------------------------------------------------
      1 S                     0.065318       0.000000
      2 C                    -0.185761      -0.000000
      3 C                    -0.338055      -0.000000
      4 C                    -0.338056      -0.000000
      5 H                     0.167656      -0.000000
      6 H                     0.101217       0.000000
      7 H                     0.107453       0.000000
      8 H                     0.104613       0.000000
      9 H                     0.101217       0.000000
     10 H                     0.107453       0.000000
     11 H                     0.104613       0.000000
     12 H                     0.002334       0.000000
  --------------------------------------------------------
  Sum of atomic charges =    -0.000000

                    Cartesian Multipole Moments
 -----------------------------------------------------------------
    Charge (ESU x 10^10)
                -0.0000
    Dipole Moment (Debye)
         X      -1.3995      Y       0.0002      Z      -0.0455
       Tot       1.4002
    Quadrupole Moments (Debye-Ang)
        XX     -36.9710     XY       0.0002     YY     -35.0658
        XZ       1.4273     YZ      -0.0003     ZZ     -31.5266

 Final energy is   -516.901164054612
 **  OPTIMIZATION CONVERGED  **
 Total job time:  77.39s(wall), 867.84s(cpu)
        *  Thank you very much for using Q-Chem.  Have a nice day.  *
