 Q-Chem 5.1, Q-Chem, Inc., Pleasanton, CA (2018)
 Q-Chem 5.1.1 for Intel X86 EM64T Linux

User input:
--------------------------------------------------------------

$comment
potential surface scanner
$end

$rem
JOBTYPE  PES_SCAN
UNRESTRICTED TRUE
SYM_IGNORE  TRUE
GEOM_OPT_MAX_CYCLES 400
SCF_MAX_CYCLES 400
METHOD   B3LYP
BASIS   6-31G**
PDB_PRINT 2
SCF_CONVERGENCE 6
THRESH 14
SCF_PRINT 1
$end
$molecule
0 3
S 3.649613 0.012380 1.122153
C -0.579783 -0.003121 -0.414716
C -1.121060 -1.300779 0.086863
C -1.111236 1.297616 0.089494
H -0.030393 -0.004207 -1.353999
H -2.125789 -1.511474 -0.320929
H -0.484196 -2.147194 -0.189371
H -1.230500 -1.296909 1.179147
H -2.115301 1.515707 -0.316067
H -0.469123 2.139991 -0.186874
H -1.218822 1.293105 1.181986
H 2.366486 0.005686 0.684718
$end
$scan
stre 1 2 4.400000 4.401000 0.100000
$end
--------------------------------------------------------------

    9    -517.2333475078      9.26e-07  Convergence criterion met
 Total energy in the final basis set =     -517.2333475078
    9    -517.2316938921      8.25e-07  Convergence criterion met
 Total energy in the final basis set =     -517.2316938921
    9    -517.2331907405      8.80e-07  Convergence criterion met
 Total energy in the final basis set =     -517.2331907405
    9    -517.2336014223      9.28e-07  Convergence criterion met
 Total energy in the final basis set =     -517.2336014223

             Standard Nuclear Orientation (Angstroms)
    I     Atom           X                Y                Z
 ----------------------------------------------------------------
    1      S       3.5622403644     0.0114509035     1.1124910333
    2      C      -0.5643233238    -0.0028629010    -0.4143577742
    3      C      -1.1023374459    -1.3006385562     0.0906489887
    4      C      -1.0930757783     1.2977921209     0.0930785166
    5      H      -0.0254130969    -0.0039347225    -1.3597802989
    6      H      -2.1084276702    -1.5122401528    -0.3132800636
    7      H      -0.4659900708    -2.1467465159    -0.1876672012
    8      H      -1.2074757843    -1.2958901620     1.1832593839
    9      H      -2.0985288336     1.5163597795    -0.3087410509
   10      H      -0.4517854743     2.1401080054    -0.1853492608
   11      H      -1.1963661529     1.2924576988     1.1858848195
   12      H       2.2813792668     0.0049455022     0.6662179076
 ----------------------------------------------------------------

    9    -517.2336087608      9.36e-07  Convergence criterion met
 Total energy in the final basis set =     -517.2336087608

                    Orbital Energies (a.u.)
 --------------------------------------------------------------

 Alpha MOs
 -- Occupied --
-88.904 -10.197 -10.183 -10.183  -7.966  -5.937  -5.927  -5.918
 -0.785  -0.732  -0.694  -0.575  -0.455  -0.433  -0.411  -0.405
 -0.389  -0.358  -0.352  -0.315  -0.268  -0.190

 Beta MOs
 -- Occupied --
-88.899 -10.184 -10.184 -10.184  -7.960  -5.924  -5.919  -5.915
 -0.768  -0.692  -0.691  -0.554  -0.450  -0.415  -0.406  -0.391
 -0.383  -0.354  -0.347  -0.253

          Ground-State Mulliken Net Atomic Charges

     Atom                 Charge (a.u.)    Spin (a.u.)
  --------------------------------------------------------
      1 S                    -0.088665       1.034888
      2 C                    -0.083155       0.999531
      3 C                    -0.335538      -0.076900
      4 C                    -0.335616      -0.076913
      5 H                     0.091829      -0.043745
      6 H                     0.114288       0.064505
      7 H                     0.113765       0.008218
      8 H                     0.110642       0.019119
      9 H                     0.114294       0.064538
     10 H                     0.113796       0.008156
     11 H                     0.110643       0.019215
     12 H                     0.073718      -0.020612
  --------------------------------------------------------
  Sum of atomic charges =    -0.000000

                    Cartesian Multipole Moments
 -----------------------------------------------------------------
    Charge (ESU x 10^10)
                 0.0000
    Dipole Moment (Debye)
         X      -1.6197      Y      -0.0052      Z      -0.4981
       Tot       1.6946
    Quadrupole Moments (Debye-Ang)
        XX     -40.3286     XY      -0.0211     YY     -35.7053
        XZ      -2.6528     YZ       0.0242     ZZ     -33.9249

 Final energy is   -517.233608760844
 **  OPTIMIZATION CONVERGED  **
 Total job time:  15.71s(wall), 161.41s(cpu)
        *  Thank you very much for using Q-Chem.  Have a nice day.  *
