 Q-Chem 5.1, Q-Chem, Inc., Pleasanton, CA (2018)
 Q-Chem 5.1.1 for Intel X86 EM64T Linux

User input:
--------------------------------------------------------------

$comment
potential surface scanner
$end

$rem
JOBTYPE  PES_SCAN
UNRESTRICTED TRUE
SYM_IGNORE  TRUE
GEOM_OPT_MAX_CYCLES 400
SCF_MAX_CYCLES 400
METHOD   B3LYP
BASIS   6-31G**
PDB_PRINT 2
SCF_CONVERGENCE 6
THRESH 14
SCF_PRINT 1
$end
$molecule
0 3
S 3.388948 0.009064 1.092195
C -0.532390 -0.002256 -0.412126
C -1.065149 -1.300230 0.098462
C -1.057335 1.298157 0.100398
H -0.013151 -0.003119 -1.368674
H -2.073593 -1.512560 -0.299073
H -0.430053 -2.145962 -0.183651
H -1.162969 -1.294204 1.191558
H -2.065214 1.516366 -0.295405
H -0.418033 2.140658 -0.181841
H -1.153659 1.291676 1.193643
H 2.112495 0.003210 0.626920
$end
$scan
stre 1 2 4.100000 4.101000 0.100000
$end
--------------------------------------------------------------

    9    -517.2341803498      9.59e-07  Convergence criterion met
 Total energy in the final basis set =     -517.2341803498
    9    -517.2325966460      8.55e-07  Convergence criterion met
 Total energy in the final basis set =     -517.2325966460
    9    -517.2340573761      9.12e-07  Convergence criterion met
 Total energy in the final basis set =     -517.2340573761
    9    -517.2344760460      9.63e-07  Convergence criterion met
 Total energy in the final basis set =     -517.2344760460
    9    -517.2344843534      9.71e-07  Convergence criterion met
 Total energy in the final basis set =     -517.2344843534

             Standard Nuclear Orientation (Angstroms)
    I     Atom           X                Y                Z
 ----------------------------------------------------------------
    1      S       3.3032871182     0.0080680112     1.0812274294
    2      C      -0.5158815217    -0.0020076589    -0.4100302356
    3      C      -1.0469142169    -1.3000555042     0.1024791118
    4      C      -1.0396925318     1.2983054749     0.1042083738
    5      H      -0.0058944650    -0.0027939082    -1.3716495270
    6      H      -2.0562669785    -1.5121343241    -0.2927968794
    7      H      -0.4125018872    -2.1457080613    -0.1812906346
    8      H      -1.1420071394    -1.2937437794     1.1957195411
    9      H      -2.0484781594     1.5158583857    -0.2895572718
   10      H      -0.4013220470     2.1409405442    -0.1796224780
   11      H      -1.1335035743     1.2915705607     1.1975735076
   12      H       2.0290724030     0.0025002593     0.6061450627
 ----------------------------------------------------------------

    9    -517.2344846277      9.72e-07  Convergence criterion met
 Total energy in the final basis set =     -517.2344846277

                    Orbital Energies (a.u.)
 --------------------------------------------------------------

 Alpha MOs
 -- Occupied --
-88.901 -10.200 -10.185 -10.185  -7.963  -5.934  -5.924  -5.915
 -0.787  -0.728  -0.696  -0.577  -0.457  -0.435  -0.413  -0.402
 -0.391  -0.360  -0.354  -0.313  -0.265  -0.193

 Beta MOs
 -- Occupied --
-88.896 -10.187 -10.186 -10.186  -7.957  -5.920  -5.916  -5.912
 -0.770  -0.694  -0.688  -0.556  -0.452  -0.418  -0.408  -0.388
 -0.385  -0.356  -0.349  -0.250

          Ground-State Mulliken Net Atomic Charges

     Atom                 Charge (a.u.)    Spin (a.u.)
  --------------------------------------------------------
      1 S                    -0.091977       1.042470
      2 C                    -0.084915       0.986552
      3 C                    -0.335670      -0.075492
      4 C                    -0.335733      -0.075501
      5 H                     0.094976      -0.042519
      6 H                     0.115396       0.064501
      7 H                     0.115980       0.008498
      8 H                     0.112004       0.018043
      9 H                     0.115402       0.064523
     10 H                     0.116044       0.008456
     11 H                     0.111990       0.018109
     12 H                     0.066503      -0.017639
  --------------------------------------------------------
  Sum of atomic charges =     0.000000

                    Cartesian Multipole Moments
 -----------------------------------------------------------------
    Charge (ESU x 10^10)
                -0.0000
    Dipole Moment (Debye)
         X      -1.7785      Y      -0.0045      Z      -0.5731
       Tot       1.8686
    Quadrupole Moments (Debye-Ang)
        XX     -40.0928     XY      -0.0186     YY     -35.6183
        XZ      -2.6807     YZ       0.0267     ZZ     -33.9255

 Final energy is   -517.234484627672
 **  OPTIMIZATION CONVERGED  **
 Total job time:  16.81s(wall), 194.23s(cpu)
        *  Thank you very much for using Q-Chem.  Have a nice day.  *
