 Q-Chem 5.1, Q-Chem, Inc., Pleasanton, CA (2018)
 Q-Chem 5.1.1 for Intel X86 EM64T Linux

User input:
--------------------------------------------------------------

$comment
potential surface scanner
$end

$rem
JOBTYPE  PES_SCAN
UNRESTRICTED TRUE
SYM_IGNORE  TRUE
GEOM_OPT_MAX_CYCLES 400
SCF_MAX_CYCLES 400
METHOD   B3LYP
BASIS   6-31G**
PDB_PRINT 2
SCF_CONVERGENCE 6
THRESH 14
SCF_PRINT 1
$end
$molecule
0 3
S 3.049730 0.005427 1.045003
C -0.464524 -0.001385 -0.400671
C -0.993279 -1.299548 0.115152
C -0.987567 1.298636 0.116349
H 0.019425 -0.001970 -1.376017
H -2.003968 -1.509452 -0.277349
H -0.360417 -2.145268 -0.171473
H -1.084136 -1.292543 1.208424
H -1.997607 1.513069 -0.275382
H -0.351281 2.141862 -0.170029
H -1.077911 1.291233 1.209676
H 1.781431 0.000740 0.538725
$end
$scan
stre 1 2 3.700000 3.701000 0.100000
$end
--------------------------------------------------------------

   10    -517.2353843120      3.02e-07  Convergence criterion met
 Total energy in the final basis set =     -517.2353843120
    9    -517.2338165602      9.06e-07  Convergence criterion met
 Total energy in the final basis set =     -517.2338165602
    9    -517.2351821864      9.64e-07  Convergence criterion met
 Total energy in the final basis set =     -517.2351821864
   10    -517.2356156782      3.05e-07  Convergence criterion met
 Total energy in the final basis set =     -517.2356156782
   10    -517.2356280540      3.06e-07  Convergence criterion met
 Total energy in the final basis set =     -517.2356280540

             Standard Nuclear Orientation (Angstroms)
    I     Atom           X                Y                Z
 ----------------------------------------------------------------
    1      S       2.9664125104     0.0044760179     1.0322981843
    2      C      -0.4465530243    -0.0011722294    -0.3965595495
    3      C      -0.9756301936    -1.2993402083     0.1195980042
    4      C      -0.9704439318     1.2987188190     0.1206148671
    5      H       0.0284268541    -0.0016830355    -1.3764662723
    6      H      -1.9863919933    -1.5078182113    -0.2731787918
    7      H      -0.3432983193    -2.1452625866    -0.1674376037
    8      H      -1.0661282831    -1.2921893002     1.2127814520
    9      H      -1.9805323842     1.5113907107    -0.2716459113
   10      H      -0.3348804928     2.1423281784    -0.1660811102
   11      H      -1.0607089349     1.2911835910     1.2138331598
   12      H       1.6996241929     0.0001692541     0.5146515715
 ----------------------------------------------------------------

   10    -517.2356288065      3.07e-07  Convergence criterion met
 Total energy in the final basis set =     -517.2356288065

                    Orbital Energies (a.u.)
 --------------------------------------------------------------

 Alpha MOs
 -- Occupied --
-88.895 -10.206 -10.188 -10.188  -7.957  -5.928  -5.918  -5.909
 -0.792  -0.722  -0.699  -0.581  -0.461  -0.441  -0.416  -0.395
 -0.394  -0.363  -0.357  -0.308  -0.260  -0.198

 Beta MOs
 -- Occupied --
-88.890 -10.193 -10.189 -10.189  -7.951  -5.914  -5.910  -5.906
 -0.775  -0.696  -0.681  -0.561  -0.455  -0.423  -0.411  -0.388
 -0.380  -0.359  -0.352  -0.245

          Ground-State Mulliken Net Atomic Charges

     Atom                 Charge (a.u.)    Spin (a.u.)
  --------------------------------------------------------
      1 S                    -0.096509       1.067737
      2 C                    -0.093876       0.958196
      3 C                    -0.332767      -0.072323
      4 C                    -0.332925      -0.072320
      5 H                     0.102068      -0.039901
      6 H                     0.117466       0.063220
      7 H                     0.119725       0.008790
      8 H                     0.114436       0.016461
      9 H                     0.117515       0.063220
     10 H                     0.119896       0.008782
     11 H                     0.114316       0.016475
     12 H                     0.050656      -0.018337
  --------------------------------------------------------
  Sum of atomic charges =    -0.000000

                    Cartesian Multipole Moments
 -----------------------------------------------------------------
    Charge (ESU x 10^10)
                 0.0000
    Dipole Moment (Debye)
         X      -2.0528      Y      -0.0035      Z      -0.7048
       Tot       2.1705
    Quadrupole Moments (Debye-Ang)
        XX     -39.9069     XY      -0.0360     YY     -35.4664
        XZ      -2.7669     YZ       0.0764     ZZ     -33.9502

 Final energy is   -517.235628806512
 **  OPTIMIZATION CONVERGED  **
 Total job time:  17.31s(wall), 200.65s(cpu)
        *  Thank you very much for using Q-Chem.  Have a nice day.  *
