 Q-Chem 5.1, Q-Chem, Inc., Pleasanton, CA (2018)
 Q-Chem 5.1.1 for Intel X86 EM64T Linux

User input:
--------------------------------------------------------------

$comment
potential surface scanner
$end

$rem
JOBTYPE  PES_SCAN
UNRESTRICTED TRUE
SYM_IGNORE  TRUE
GEOM_OPT_MAX_CYCLES 400
SCF_MAX_CYCLES 400
METHOD   B3LYP
BASIS   6-31G**
PDB_PRINT 2
SCF_CONVERGENCE 6
THRESH 14
SCF_PRINT 1
$end
$molecule
0 3
S 1.476790 -0.123977 1.299569
C -0.043535 0.031926 -0.282931
C -0.642927 -1.300618 0.216535
C -0.738061 1.310177 0.222183
H -0.351838 0.008302 -1.366900
H -1.660017 -1.392737 -0.182602
H -0.065356 -2.158293 -0.137669
H -0.721842 -1.358140 1.307398
H -1.728525 1.405255 -0.237543
H -0.163065 2.200768 -0.048371
H -0.857599 1.307479 1.307124
H 1.025873 0.070659 -0.534382
$end
$scan
stre 1 2 2.100000 2.101000 0.100000
$end
--------------------------------------------------------------

   13    -517.1963794537      6.54e-07  Convergence criterion met
 Total energy in the final basis set =     -517.1963794537
   13    -517.1793720268      5.35e-07  Convergence criterion met
 Total energy in the final basis set =     -517.1793720268
   13    -517.1793734210      5.70e-07  Convergence criterion met
 Total energy in the final basis set =     -517.1793734210
   13    -517.1799695426      6.86e-07  Convergence criterion met
 Total energy in the final basis set =     -517.1799695426
   13    -517.1800040192      7.23e-07  Convergence criterion met
 Total energy in the final basis set =     -517.1800040192
   13    -517.1800107952      7.39e-07  Convergence criterion met
 Total energy in the final basis set =     -517.1800107952
   13    -517.1800142390      7.46e-07  Convergence criterion met
 Total energy in the final basis set =     -517.1800142390
   13    -517.1800175186      7.50e-07  Convergence criterion met
 Total energy in the final basis set =     -517.1800175186
   13    -517.1800218956      7.54e-07  Convergence criterion met
 Total energy in the final basis set =     -517.1800218956
   13    -517.1800283946      7.60e-07  Convergence criterion met
 Total energy in the final basis set =     -517.1800283946
   13    -517.1800361027      7.70e-07  Convergence criterion met
 Total energy in the final basis set =     -517.1800361027
   13    -517.1800420561      7.79e-07  Convergence criterion met
 Total energy in the final basis set =     -517.1800420561
   13    -517.1800446283      7.85e-07  Convergence criterion met
 Total energy in the final basis set =     -517.1800446283

             Standard Nuclear Orientation (Angstroms)
    I     Atom           X                Y                Z
 ----------------------------------------------------------------
    1      S       1.4271548514    -0.1050118475     1.2653485475
    2      C      -0.0207078419     0.0316132795    -0.2495862324
    3      C      -0.6355810455    -1.3108508242     0.2266756154
    4      C      -0.7296083902     1.3169161629     0.2306660332
    5      H      -0.3872487318     0.0022929731    -1.3340692358
    6      H      -1.6411026881    -1.4045387926    -0.1997987043
    7      H      -0.0435401562    -2.1628878411    -0.1162230596
    8      H      -0.7374426705    -1.3696737609     1.3155633309
    9      H      -1.6998574803     1.4267362909    -0.2670950285
   10      H      -0.1329519537     2.2016306483    -0.0096387119
   11      H      -0.8880042605     1.3056208746     1.3107474454
   12      H       1.0187883674     0.0689538369    -0.6101789998
 ----------------------------------------------------------------

   13    -517.1800451911      7.88e-07  Convergence criterion met
 Total energy in the final basis set =     -517.1800451911

                    Orbital Energies (a.u.)
 --------------------------------------------------------------

 Alpha MOs
 -- Occupied --
-88.872 -10.222 -10.199 -10.187  -7.935  -5.905  -5.902  -5.887
 -0.827  -0.702  -0.690  -0.614  -0.473  -0.465  -0.422  -0.406
 -0.382  -0.364  -0.351  -0.278  -0.243  -0.194

 Beta MOs
 -- Occupied --
-88.862 -10.220 -10.198 -10.187  -7.925  -5.885  -5.884  -5.880
 -0.814  -0.700  -0.642  -0.589  -0.462  -0.447  -0.417  -0.401
 -0.374  -0.361  -0.331  -0.220

          Ground-State Mulliken Net Atomic Charges

     Atom                 Charge (a.u.)    Spin (a.u.)
  --------------------------------------------------------
      1 S                    -0.101993       1.720752
      2 C                    -0.331277       0.004982
      3 C                    -0.321684       0.028876
      4 C                    -0.277677       0.006263
      5 H                     0.102397       0.161764
      6 H                     0.122634       0.028161
      7 H                     0.133799      -0.001522
      8 H                     0.136782      -0.001227
      9 H                     0.103637      -0.001793
     10 H                     0.114683       0.000040
     11 H                     0.133301      -0.000372
     12 H                     0.185397       0.054076
  --------------------------------------------------------
  Sum of atomic charges =    -0.000000

                    Cartesian Multipole Moments
 -----------------------------------------------------------------
    Charge (ESU x 10^10)
                 0.0000
    Dipole Moment (Debye)
         X      -1.6218      Y       0.0350      Z      -1.5350
       Tot       2.2333
    Quadrupole Moments (Debye-Ang)
        XX     -37.2804     XY       1.4873     YY     -33.2382
        XZ      -2.5974     YZ      -0.2429     ZZ     -36.5036

 Final energy is   -517.180045191100
 **  OPTIMIZATION CONVERGED  **
 Total job time:  60.58s(wall), 665.54s(cpu)
        *  Thank you very much for using Q-Chem.  Have a nice day.  *
