 Q-Chem 5.1, Q-Chem, Inc., Pleasanton, CA (2018)
 Q-Chem 5.1.1 for Intel X86 EM64T Linux

User input:
--------------------------------------------------------------

$comment
potential surface scanner
$end

$rem
JOBTYPE  PES_SCAN
UNRESTRICTED TRUE
SYM_IGNORE  TRUE
GEOM_OPT_MAX_CYCLES 400
SCF_MAX_CYCLES 400
METHOD   B3LYP
BASIS   6-31G**
PDB_PRINT 2
SCF_CONVERGENCE 6
THRESH 14
SCF_PRINT 1
$end
$molecule
0 3
S 2.898925 0.001415 1.005202
C -0.422787 -0.000514 -0.382683
C -0.960754 -1.298373 0.126224
C -0.957276 1.298608 0.126701
H 0.045508 -0.000907 -1.366182
H -1.967784 -1.501356 -0.278371
H -0.328160 -2.145639 -0.155958
H -1.062550 -1.292586 1.218273
H -1.963520 1.504716 -0.278253
H -0.322073 2.144175 -0.154727
H -1.059650 1.292497 1.218702
H 1.630019 -0.001235 0.483480
$end
$scan
stre 1 2 3.500000 3.501000 0.100000
$end
--------------------------------------------------------------

   10    -517.2358072262      3.11e-07  Convergence criterion met
 Total energy in the final basis set =     -517.2358072262
    9    -517.2341345601      9.35e-07  Convergence criterion met
 Total energy in the final basis set =     -517.2341345601
    9    -517.2354111604      9.90e-07  Convergence criterion met
 Total energy in the final basis set =     -517.2354111604
   10    -517.2358574133      3.15e-07  Convergence criterion met
 Total energy in the final basis set =     -517.2358574133
   10    -517.2358742499      3.17e-07  Convergence criterion met
 Total energy in the final basis set =     -517.2358742499

             Standard Nuclear Orientation (Angstroms)
    I     Atom           X                Y                Z
 ----------------------------------------------------------------
    1      S       2.8114040388     0.0012936478     0.9959481554
    2      C      -0.4064718239    -0.0004942587    -0.3807405674
    3      C      -0.9424322467    -1.2986390658     0.1304054871
    4      C      -0.9390061296     1.2988992563     0.1308556182
    5      H       0.0518559588    -0.0008384085    -1.3690759774
    6      H      -1.9495108246    -1.5023550426    -0.2732327280
    7      H      -0.3090620045    -2.1452027107    -0.1519701460
    8      H      -1.0425257986    -1.2917411122     1.2224736989
    9      H      -1.9453036379     1.5057063560    -0.2731389390
   10      H      -0.3030476273     2.1437648276    -0.1508018458
   11      H      -1.0397407331     1.2916794390     1.2228785011
   12      H       1.5437388287    -0.0012719283     0.4588067431
 ----------------------------------------------------------------

   10    -517.2358748203      3.17e-07  Convergence criterion met
 Total energy in the final basis set =     -517.2358748203

                    Orbital Energies (a.u.)
 --------------------------------------------------------------

 Alpha MOs
 -- Occupied --
-88.891 -10.209 -10.190 -10.190  -7.953  -5.924  -5.914  -5.905
 -0.795  -0.718  -0.701  -0.583  -0.463  -0.445  -0.418  -0.396
 -0.391  -0.365  -0.359  -0.305  -0.257  -0.202

 Beta MOs
 -- Occupied --
-88.885 -10.196 -10.190 -10.190  -7.947  -5.909  -5.906  -5.902
 -0.778  -0.698  -0.675  -0.563  -0.457  -0.426  -0.413  -0.390
 -0.375  -0.361  -0.354  -0.242

          Ground-State Mulliken Net Atomic Charges

     Atom                 Charge (a.u.)    Spin (a.u.)
  --------------------------------------------------------
      1 S                    -0.099932       1.095178
      2 C                    -0.104090       0.933585
      3 C                    -0.329079      -0.069152
      4 C                    -0.329291      -0.069147
      5 H                     0.107555      -0.037495
      6 H                     0.118803       0.061435
      7 H                     0.122067       0.008878
      8 H                     0.115938       0.015201
      9 H                     0.118875       0.061427
     10 H                     0.122258       0.008899
     11 H                     0.115778       0.015174
     12 H                     0.041117      -0.023983
  --------------------------------------------------------
  Sum of atomic charges =     0.000000

                    Cartesian Multipole Moments
 -----------------------------------------------------------------
    Charge (ESU x 10^10)
                -0.0000
    Dipole Moment (Debye)
         X      -2.2307      Y      -0.0016      Z      -0.7848
       Tot       2.3647
    Quadrupole Moments (Debye-Ang)
        XX     -39.9191     XY      -0.0347     YY     -35.3733
        XZ      -2.8242     YZ       0.0797     ZZ     -33.9588

 Final energy is   -517.235874820300
 **  OPTIMIZATION CONVERGED  **
 Total job time:  17.85s(wall), 206.53s(cpu)
        *  Thank you very much for using Q-Chem.  Have a nice day.  *
