 Q-Chem 5.1, Q-Chem, Inc., Pleasanton, CA (2018)
 Q-Chem 5.1.1 for Intel X86 EM64T Linux

User input:
--------------------------------------------------------------

$comment
potential surface scanner
$end

$rem
JOBTYPE  PES_SCAN
UNRESTRICTED TRUE
SYM_IGNORE  TRUE
GEOM_OPT_MAX_CYCLES 400
SCF_MAX_CYCLES 400
METHOD   B3LYP
BASIS   6-31G**
PDB_PRINT 2
SCF_CONVERGENCE 6
THRESH 14
SCF_PRINT 1
$end
$molecule
0 3
S 1.787370 -0.242113 1.533178
C -0.103590 0.040022 -0.373304
C -0.691031 -1.267252 0.159656
C -0.784652 1.296720 0.169910
H -0.203255 0.032811 -1.471098
H -1.743881 -1.344933 -0.135232
H -0.165093 -2.140634 -0.236733
H -0.664070 -1.319176 1.254707
H -1.845598 1.300915 -0.105111
H -0.331905 2.205147 -0.239989
H -0.717485 1.349704 1.260104
H 0.993087 0.089590 -0.253678
$end
$scan
stre 1 2 2.600000 2.601000 0.100000
$end
--------------------------------------------------------------

   15    -517.2452661379      5.65e-07  Convergence criterion met
 Total energy in the final basis set =     -517.2452661379
   15    -517.2385453052      5.01e-07  Convergence criterion met
 Total energy in the final basis set =     -517.2385453052
   14    -517.2391568304      9.42e-07  Convergence criterion met
 Total energy in the final basis set =     -517.2391568304
   14    -517.2392946681      8.97e-07  Convergence criterion met
 Total energy in the final basis set =     -517.2392946681
   14    -517.2393017813      8.78e-07  Convergence criterion met
 Total energy in the final basis set =     -517.2393017813
   14    -517.2393103614      8.46e-07  Convergence criterion met
 Total energy in the final basis set =     -517.2393103614
   14    -517.2393179683      8.10e-07  Convergence criterion met
 Total energy in the final basis set =     -517.2393179683
   14    -517.2393241165      7.78e-07  Convergence criterion met
 Total energy in the final basis set =     -517.2393241165
   14    -517.2393268021      7.67e-07  Convergence criterion met
 Total energy in the final basis set =     -517.2393268021

             Standard Nuclear Orientation (Angstroms)
    I     Atom           X                Y                Z
 ----------------------------------------------------------------
    1      S       1.7089396717    -0.2214757300     1.4978187593
    2      C      -0.0922005865     0.0385808192    -0.3591321355
    3      C      -0.6817766284    -1.2718018151     0.1667787081
    4      C      -0.7743939562     1.2976760985     0.1791516812
    5      H      -0.2172693211     0.0304499455    -1.4564358594
    6      H      -1.7323899901    -1.3439294239    -0.1375740639
    7      H      -0.1549330093    -2.1431221556    -0.2324684235
    8      H      -0.6666813079    -1.3331050103     1.2613090592
    9      H      -1.8318612703     1.3030278932    -0.1088342326
   10      H      -0.3155018367     2.2037845972    -0.2290327885
   11      H      -0.7194128590     1.3542784769     1.2692107782
   12      H       1.0073780939     0.0864373045    -0.2883814826
 ----------------------------------------------------------------

   14    -517.2393277588      7.71e-07  Convergence criterion met
 Total energy in the final basis set =     -517.2393277588

                    Orbital Energies (a.u.)
 --------------------------------------------------------------

 Alpha MOs
 -- Occupied --
-88.899 -10.202 -10.186 -10.179  -7.960  -5.929  -5.928  -5.911
 -0.801  -0.702  -0.690  -0.603  -0.475  -0.449  -0.409  -0.393
 -0.369  -0.351  -0.345  -0.301  -0.262  -0.258

 Beta MOs
 -- Occupied --
-88.888 -10.199 -10.186 -10.179  -7.949  -5.909  -5.908  -5.904
 -0.795  -0.690  -0.628  -0.590  -0.458  -0.447  -0.407  -0.389
 -0.356  -0.349  -0.338  -0.236

          Ground-State Mulliken Net Atomic Charges

     Atom                 Charge (a.u.)    Spin (a.u.)
  --------------------------------------------------------
      1 S                    -0.081072       1.850231
      2 C                    -0.219037       0.114490
      3 C                    -0.318782       0.009057
      4 C                    -0.297860      -0.004068
      5 H                     0.110694       0.026375
      6 H                     0.114946       0.013903
      7 H                     0.119486      -0.000083
      8 H                     0.120049      -0.001303
      9 H                     0.104163       0.001501
     10 H                     0.105733       0.000539
     11 H                     0.127038       0.000309
     12 H                     0.114641      -0.010952
  --------------------------------------------------------
  Sum of atomic charges =     0.000000

                    Cartesian Multipole Moments
 -----------------------------------------------------------------
    Charge (ESU x 10^10)
                -0.0000
    Dipole Moment (Debye)
         X      -1.0947      Y       0.0922      Z      -1.0011
       Tot       1.4863
    Quadrupole Moments (Debye-Ang)
        XX     -36.1073     XY       1.5531     YY     -34.2297
        XZ      -1.2446     YZ      -0.4328     ZZ     -35.5297

 Final energy is   -517.239327758776
 **  OPTIMIZATION CONVERGED  **
 Total job time:  39.15s(wall), 460.09s(cpu)
        *  Thank you very much for using Q-Chem.  Have a nice day.  *
