 Q-Chem 5.1, Q-Chem, Inc., Pleasanton, CA (2018)
 Q-Chem 5.1.1 for Intel X86 EM64T Linux

User input:
--------------------------------------------------------------

$comment
potential surface scanner
$end

$rem
JOBTYPE  PES_SCAN
UNRESTRICTED TRUE
SYM_IGNORE  TRUE
GEOM_OPT_MAX_CYCLES 400
SCF_MAX_CYCLES 400
METHOD   B3LYP
BASIS   6-31G**
PDB_PRINT 2
SCF_CONVERGENCE 6
THRESH 14
SCF_PRINT 1
$end
$molecule
0 3
S 4.554694 -0.000545 0.106280
C -0.739322 0.000225 -0.145494
C -1.440476 -1.299423 0.068365
C -1.440335 1.299957 0.068317
H 0.198396 0.000165 -0.695838
H -2.168732 -1.517178 -0.733619
H -0.742002 -2.141935 0.097376
H -2.013345 -1.300415 1.005702
H -2.168655 1.517704 -0.733612
H -0.741782 2.142407 0.097181
H -2.013112 1.301087 1.005712
H 4.244568 -0.001247 1.422034
$end
$scan
stre 1 2 5.200000 5.201000 0.100000
$end
--------------------------------------------------------------

    9    -517.2316325410      8.64e-07  Convergence criterion met
 Total energy in the final basis set =     -517.2316325410
    9    -517.2305942538      8.34e-07  Convergence criterion met
 Total energy in the final basis set =     -517.2305942538
    9    -517.2314099215      8.48e-07  Convergence criterion met
 Total energy in the final basis set =     -517.2314099215
    9    -517.2316337922      8.63e-07  Convergence criterion met
 Total energy in the final basis set =     -517.2316337922
    9    -517.2316371191      8.64e-07  Convergence criterion met
 Total energy in the final basis set =     -517.2316371191

             Standard Nuclear Orientation (Angstroms)
    I     Atom           X                Y                Z
 ----------------------------------------------------------------
    1      S       4.4655432911    -0.0005259892     0.1214194433
    2      C      -0.7264076438     0.0002346196    -0.1677948677
    3      C      -1.4201523257    -1.2993829055     0.0689236223
    4      C      -1.4200462993     1.2999191396     0.0688675363
    5      H       0.1937767048     0.0001849571    -0.7471525414
    6      H      -2.1754520370    -1.5165546000    -0.7078359507
    7      H      -0.7212787808    -2.1420303711     0.0736435454
    8      H      -1.9608989041    -1.3007741736     1.0251819490
    9      H      -2.1754015243     1.5170682025    -0.7078444528
   10      H      -0.7211174338     2.1425206369     0.0734509733
   11      H      -1.9607112029     1.3014312908     1.0251724793
   12      H       4.1520431559    -0.0012888071     1.4363722637
 ----------------------------------------------------------------

    9    -517.2316378085      8.64e-07  Convergence criterion met
 Total energy in the final basis set =     -517.2316378085

                    Orbital Energies (a.u.)
 --------------------------------------------------------------

 Alpha MOs
 -- Occupied --
-88.911 -10.183 -10.175 -10.175  -7.973  -5.944  -5.934  -5.925
 -0.774  -0.739  -0.685  -0.565  -0.445  -0.423  -0.413  -0.403
 -0.380  -0.349  -0.342  -0.321  -0.273  -0.176

 Beta MOs
 -- Occupied --
-88.906 -10.176 -10.176 -10.169  -7.967  -5.931  -5.926  -5.922
 -0.757  -0.699  -0.683  -0.543  -0.440  -0.405  -0.399  -0.397
 -0.374  -0.345  -0.337  -0.259

          Ground-State Mulliken Net Atomic Charges

     Atom                 Charge (a.u.)    Spin (a.u.)
  --------------------------------------------------------
      1 S                    -0.074513       1.027480
      2 C                    -0.075027       1.018865
      3 C                    -0.333725      -0.079923
      4 C                    -0.333725      -0.079923
      5 H                     0.094874      -0.046257
      6 H                     0.108936       0.063368
      7 H                     0.108765       0.007423
      8 H                     0.105844       0.022771
      9 H                     0.108935       0.063367
     10 H                     0.108766       0.007420
     11 H                     0.105845       0.022776
     12 H                     0.075026      -0.027368
  --------------------------------------------------------
  Sum of atomic charges =    -0.000000

                    Cartesian Multipole Moments
 -----------------------------------------------------------------
    Charge (ESU x 10^10)
                -0.0000
    Dipole Moment (Debye)
         X      -0.3640      Y      -0.0006      Z       0.8802
       Tot       0.9525
    Quadrupole Moments (Debye-Ang)
        XX     -37.8198     XY      -0.0024     YY     -33.1323
        XZ       3.3639     YZ      -0.0012     ZZ     -32.7482

 Final energy is   -517.231637808536
 **  OPTIMIZATION CONVERGED  **
 Total job time:  25.39s(wall), 186.74s(cpu)
        *  Thank you very much for using Q-Chem.  Have a nice day.  *
