 Q-Chem 5.1, Q-Chem, Inc., Pleasanton, CA (2018)
 Q-Chem 5.1.1 for Intel X86 EM64T Linux

User input:
--------------------------------------------------------------

$comment
potential surface scanner
$end

$rem
JOBTYPE  PES_SCAN
UNRESTRICTED TRUE
SYM_IGNORE  TRUE
GEOM_OPT_MAX_CYCLES 400
SCF_MAX_CYCLES 400
METHOD   B3LYP
BASIS   6-31G**
PDB_PRINT 2
SCF_CONVERGENCE 6
THRESH 14
SCF_PRINT 1
$end
$molecule
0 1
S 1.727671 -0.000245 0.077695
C -0.123085 0.000035 -0.352073
C -0.807293 -1.274149 0.138195
C -0.806910 1.274407 0.138244
H -0.091738 0.000052 -1.447057
H -1.851847 -1.293815 -0.196708
H -0.305839 -2.167559 -0.240847
H -0.808976 -1.323370 1.232715
H -1.851452 1.294414 -0.196676
H -0.305175 2.167682 -0.240743
H -0.808597 1.323572 1.232767
H 1.563141 -0.000224 1.416889
$end
$scan
stre 1 2 2.000000 2.001000 0.100000
$end
--------------------------------------------------------------

    9    -517.3412778199      2.28e-07  Convergence criterion met
 Total energy in the final basis set =     -517.3412778199
    9    -517.3371357012      2.40e-07  Convergence criterion met
 Total energy in the final basis set =     -517.3371357012
    9    -517.3372805219      2.42e-07  Convergence criterion met
 Total energy in the final basis set =     -517.3372805219
    9    -517.3373418344      2.45e-07  Convergence criterion met
 Total energy in the final basis set =     -517.3373418344
    9    -517.3373446744      2.45e-07  Convergence criterion met
 Total energy in the final basis set =     -517.3373446744

             Standard Nuclear Orientation (Angstroms)
    I     Atom           X                Y                Z
 ----------------------------------------------------------------
    1      S       1.7883198203    -0.0002532209     0.0946665421
    2      C      -0.1581802908     0.0000401110    -0.3648299039
    3      C      -0.8153526150    -1.2771643044     0.1364459022
    4      C      -0.8149684956     1.2774244425     0.1364955835
    5      H      -0.1000215909     0.0000532761    -1.4568629254
    6      H      -1.8611474288    -1.3107517246    -0.1962751941
    7      H      -0.3053325827    -2.1659692121    -0.2409641095
    8      H      -0.8153775212    -1.3205859732     1.2307933595
    9      H      -1.8607476526     1.3113520416    -0.1962402892
   10      H      -0.3046696522     2.1660923385    -0.2408617913
   11      H      -0.8149960863     1.3207910999     1.2308458166
   12      H       1.5923740958    -0.0002288745     1.4291880095
 ----------------------------------------------------------------

    9    -517.3373448925      2.45e-07  Convergence criterion met
 Total energy in the final basis set =     -517.3373448925

                    Orbital Energies (a.u.)
 --------------------------------------------------------------

 Alpha MOs
 -- Occupied --
-88.866 -10.236 -10.187 -10.187  -7.927  -5.892  -5.889  -5.882
 -0.807  -0.697  -0.696  -0.580  -0.463  -0.443  -0.417  -0.395
 -0.384  -0.357  -0.348  -0.301  -0.232

 Beta MOs
 -- Occupied --
-88.866 -10.236 -10.187 -10.187  -7.927  -5.892  -5.889  -5.882
 -0.807  -0.697  -0.696  -0.580  -0.463  -0.443  -0.417  -0.395
 -0.384  -0.357  -0.348  -0.301  -0.232

          Ground-State Mulliken Net Atomic Charges

     Atom                 Charge (a.u.)    Spin (a.u.)
  --------------------------------------------------------
      1 S                    -0.102833      -0.000000
      2 C                    -0.188954       0.000000
      3 C                    -0.296704      -0.000000
      4 C                    -0.296705      -0.000000
      5 H                     0.136826      -0.000000
      6 H                     0.108564       0.000000
      7 H                     0.127984       0.000000
      8 H                     0.109965      -0.000000
      9 H                     0.108564       0.000000
     10 H                     0.127984      -0.000000
     11 H                     0.109965       0.000000
     12 H                     0.055345       0.000000
  --------------------------------------------------------
  Sum of atomic charges =     0.000000

                    Cartesian Multipole Moments
 -----------------------------------------------------------------
    Charge (ESU x 10^10)
                 0.0000
    Dipole Moment (Debye)
         X      -2.0952      Y       0.0003      Z       0.4072
       Tot       2.1345
    Quadrupole Moments (Debye-Ang)
        XX     -37.7922     XY       0.0004     YY     -35.1366
        XZ       1.5438     YZ      -0.0002     ZZ     -31.6220

 Final energy is   -517.337344892456
 **  OPTIMIZATION CONVERGED  **
 Total job time:  19.86s(wall), 212.85s(cpu)
        *  Thank you very much for using Q-Chem.  Have a nice day.  *
