 Q-Chem 5.1, Q-Chem, Inc., Pleasanton, CA (2018)
 Q-Chem 5.1.1 for Intel X86 EM64T Linux

User input:
--------------------------------------------------------------

$comment
potential surface scanner
$end

$rem
JOBTYPE  PES_SCAN
UNRESTRICTED TRUE
SYM_IGNORE  TRUE
GEOM_OPT_MAX_CYCLES 400
SCF_MAX_CYCLES 400
METHOD   B3LYP
BASIS   6-31G**
PDB_PRINT 2
SCF_CONVERGENCE 6
THRESH 14
SCF_PRINT 1
$end
$molecule
0 3
S 1.427155 -0.105012 1.265349
C -0.020708 0.031613 -0.249586
C -0.635581 -1.310851 0.226676
C -0.729608 1.316916 0.230666
H -0.387249 0.002293 -1.334069
H -1.641103 -1.404539 -0.199799
H -0.043540 -2.162888 -0.116223
H -0.737443 -1.369674 1.315563
H -1.699857 1.426736 -0.267095
H -0.132952 2.201631 -0.009639
H -0.888004 1.305621 1.310747
H 1.018788 0.068954 -0.610179
$end
$scan
stre 1 2 2.000000 2.001000 0.100000
$end
--------------------------------------------------------------

   13    -517.1800452535      7.88e-07  Convergence criterion met
 Total energy in the final basis set =     -517.1800452535
   13    -517.1610592533      6.88e-07  Convergence criterion met
 Total energy in the final basis set =     -517.1610592533
   13    -517.1611329940      7.64e-07  Convergence criterion met
 Total energy in the final basis set =     -517.1611329940
   13    -517.1622613717      9.93e-07  Convergence criterion met
 Total energy in the final basis set =     -517.1622613717
   14    -517.1623681266      3.85e-07  Convergence criterion met
 Total energy in the final basis set =     -517.1623681266
   14    -517.1623808251      4.00e-07  Convergence criterion met
 Total energy in the final basis set =     -517.1623808251
   14    -517.1623834463      4.06e-07  Convergence criterion met
 Total energy in the final basis set =     -517.1623834463
   14    -517.1623845084      4.09e-07  Convergence criterion met
 Total energy in the final basis set =     -517.1623845084
   14    -517.1623858096      4.11e-07  Convergence criterion met
 Total energy in the final basis set =     -517.1623858096
   14    -517.1623881087      4.14e-07  Convergence criterion met
 Total energy in the final basis set =     -517.1623881087
   14    -517.1623913468      4.16e-07  Convergence criterion met
 Total energy in the final basis set =     -517.1623913468
   14    -517.1623944793      4.15e-07  Convergence criterion met
 Total energy in the final basis set =     -517.1623944793
   14    -517.1623960726      4.11e-07  Convergence criterion met
 Total energy in the final basis set =     -517.1623960726

             Standard Nuclear Orientation (Angstroms)
    I     Atom           X                Y                Z
 ----------------------------------------------------------------
    1      S       1.3744761197    -0.0869488089     1.2725046824
    2      C       0.0192397663     0.0327587071    -0.1934441842
    3      C      -0.6272644025    -1.3230709951     0.2342891149
    4      C      -0.7227720683     1.3259501143     0.2319228333
    5      H      -0.4152874146    -0.0092991443    -1.2986316524
    6      H      -1.6367518189    -1.3833779996    -0.1869972243
    7      H      -0.0454266879    -2.1668408919    -0.1427276531
    8      H      -0.7177874791    -1.4182092146     1.3225599895
    9      H      -1.6731038572     1.4290439242    -0.3035751577
   10      H      -0.1142812456     2.2058878566     0.0051518195
   11      H      -0.9180731738     1.3245659277     1.3064202641
   12      H       1.0069302618     0.0703405247    -0.6850618321
 ----------------------------------------------------------------

   14    -517.1623964283      4.09e-07  Convergence criterion met
 Total energy in the final basis set =     -517.1623964283

                    Orbital Energies (a.u.)
 --------------------------------------------------------------

 Alpha MOs
 -- Occupied --
-88.869 -10.232 -10.203 -10.190  -7.932  -5.901  -5.898  -5.884
 -0.833  -0.705  -0.689  -0.614  -0.472  -0.468  -0.426  -0.408
 -0.385  -0.368  -0.351  -0.273  -0.240  -0.180

 Beta MOs
 -- Occupied --
-88.859 -10.232 -10.202 -10.190  -7.923  -5.882  -5.881  -5.878
 -0.820  -0.702  -0.647  -0.588  -0.466  -0.444  -0.421  -0.404
 -0.377  -0.364  -0.328  -0.217

          Ground-State Mulliken Net Atomic Charges

     Atom                 Charge (a.u.)    Spin (a.u.)
  --------------------------------------------------------
      1 S                    -0.093211       1.618805
      2 C                    -0.349590      -0.055836
      3 C                    -0.318436       0.046804
      4 C                    -0.275422       0.014798
      5 H                     0.082559       0.270423
      6 H                     0.124671       0.028406
      7 H                     0.137578      -0.002632
      8 H                     0.137444      -0.000844
      9 H                     0.104756      -0.001909
     10 H                     0.117759      -0.000512
     11 H                     0.134252       0.000272
     12 H                     0.197641       0.082225
  --------------------------------------------------------
  Sum of atomic charges =     0.000000

                    Cartesian Multipole Moments
 -----------------------------------------------------------------
    Charge (ESU x 10^10)
                -0.0000
    Dipole Moment (Debye)
         X      -1.6463      Y       0.0115      Z      -1.5873
       Tot       2.2869
    Quadrupole Moments (Debye-Ang)
        XX     -37.2434     XY       1.4597     YY     -33.1013
        XZ      -2.9324     YZ      -0.2827     ZZ     -36.9715

 Final energy is   -517.162396428308
 **  OPTIMIZATION CONVERGED  **
 Total job time:  61.04s(wall), 650.83s(cpu)
        *  Thank you very much for using Q-Chem.  Have a nice day.  *
