 Q-Chem 5.1, Q-Chem, Inc., Pleasanton, CA (2018)
 Q-Chem 5.1.1 for Intel X86 EM64T Linux

User input:
--------------------------------------------------------------

$comment
potential surface scanner
$end

$rem
JOBTYPE  PES_SCAN
UNRESTRICTED TRUE
SYM_IGNORE  TRUE
GEOM_OPT_MAX_CYCLES 400
SCF_MAX_CYCLES 400
METHOD   B3LYP
BASIS   6-31G**
PDB_PRINT 2
SCF_CONVERGENCE 6
THRESH 14
SCF_PRINT 1
$end
$molecule
0 1
S 1.657900 -0.000200 0.107500
C -0.098900 0.000100 -0.384900
C -0.779700 -1.258900 0.138700
C -0.779300 1.259100 0.138700
H -0.135800 0.000100 -1.479400
H -1.829100 -1.282800 -0.175600
H -0.301500 -2.163300 -0.253500
H -0.763000 -1.307700 1.233500
H -1.828700 1.283400 -0.175500
H -0.300800 2.163400 -0.253400
H -0.762600 1.307800 1.233400
H 1.451400 -0.000200 1.432900
$end
$scan
stre 1 2 1.300000 1.301000 0.100000
$end
--------------------------------------------------------------

    9    -517.3397527088      2.29e-07  Convergence criterion met
 Total energy in the final basis set =     -517.3397527088
    9    -517.3268240487      2.00e-07  Convergence criterion met
 Total energy in the final basis set =     -517.3268240487
    8    -517.2850197798      8.54e-07  Convergence criterion met
 Total energy in the final basis set =     -517.2850197798
    8    -517.2071409035      7.12e-07  Convergence criterion met
 Total energy in the final basis set =     -517.2071409035
    8    -517.1040281880      7.79e-07  Convergence criterion met
 Total energy in the final basis set =     -517.1040281880
    8    -517.0901010723      8.19e-07  Convergence criterion met
 Total energy in the final basis set =     -517.0901010723
    8    -517.0895561340      8.31e-07  Convergence criterion met
 Total energy in the final basis set =     -517.0895561340
    8    -517.0896844957      8.34e-07  Convergence criterion met
    8    -517.0897084040      8.28e-07  Convergence criterion met
 Total energy in the final basis set =     -517.0897084040
    8    -517.0897102617      8.28e-07  Convergence criterion met
 Total energy in the final basis set =     -517.0897102617
    8    -517.0897116484      8.28e-07  Convergence criterion met
 Total energy in the final basis set =     -517.0897116484
    8    -517.0897138873      8.29e-07  Convergence criterion met
 Total energy in the final basis set =     -517.0897138873
    8    -517.0897160456      8.30e-07  Convergence criterion met
 Total energy in the final basis set =     -517.0897160456
    8    -517.0897174867      8.30e-07  Convergence criterion met
 Total energy in the final basis set =     -517.0897174867

             Standard Nuclear Orientation (Angstroms)
    I     Atom           X                Y                Z
 ----------------------------------------------------------------
    1      S       1.3822489113    -0.0001888685    -0.0342597085
    2      C       0.1032943718    -0.0000005591    -0.2672328032
    3      C      -0.7801083445    -1.2611469286     0.1492918121
    4      C      -0.7797343998     1.2613980977     0.1493363373
    5      H      -0.0385357160     0.0000445088    -1.3648438453
    6      H      -1.8106144191    -1.1973825805    -0.2113145830
    7      H      -0.3158888397    -2.1752090718    -0.2339923935
    8      H      -0.7971493904    -1.3231098171     1.2443969356
    9      H      -1.8102471670     1.1979796820    -0.2113082108
   10      H      -0.3152136486     2.1753360860    -0.2338788794
   11      H      -0.7967880811     1.3232986591     1.2444443446
   12      H       1.4886367232    -0.0002192081     1.3317609940
 ----------------------------------------------------------------

    8    -517.0897179810      8.29e-07  Convergence criterion met
 Total energy in the final basis set =     -517.0897179810

                    Orbital Energies (a.u.)
 --------------------------------------------------------------

 Alpha MOs
 -- Occupied --
-88.842 -10.202 -10.180 -10.180  -7.929  -5.894  -5.887  -5.881
 -0.926  -0.717  -0.687  -0.588  -0.477  -0.457  -0.447  -0.403
 -0.388  -0.373  -0.355  -0.288  -0.204

 Beta MOs
 -- Occupied --
-88.842 -10.202 -10.180 -10.180  -7.929  -5.894  -5.887  -5.881
 -0.926  -0.717  -0.687  -0.588  -0.477  -0.457  -0.447  -0.403
 -0.388  -0.373  -0.355  -0.288  -0.204

          Ground-State Mulliken Net Atomic Charges

     Atom                 Charge (a.u.)    Spin (a.u.)
  --------------------------------------------------------
      1 S                     0.011667       0.000000
      2 C                    -0.170313      -0.000000
      3 C                    -0.323784       0.000000
      4 C                    -0.323786       0.000000
      5 H                     0.157575       0.000000
      6 H                     0.101602      -0.000000
      7 H                     0.110763      -0.000000
      8 H                     0.103868      -0.000000
      9 H                     0.101602      -0.000000
     10 H                     0.110764      -0.000000
     11 H                     0.103868      -0.000000
     12 H                     0.016173       0.000000
  --------------------------------------------------------
  Sum of atomic charges =     0.000000

                    Cartesian Multipole Moments
 -----------------------------------------------------------------
    Charge (ESU x 10^10)
                 0.0000
    Dipole Moment (Debye)
         X      -1.4465      Y       0.0002      Z       0.1276
       Tot       1.4521
    Quadrupole Moments (Debye-Ang)
        XX     -36.9304     XY       0.0002     YY     -35.1118
        XZ       1.5574     YZ      -0.0003     ZZ     -31.6137

 Final energy is   -517.089717981027
 **  OPTIMIZATION CONVERGED  **
 Total job time:  52.39s(wall), 562.50s(cpu)
        *  Thank you very much for using Q-Chem.  Have a nice day.  *
