 Q-Chem 5.1, Q-Chem, Inc., Pleasanton, CA (2018)
 Q-Chem 5.1.1 for Intel X86 EM64T Linux

User input:
--------------------------------------------------------------

$comment
potential surface scanner
$end

$rem
JOBTYPE  PES_SCAN
UNRESTRICTED TRUE
SYM_IGNORE  TRUE
GEOM_OPT_MAX_CYCLES 400
SCF_MAX_CYCLES 400
METHOD   B3LYP
BASIS   6-31G**
PDB_PRINT 2
SCF_CONVERGENCE 6
THRESH 14
SCF_PRINT 1
$end
$molecule
0 3
S 4.643194 -0.000570 0.090673
C -0.752609 0.000218 -0.122179
C -1.460337 -1.299507 0.067909
C -1.460165 1.300041 0.067870
H 0.201346 0.000145 -0.642984
H -2.160222 -1.517907 -0.758798
H -0.762716 -2.141536 0.121221
H -2.065213 -1.300704 0.984882
H -2.160124 1.518441 -0.758774
H -0.762442 2.141994 0.121023
H -2.064937 1.301392 0.984913
H 4.334122 -0.001204 1.406647
$end
$scan
stre 1 2 5.300000 5.301000 0.100000
$end
--------------------------------------------------------------

    9    -517.2316246042      8.63e-07  Convergence criterion met
 Total energy in the final basis set =     -517.2316246042
    9    -517.2304933628      8.33e-07  Convergence criterion met
 Total energy in the final basis set =     -517.2304933628
    9    -517.2313847566      8.48e-07  Convergence criterion met
 Total energy in the final basis set =     -517.2313847566
    9    -517.2316285259      8.62e-07  Convergence criterion met
 Total energy in the final basis set =     -517.2316285259
    9    -517.2316321090      8.64e-07  Convergence criterion met
 Total energy in the final basis set =     -517.2316321090

             Standard Nuclear Orientation (Angstroms)
    I     Atom           X                Y                Z
 ----------------------------------------------------------------
    1      S       4.5546940032    -0.0005449693     0.1062796033
    2      C      -0.7393223822     0.0002254252    -0.1454939576
    3      C      -1.4404757589    -1.2994225615     0.0683651494
    4      C      -1.4403351998     1.2999573091     0.0683173515
    5      H       0.1983956002     0.0001649192    -0.6958382881
    6      H      -2.1687319193    -1.5171781516    -0.7336190456
    7      H      -0.7420023341    -2.1419345284     0.0973756431
    8      H      -2.0133445125    -1.3004151382     1.0057023755
    9      H      -2.1686545521     1.5177035932    -0.7336120718
   10      H      -0.7417823564     2.1424074670     0.0971810964
   11      H      -2.0131118113     1.3010870216     1.0057115578
   12      H       4.2445682232    -0.0012473863     1.4220335862
 ----------------------------------------------------------------

    9    -517.2316325408      8.64e-07  Convergence criterion met
 Total energy in the final basis set =     -517.2316325408

                    Orbital Energies (a.u.)
 --------------------------------------------------------------

 Alpha MOs
 -- Occupied --
-88.911 -10.183 -10.175 -10.175  -7.973  -5.944  -5.934  -5.925
 -0.774  -0.739  -0.685  -0.565  -0.445  -0.423  -0.413  -0.403
 -0.380  -0.349  -0.342  -0.321  -0.273  -0.177

 Beta MOs
 -- Occupied --
-88.906 -10.176 -10.176 -10.169  -7.967  -5.931  -5.926  -5.922
 -0.757  -0.699  -0.683  -0.543  -0.440  -0.405  -0.399  -0.397
 -0.374  -0.345  -0.337  -0.259

          Ground-State Mulliken Net Atomic Charges

     Atom                 Charge (a.u.)    Spin (a.u.)
  --------------------------------------------------------
      1 S                    -0.074479       1.027445
      2 C                    -0.074860       1.018908
      3 C                    -0.333665      -0.079887
      4 C                    -0.333666      -0.079887
      5 H                     0.094358      -0.046223
      6 H                     0.108991       0.063398
      7 H                     0.108736       0.007486
      8 H                     0.105953       0.022619
      9 H                     0.108991       0.063398
     10 H                     0.108738       0.007483
     11 H                     0.105954       0.022625
     12 H                     0.074949      -0.027365
  --------------------------------------------------------
  Sum of atomic charges =    -0.000000

                    Cartesian Multipole Moments
 -----------------------------------------------------------------
    Charge (ESU x 10^10)
                -0.0000
    Dipole Moment (Debye)
         X      -0.3607      Y      -0.0005      Z       0.8759
       Tot       0.9473
    Quadrupole Moments (Debye-Ang)
        XX     -37.8114     XY      -0.0021     YY     -33.1295
        XZ       3.4888     YZ      -0.0011     ZZ     -32.8078

 Final energy is   -517.231632540849
 **  OPTIMIZATION CONVERGED  **
 Total job time:  15.70s(wall), 180.82s(cpu)
        *  Thank you very much for using Q-Chem.  Have a nice day.  *
