 Q-Chem 5.1, Q-Chem, Inc., Pleasanton, CA (2018)
 Q-Chem 5.1.1 for Intel X86 EM64T Linux

User input:
--------------------------------------------------------------

$comment
potential surface scanner
$end

$rem
JOBTYPE  PES_SCAN
UNRESTRICTED TRUE
SYM_IGNORE  TRUE
GEOM_OPT_MAX_CYCLES 400
SCF_MAX_CYCLES 400
METHOD   B3LYP
BASIS   6-31G**
PDB_PRINT 2
SCF_CONVERGENCE 6
THRESH 14
SCF_PRINT 1
$end
$molecule
0 3
S 3.303287 0.008068 1.081227
C -0.515882 -0.002008 -0.410030
C -1.046914 -1.300056 0.102479
C -1.039693 1.298305 0.104208
H -0.005894 -0.002794 -1.371650
H -2.056267 -1.512134 -0.292797
H -0.412502 -2.145708 -0.181291
H -1.142007 -1.293744 1.195720
H -2.048478 1.515858 -0.289557
H -0.401322 2.140941 -0.179622
H -1.133504 1.291571 1.197574
H 2.029072 0.002500 0.606145
$end
$scan
stre 1 2 4.000000 4.001000 0.100000
$end
--------------------------------------------------------------

    9    -517.2344846274      9.72e-07  Convergence criterion met
 Total energy in the final basis set =     -517.2344846274
    9    -517.2329191760      8.66e-07  Convergence criterion met
 Total energy in the final basis set =     -517.2329191760
    9    -517.2343632557      9.24e-07  Convergence criterion met
 Total energy in the final basis set =     -517.2343632557
    9    -517.2347853290      9.76e-07  Convergence criterion met
 Total energy in the final basis set =     -517.2347853290
    9    -517.2347942673      9.84e-07  Convergence criterion met
 Total energy in the final basis set =     -517.2347942673

             Standard Nuclear Orientation (Angstroms)
    I     Atom           X                Y                Z
 ----------------------------------------------------------------
    1      S       3.2182603716     0.0071885891     1.0696120426
    2      C      -0.4990613647    -0.0017939217    -0.4073573102
    3      C      -1.0288980834    -1.2998922799     0.1065999426
    4      C      -1.0221887802     1.2984258411     0.1081477878
    5      H       0.0020793153    -0.0025136735    -1.3737288332
    6      H      -2.0389156086    -1.5114494767    -0.2871400074
    7      H      -0.3950907058    -2.1455166498    -0.1784744794
    8      H      -1.1219962031    -1.2933663954     1.1999101064
    9      H      -2.0316160727     1.5151318479    -0.2843201383
   10      H      -0.3846088904     2.1412106231    -0.1768902273
   11      H      -1.1142439351     1.2914882860     1.2015580558
   12      H       1.9461759571     0.0018862097     0.5844890604
 ----------------------------------------------------------------

    9    -517.2347946625      9.85e-07  Convergence criterion met
 Total energy in the final basis set =     -517.2347946625

                    Orbital Energies (a.u.)
 --------------------------------------------------------------

 Alpha MOs
 -- Occupied --
-88.900 -10.201 -10.186 -10.186  -7.962  -5.933  -5.923  -5.914
 -0.788  -0.727  -0.697  -0.578  -0.458  -0.436  -0.414  -0.400
 -0.392  -0.361  -0.355  -0.312  -0.264  -0.194

 Beta MOs
 -- Occupied --
-88.894 -10.188 -10.187 -10.187  -7.956  -5.919  -5.915  -5.911
 -0.771  -0.694  -0.686  -0.557  -0.453  -0.419  -0.408  -0.386
 -0.385  -0.357  -0.350  -0.249

          Ground-State Mulliken Net Atomic Charges

     Atom                 Charge (a.u.)    Spin (a.u.)
  --------------------------------------------------------
      1 S                    -0.093088       1.046525
      2 C                    -0.086160       0.980901
      3 C                    -0.335376      -0.074865
      4 C                    -0.335439      -0.074870
      5 H                     0.096370      -0.041981
      6 H                     0.115835       0.064366
      7 H                     0.116830       0.008576
      8 H                     0.112539       0.017680
      9 H                     0.115844       0.064381
     10 H                     0.116909       0.008542
     11 H                     0.112516       0.017734
     12 H                     0.063220      -0.016989
  --------------------------------------------------------
  Sum of atomic charges =     0.000000

                    Cartesian Multipole Moments
 -----------------------------------------------------------------
    Charge (ESU x 10^10)
                 0.0000
    Dipole Moment (Debye)
         X      -1.8401      Y      -0.0044      Z      -0.6024
       Tot       1.9361
    Quadrupole Moments (Debye-Ang)
        XX     -40.0323     XY      -0.0193     YY     -35.5847
        XZ      -2.6963     YZ       0.0305     ZZ     -33.9285

 Final energy is   -517.234794662517
 **  OPTIMIZATION CONVERGED  **
 Total job time:  17.93s(wall), 197.55s(cpu)
        *  Thank you very much for using Q-Chem.  Have a nice day.  *
