 Q-Chem 5.1, Q-Chem, Inc., Pleasanton, CA (2018)
 Q-Chem 5.1.1 for Intel X86 EM64T Linux

User input:
--------------------------------------------------------------

$comment
potential surface scanner
$end

$rem
JOBTYPE  PES_SCAN
UNRESTRICTED TRUE
SYM_IGNORE  TRUE
GEOM_OPT_MAX_CYCLES 400
SCF_MAX_CYCLES 400
METHOD   B3LYP
BASIS   6-31G**
PDB_PRINT 2
SCF_CONVERGENCE 6
THRESH 14
SCF_PRINT 1
$end
$molecule
0 1
S 1.657900 -0.000200 0.107500
C -0.098900 0.000100 -0.384900
C -0.779700 -1.258900 0.138700
C -0.779300 1.259100 0.138700
H -0.135800 0.000100 -1.479400
H -1.829100 -1.282800 -0.175600
H -0.301500 -2.163300 -0.253500
H -0.763000 -1.307700 1.233500
H -1.828700 1.283400 -0.175500
H -0.300800 2.163400 -0.253400
H -0.762600 1.307800 1.233400
H 1.451400 -0.000200 1.432900
$end
$scan
stre 1 2 1.800000 1.801000 0.100000
$end
--------------------------------------------------------------

    9    -517.3397527088      2.29e-07  Convergence criterion met
 Total energy in the final basis set =     -517.3397527088
    9    -517.3403823587      2.14e-07  Convergence criterion met
 Total energy in the final basis set =     -517.3403823587
    9    -517.3406858799      2.13e-07  Convergence criterion met
 Total energy in the final basis set =     -517.3406858799
    9    -517.3407001721      2.13e-07  Convergence criterion met
 Total energy in the final basis set =     -517.3407001721
    9    -517.3407013017      2.13e-07  Convergence criterion met
 Total energy in the final basis set =     -517.3407013017

             Standard Nuclear Orientation (Angstroms)
    I     Atom           X                Y                Z
 ----------------------------------------------------------------
    1      S       1.6678062030    -0.0002361420     0.0611823868
    2      C      -0.0872537210     0.0000321810    -0.3385232481
    3      C      -0.7999584983    -1.2708433503     0.1396487013
    4      C      -0.7995792122     1.2711007179     0.1396966919
    5      H      -0.0813335830     0.0000516699    -1.4359672752
    6      H      -1.8433290732    -1.2754600997    -0.1968037736
    7      H      -0.3078788876    -2.1688755333    -0.2417994287
    8      H      -0.8028127447    -1.3260936845     1.2343150689
    9      H      -1.8429427088     1.2760564355    -0.1967765267
   10      H      -0.3072164176     2.1690008026    -0.2416966414
   11      H      -0.8024387166     1.3262958532     1.2343657218
   12      H       1.5368373600    -0.0002288503     1.4047583230
 ----------------------------------------------------------------

    9    -517.3407014938      2.13e-07  Convergence criterion met
 Total energy in the final basis set =     -517.3407014938

                    Orbital Energies (a.u.)
 --------------------------------------------------------------

 Alpha MOs
 -- Occupied --
-88.868 -10.225 -10.184 -10.184  -7.931  -5.896  -5.892  -5.885
 -0.821  -0.706  -0.692  -0.579  -0.462  -0.446  -0.417  -0.391
 -0.390  -0.352  -0.343  -0.315  -0.233

 Beta MOs
 -- Occupied --
-88.868 -10.225 -10.184 -10.184  -7.931  -5.896  -5.892  -5.885
 -0.821  -0.706  -0.692  -0.579  -0.462  -0.446  -0.417  -0.391
 -0.390  -0.352  -0.343  -0.315  -0.233

          Ground-State Mulliken Net Atomic Charges

     Atom                 Charge (a.u.)    Spin (a.u.)
  --------------------------------------------------------
      1 S                    -0.040068       0.000000
      2 C                    -0.218972       0.000000
      3 C                    -0.297353      -0.000000
      4 C                    -0.297354      -0.000000
      5 H                     0.135736       0.000000
      6 H                     0.105392      -0.000000
      7 H                     0.121834       0.000000
      8 H                     0.105242      -0.000000
      9 H                     0.105392      -0.000000
     10 H                     0.121834      -0.000000
     11 H                     0.105241      -0.000000
     12 H                     0.053076      -0.000000
  --------------------------------------------------------
  Sum of atomic charges =     0.000000

                    Cartesian Multipole Moments
 -----------------------------------------------------------------
    Charge (ESU x 10^10)
                 0.0000
    Dipole Moment (Debye)
         X      -1.6868      Y       0.0003      Z       0.4438
       Tot       1.7442
    Quadrupole Moments (Debye-Ang)
        XX     -37.2273     XY       0.0002     YY     -35.2705
        XZ       1.6498     YZ      -0.0003     ZZ     -31.6895

 Final energy is   -517.340701493809
 **  OPTIMIZATION CONVERGED  **
 Total job time:  19.42s(wall), 213.82s(cpu)
        *  Thank you very much for using Q-Chem.  Have a nice day.  *
