 Q-Chem 5.1, Q-Chem, Inc., Pleasanton, CA (2018)
 Q-Chem 5.1.1 for Intel X86 EM64T Linux

User input:
--------------------------------------------------------------

$comment
potential surface scanner
$end

$rem
JOBTYPE  PES_SCAN
UNRESTRICTED TRUE
SYM_IGNORE  TRUE
GEOM_OPT_MAX_CYCLES 400
SCF_MAX_CYCLES 400
METHOD   B3LYP
BASIS   6-31G**
PDB_PRINT 2
SCF_CONVERGENCE 6
THRESH 14
SCF_PRINT 1
$end
$molecule
0 3
S 3.475317 0.010206 1.102566
C -0.548505 -0.002545 -0.413578
C -1.083628 -1.300408 0.094532
C -1.075124 1.297965 0.096704
H -0.019606 -0.003502 -1.364722
H -2.090965 -1.512575 -0.305945
H -0.447883 -2.146313 -0.185686
H -1.184861 -1.294835 1.187411
H -2.081871 1.516514 -0.301840
H -0.434840 2.140378 -0.183656
H -1.174674 1.291882 1.189756
H 2.196537 0.004034 0.646865
$end
$scan
stre 1 2 4.200000 4.201000 0.100000
$end
--------------------------------------------------------------

    9    -517.2338874630      9.47e-07  Convergence criterion met
 Total energy in the final basis set =     -517.2338874630
    9    -517.2322834338      8.44e-07  Convergence criterion met
 Total energy in the final basis set =     -517.2322834338
    9    -517.2337573918      9.00e-07  Convergence criterion met
 Total energy in the final basis set =     -517.2337573918
    9    -517.2341723480      9.50e-07  Convergence criterion met
 Total energy in the final basis set =     -517.2341723480
    9    -517.2341801774      9.58e-07  Convergence criterion met
 Total energy in the final basis set =     -517.2341801774

             Standard Nuclear Orientation (Angstroms)
    I     Atom           X                Y                Z
 ----------------------------------------------------------------
    1      S       3.3889477427     0.0090636666     1.0921954011
    2      C      -0.5323899126    -0.0022556160    -0.4121260097
    3      C      -1.0651489445    -1.3002299253     0.0984622506
    4      C      -1.0573345308     1.2981572318     0.1003979144
    5      H      -0.0131510169    -0.0031187633    -1.3686741061
    6      H      -2.0735934131    -1.5125602895    -0.2990731642
    7      H      -0.4300532106    -2.1459615775    -0.1836507193
    8      H      -1.1629685930    -1.2942043333     1.1915581156
    9      H      -2.0652139881     1.5163661162    -0.2954049029
   10      H      -0.4180325208     2.1406576680    -0.1818405285
   11      H      -1.1536591316     1.2916764548     1.1936430912
   12      H       2.1124945193     0.0032103676     0.6269196578
 ----------------------------------------------------------------

    9    -517.2341803503      9.59e-07  Convergence criterion met
 Total energy in the final basis set =     -517.2341803503

                    Orbital Energies (a.u.)
 --------------------------------------------------------------

 Alpha MOs
 -- Occupied --
-88.903 -10.199 -10.185 -10.185  -7.964  -5.935  -5.925  -5.916
 -0.786  -0.729  -0.695  -0.576  -0.457  -0.434  -0.413  -0.403
 -0.390  -0.360  -0.353  -0.314  -0.266  -0.192

 Beta MOs
 -- Occupied --
-88.897 -10.186 -10.185 -10.185  -7.959  -5.922  -5.917  -5.913
 -0.769  -0.693  -0.689  -0.556  -0.451  -0.417  -0.407  -0.389
 -0.384  -0.356  -0.348  -0.251

          Ground-State Mulliken Net Atomic Charges

     Atom                 Charge (a.u.)    Spin (a.u.)
  --------------------------------------------------------
      1 S                    -0.090891       1.039277
      2 C                    -0.084111       0.991443
      3 C                    -0.335751      -0.076018
      4 C                    -0.335822      -0.076029
      5 H                     0.093773      -0.042993
      6 H                     0.114998       0.064562
      7 H                     0.115189       0.008417
      8 H                     0.111513       0.018399
      9 H                     0.115006       0.064589
     10 H                     0.115244       0.008367
     11 H                     0.111502       0.018476
     12 H                     0.069349      -0.018489
  --------------------------------------------------------
  Sum of atomic charges =    -0.000000

                    Cartesian Multipole Moments
 -----------------------------------------------------------------
    Charge (ESU x 10^10)
                -0.0000
    Dipole Moment (Debye)
         X      -1.7215      Y      -0.0048      Z      -0.5460
       Tot       1.8060
    Quadrupole Moments (Debye-Ang)
        XX     -40.1630     XY      -0.0205     YY     -35.6493
        XZ      -2.6686     YZ       0.0290     ZZ     -33.9242

 Final energy is   -517.234180350277
 **  OPTIMIZATION CONVERGED  **
 Total job time:  16.72s(wall), 192.06s(cpu)
        *  Thank you very much for using Q-Chem.  Have a nice day.  *
