 Q-Chem 5.1, Q-Chem, Inc., Pleasanton, CA (2018)
 Q-Chem 5.1.1 for Intel X86 EM64T Linux

User input:
--------------------------------------------------------------

$comment
potential surface scanner
$end

$rem
JOBTYPE  PES_SCAN
UNRESTRICTED TRUE
SYM_IGNORE  TRUE
GEOM_OPT_MAX_CYCLES 400
SCF_MAX_CYCLES 400
METHOD   B3LYP
BASIS   6-31G**
PDB_PRINT 2
SCF_CONVERGENCE 6
THRESH 14
SCF_PRINT 1
$end
$molecule
0 1
S 1.657900 -0.000200 0.107500
C -0.098900 0.000100 -0.384900
C -0.779700 -1.258900 0.138700
C -0.779300 1.259100 0.138700
H -0.135800 0.000100 -1.479400
H -1.829100 -1.282800 -0.175600
H -0.301500 -2.163300 -0.253500
H -0.763000 -1.307700 1.233500
H -1.828700 1.283400 -0.175500
H -0.300800 2.163400 -0.253400
H -0.762600 1.307800 1.233400
H 1.451400 -0.000200 1.432900
$end
$scan
stre 1 2 1.700000 1.701000 0.100000
$end
--------------------------------------------------------------

    9    -517.3397527088      2.29e-07  Convergence criterion met
 Total energy in the final basis set =     -517.3397527088
    9    -517.3319322722      2.03e-07  Convergence criterion met
 Total energy in the final basis set =     -517.3319322722
    9    -517.3326077874      2.01e-07  Convergence criterion met
 Total energy in the final basis set =     -517.3326077874
    8    -517.3327162648      9.98e-07  Convergence criterion met
 Total energy in the final basis set =     -517.3327162648
    8    -517.3327242171      9.98e-07  Convergence criterion met
 Total energy in the final basis set =     -517.3327242171

             Standard Nuclear Orientation (Angstroms)
    I     Atom           X                Y                Z
 ----------------------------------------------------------------
    1      S       1.6086753379    -0.0002279581     0.0426353006
    2      C      -0.0511283949     0.0000282583    -0.3248583306
    3      C      -0.7934861013    -1.2673486353     0.1414371313
    4      C      -0.7931092383     1.2676059259     0.1414842085
    5      H      -0.0710282370     0.0000503476    -1.4242329955
    6      H      -1.8354397321    -1.2569774245    -0.1968632166
    7      H      -0.3105842387    -2.1699966099    -0.2418401080
    8      H      -0.7976229160    -1.3270584321     1.2362685184
    9      H      -1.8350599237     1.2575718122    -0.1968393063
   10      H      -0.3099231953     2.1701246951    -0.2417380967
   11      H      -0.7972518383     1.3272606013     1.2363184114
   12      H       1.5158584778    -0.0002325807     1.3906284833
 ----------------------------------------------------------------

    8    -517.3327248350      9.98e-07  Convergence criterion met
 Total energy in the final basis set =     -517.3327248350

                    Orbital Energies (a.u.)
 --------------------------------------------------------------

 Alpha MOs
 -- Occupied --
-88.866 -10.219 -10.182 -10.182  -7.931  -5.896  -5.892  -5.886
 -0.834  -0.709  -0.690  -0.580  -0.464  -0.448  -0.419  -0.393
 -0.390  -0.351  -0.345  -0.317  -0.231

 Beta MOs
 -- Occupied --
-88.866 -10.219 -10.182 -10.182  -7.931  -5.896  -5.892  -5.886
 -0.834  -0.709  -0.690  -0.580  -0.464  -0.448  -0.419  -0.393
 -0.390  -0.351  -0.345  -0.317  -0.231

          Ground-State Mulliken Net Atomic Charges

     Atom                 Charge (a.u.)    Spin (a.u.)
  --------------------------------------------------------
      1 S                    -0.019875      -0.000000
      2 C                    -0.222391      -0.000000
      3 C                    -0.299486       0.000000
      4 C                    -0.299486       0.000000
      5 H                     0.136882       0.000000
      6 H                     0.104211      -0.000000
      7 H                     0.119371      -0.000000
      8 H                     0.103756      -0.000000
      9 H                     0.104212      -0.000000
     10 H                     0.119371      -0.000000
     11 H                     0.103756       0.000000
     12 H                     0.049679       0.000000
  --------------------------------------------------------
  Sum of atomic charges =     0.000000

                    Cartesian Multipole Moments
 -----------------------------------------------------------------
    Charge (ESU x 10^10)
                 0.0000
    Dipole Moment (Debye)
         X      -1.5648      Y       0.0002      Z       0.4362
       Tot       1.6245
    Quadrupole Moments (Debye-Ang)
        XX     -37.0581     XY       0.0002     YY     -35.2871
        XZ       1.6802     YZ      -0.0003     ZZ     -31.7102

 Final energy is   -517.332724835033
 **  OPTIMIZATION CONVERGED  **
 Total job time:  18.53s(wall), 204.31s(cpu)
        *  Thank you very much for using Q-Chem.  Have a nice day.  *
