 Q-Chem 5.1, Q-Chem, Inc., Pleasanton, CA (2018)
 Q-Chem 5.1.1 for Intel X86 EM64T Linux

User input:
--------------------------------------------------------------

$comment
potential surface scanner
$end

$rem
JOBTYPE  PES_SCAN
UNRESTRICTED TRUE
SYM_IGNORE  TRUE
GEOM_OPT_MAX_CYCLES 400
SCF_MAX_CYCLES 400
METHOD   B3LYP
BASIS   6-31G**
PDB_PRINT 2
SCF_CONVERGENCE 6
THRESH 14
SCF_PRINT 1
$end
$molecule
0 3
S 3.562240 0.011451 1.112491
C -0.564323 -0.002863 -0.414358
C -1.102337 -1.300639 0.090649
C -1.093076 1.297792 0.093079
H -0.025413 -0.003935 -1.359780
H -2.108428 -1.512240 -0.313280
H -0.465990 -2.146747 -0.187667
H -1.207476 -1.295890 1.183259
H -2.098529 1.516360 -0.308741
H -0.451785 2.140108 -0.185349
H -1.196366 1.292458 1.185885
H 2.281379 0.004946 0.666218
$end
$scan
stre 1 2 4.300000 4.301000 0.100000
$end
--------------------------------------------------------------

    9    -517.2336087624      9.36e-07  Convergence criterion met
 Total energy in the final basis set =     -517.2336087624
    9    -517.2319799384      8.34e-07  Convergence criterion met
 Total energy in the final basis set =     -517.2319799384
    9    -517.2334670135      8.90e-07  Convergence criterion met
 Total energy in the final basis set =     -517.2334670135
    9    -517.2338798206      9.39e-07  Convergence criterion met
 Total energy in the final basis set =     -517.2338798206
    9    -517.2338873506      9.46e-07  Convergence criterion met
 Total energy in the final basis set =     -517.2338873506

             Standard Nuclear Orientation (Angstroms)
    I     Atom           X                Y                Z
 ----------------------------------------------------------------
    1      S       3.4753172582     0.0102055168     1.1025658707
    2      C      -0.5485049183    -0.0025447124    -0.4135781076
    3      C      -1.0836283963    -1.3004081631     0.0945318101
    4      C      -1.0751240583     1.2979652751     0.0967039204
    5      H      -0.0196064861    -0.0035020173    -1.3647217270
    6      H      -2.0909649307    -1.5125747425    -0.3059450261
    7      H      -0.4478830445    -2.1463126672    -0.1856862712
    8      H      -1.1848612373    -1.2948353975     1.1874109749
    9      H      -2.0818710524     1.5165142315    -0.3018401962
   10      H      -0.4348402158     2.1403776784    -0.1836558681
   11      H      -1.1746738471     1.2918821325     1.1897560111
   12      H       2.1965369286     0.0040338657     0.6468646089
 ----------------------------------------------------------------

    9    -517.2338874626      9.47e-07  Convergence criterion met
 Total energy in the final basis set =     -517.2338874626

                    Orbital Energies (a.u.)
 --------------------------------------------------------------

 Alpha MOs
 -- Occupied --
-88.904 -10.198 -10.184 -10.184  -7.965  -5.936  -5.926  -5.917
 -0.786  -0.731  -0.695  -0.576  -0.456  -0.433  -0.412  -0.404
 -0.390  -0.359  -0.353  -0.314  -0.267  -0.191

 Beta MOs
 -- Occupied --
-88.898 -10.185 -10.185 -10.185  -7.960  -5.923  -5.918  -5.914
 -0.769  -0.692  -0.690  -0.555  -0.451  -0.416  -0.407  -0.390
 -0.383  -0.355  -0.348  -0.252

          Ground-State Mulliken Net Atomic Charges

     Atom                 Charge (a.u.)    Spin (a.u.)
  --------------------------------------------------------
      1 S                    -0.089816       1.036773
      2 C                    -0.083599       0.995699
      3 C                    -0.335682      -0.076472
      4 C                    -0.335758      -0.076484
      5 H                     0.092749      -0.043383
      6 H                     0.114631       0.064559
      7 H                     0.114453       0.008325
      8 H                     0.111060       0.018755
      9 H                     0.114639       0.064590
     10 H                     0.114497       0.008268
     11 H                     0.111054       0.018842
     12 H                     0.071771      -0.019473
  --------------------------------------------------------
  Sum of atomic charges =    -0.000000

                    Cartesian Multipole Moments
 -----------------------------------------------------------------
    Charge (ESU x 10^10)
                -0.0000
    Dipole Moment (Debye)
         X      -1.6688      Y      -0.0050      Z      -0.5211
       Tot       1.7483
    Quadrupole Moments (Debye-Ang)
        XX     -40.2423     XY      -0.0212     YY     -35.6783
        XZ      -2.6594     YZ       0.0280     ZZ     -33.9241

 Final energy is   -517.233887462568
 **  OPTIMIZATION CONVERGED  **
 Total job time:  17.04s(wall), 195.01s(cpu)
        *  Thank you very much for using Q-Chem.  Have a nice day.  *
