 Q-Chem 5.1, Q-Chem, Inc., Pleasanton, CA (2018)
 Q-Chem 5.1.1 for Intel X86 EM64T Linux

User input:
--------------------------------------------------------------

$comment
potential surface scanner
$end

$rem
JOBTYPE  PES_SCAN
UNRESTRICTED TRUE
SYM_IGNORE  TRUE
GEOM_OPT_MAX_CYCLES 400
SCF_MAX_CYCLES 400
METHOD   B3LYP
BASIS   6-31G**
PDB_PRINT 2
SCF_CONVERGENCE 6
THRESH 14
SCF_PRINT 1
$end
$molecule
0 3
S 3.133748 0.006336 1.057470
C -0.481965 -0.001593 -0.404228
C -1.011038 -1.299728 0.110824
C -1.004815 1.298533 0.112199
H 0.010593 -0.002248 -1.375120
H -2.021488 -1.510582 -0.282019
H -0.377726 -2.145367 -0.175174
H -1.102769 -1.292967 1.204141
H -2.014644 1.514237 -0.279620
H -0.367898 2.141500 -0.173654
H -1.095762 1.291364 1.205593
H 1.863659 0.001315 0.561995
$end
$scan
stre 1 2 3.800000 3.801000 0.100000
$end
--------------------------------------------------------------

    9    -517.2350994095      1.00e-06  Convergence criterion met
 Total energy in the final basis set =     -517.2350994095
    9    -517.2335453113      8.92e-07  Convergence criterion met
 Total energy in the final basis set =     -517.2335453113
    9    -517.2349433321      9.50e-07  Convergence criterion met
 Total energy in the final basis set =     -517.2349433321
   10    -517.2353728530      3.01e-07  Convergence criterion met
 Total energy in the final basis set =     -517.2353728530
   10    -517.2353837115      3.02e-07  Convergence criterion met
 Total energy in the final basis set =     -517.2353837115

             Standard Nuclear Orientation (Angstroms)
    I     Atom           X                Y                Z
 ----------------------------------------------------------------
    1      S       3.0497297795     0.0054266813     1.0450025829
    2      C      -0.4645244352    -0.0013845246    -0.4006706097
    3      C      -0.9932789214    -1.2995477075     0.1151516414
    4      C      -0.9875669573     1.2986362521     0.1163489929
    5      H       0.0194249306    -0.0019703768    -1.3760167659
    6      H      -2.0039684047    -1.5094516605    -0.2773492843
    7      H      -0.3604165440    -2.1452683173    -0.1714734724
    8      H      -1.0841359743    -1.2925434673     1.2084237472
    9      H      -1.9976069246     1.5130686471    -0.2753824792
   10      H      -0.3512812252     2.1418623210    -0.1700288297
   11      H      -1.0779113439     1.2912325091     1.2096761029
   12      H       1.7814310205     0.0007396433     0.5387253739
 ----------------------------------------------------------------

   10    -517.2353843124      3.02e-07  Convergence criterion met
 Total energy in the final basis set =     -517.2353843124

                    Orbital Energies (a.u.)
 --------------------------------------------------------------

 Alpha MOs
 -- Occupied --
-88.897 -10.204 -10.187 -10.187  -7.959  -5.930  -5.920  -5.911
 -0.790  -0.724  -0.698  -0.580  -0.460  -0.439  -0.415  -0.397
 -0.393  -0.362  -0.356  -0.309  -0.262  -0.197

 Beta MOs
 -- Occupied --
-88.891 -10.191 -10.188 -10.188  -7.953  -5.916  -5.912  -5.908
 -0.773  -0.696  -0.683  -0.559  -0.454  -0.421  -0.410  -0.387
 -0.382  -0.358  -0.351  -0.247

          Ground-State Mulliken Net Atomic Charges

     Atom                 Charge (a.u.)    Spin (a.u.)
  --------------------------------------------------------
      1 S                    -0.095271       1.058745
      2 C                    -0.090435       0.967028
      3 C                    -0.333985      -0.073351
      4 C                    -0.334095      -0.073351
      5 H                     0.099860      -0.040728
      6 H                     0.116872       0.063763
      7 H                     0.118691       0.008736
      8 H                     0.113755       0.016910
      9 H                     0.116902       0.063768
     10 H                     0.118824       0.008719
     11 H                     0.113677       0.016937
     12 H                     0.055204      -0.017175
  --------------------------------------------------------
  Sum of atomic charges =    -0.000000

                    Cartesian Multipole Moments
 -----------------------------------------------------------------
    Charge (ESU x 10^10)
                 0.0000
    Dipole Moment (Debye)
         X      -1.9767      Y      -0.0039      Z      -0.6677
       Tot       2.0865
    Quadrupole Moments (Debye-Ang)
        XX     -39.9376     XY      -0.0289     YY     -35.5091
        XZ      -2.7387     YZ       0.0580     ZZ     -33.9406

 Final energy is   -517.235384312413
 **  OPTIMIZATION CONVERGED  **
 Total job time:  17.47s(wall), 201.91s(cpu)
        *  Thank you very much for using Q-Chem.  Have a nice day.  *
