 Q-Chem 5.1, Q-Chem, Inc., Pleasanton, CA (2018)
 Q-Chem 5.1.1 for Intel X86 EM64T Linux

User input:
--------------------------------------------------------------

$comment
potential surface scanner
$end

$rem
JOBTYPE  PES_SCAN
UNRESTRICTED TRUE
SYM_IGNORE  TRUE
GEOM_OPT_MAX_CYCLES 400
SCF_MAX_CYCLES 400
METHOD   B3LYP
BASIS   6-31G**
PDB_PRINT 2
SCF_CONVERGENCE 6
THRESH 14
SCF_PRINT 1
$end
$molecule
0 1
S 1.911349 -0.000274 0.129857
C -0.226865 0.000055 -0.387871
C -0.833581 -1.282375 0.132149
C -0.833200 1.282646 0.132198
H -0.111512 0.000058 -1.472274
H -1.881920 -1.341943 -0.194955
H -0.308161 -2.161718 -0.244518
H -0.829248 -1.315357 1.226061
H -1.881515 1.342542 -0.194916
H -0.307511 2.161848 -0.244425
H -0.828869 1.315576 1.226112
H 1.660931 -0.000257 1.454985
$end
$scan
stre 1 2 2.300000 2.301000 0.100000
$end
--------------------------------------------------------------

    9    -517.3229530032      2.71e-07  Convergence criterion met
 Total energy in the final basis set =     -517.3229530032
    9    -517.3144450952      2.70e-07  Convergence criterion met
 Total energy in the final basis set =     -517.3144450952
    9    -517.3143863327      2.72e-07  Convergence criterion met
 Total energy in the final basis set =     -517.3143863327
    9    -517.3144700766      2.76e-07  Convergence criterion met
 Total energy in the final basis set =     -517.3144700766
    9    -517.3144728473      2.77e-07  Convergence criterion met
 Total energy in the final basis set =     -517.3144728473

             Standard Nuclear Orientation (Angstroms)
    I     Atom           X                Y                Z
 ----------------------------------------------------------------
    1      S       1.9733425713    -0.0002881204     0.1470982136
    2      C      -0.2611506967     0.0000625028    -0.3979148904
    3      C      -0.8440303225    -1.2847421863     0.1297126374
    4      C      -0.8436491625     1.2850185144     0.1297617048
    5      H      -0.1157786390     0.0000607486    -1.4775039115
    6      H      -1.8931816125    -1.3576451993    -0.1952111935
    7      H      -0.3101689764    -2.1586875909    -0.2468774844
    8      H      -0.8382317348    -1.3129931805     1.2233916704
    9      H      -1.8927749337     1.3582433970    -0.1951708129
   10      H      -0.3095242683     2.1588206773    -0.2467873641
   11      H      -0.8378546388     1.3132192450     1.2234422049
   12      H       1.7029004139    -0.0002678078     1.4684622258
 ----------------------------------------------------------------

    9    -517.3144733628      2.77e-07  Convergence criterion met
 Total energy in the final basis set =     -517.3144733628

                    Orbital Energies (a.u.)
 --------------------------------------------------------------

 Alpha MOs
 -- Occupied --
-88.857 -10.253 -10.195 -10.195  -7.917  -5.882  -5.879  -5.872
 -0.806  -0.706  -0.680  -0.586  -0.470  -0.445  -0.424  -0.402
 -0.374  -0.369  -0.358  -0.273  -0.224

 Beta MOs
 -- Occupied --
-88.857 -10.253 -10.195 -10.195  -7.917  -5.882  -5.879  -5.872
 -0.806  -0.706  -0.680  -0.586  -0.470  -0.445  -0.424  -0.402
 -0.374  -0.369  -0.358  -0.273  -0.224

          Ground-State Mulliken Net Atomic Charges

     Atom                 Charge (a.u.)    Spin (a.u.)
  --------------------------------------------------------
      1 S                    -0.219928       0.000000
      2 C                    -0.111303      -0.000000
      3 C                    -0.305653      -0.000000
      4 C                    -0.305654       0.000000
      5 H                     0.142844      -0.000000
      6 H                     0.114822       0.000000
      7 H                     0.139393       0.000000
      8 H                     0.120008       0.000000
      9 H                     0.114823      -0.000000
     10 H                     0.139393      -0.000000
     11 H                     0.120008      -0.000000
     12 H                     0.051249       0.000000
  --------------------------------------------------------
  Sum of atomic charges =    -0.000000

                    Cartesian Multipole Moments
 -----------------------------------------------------------------
    Charge (ESU x 10^10)
                 0.0000
    Dipole Moment (Debye)
         X      -3.0483      Y       0.0005      Z       0.2668
       Tot       3.0600
    Quadrupole Moments (Debye-Ang)
        XX     -39.2085     XY       0.0006     YY     -34.7450
        XZ       1.2896     YZ      -0.0002     ZZ     -31.4752

 Final energy is   -517.314473362807
 **  OPTIMIZATION CONVERGED  **
 Total job time:  19.21s(wall), 208.96s(cpu)
        *  Thank you very much for using Q-Chem.  Have a nice day.  *
