 Q-Chem 5.1, Q-Chem, Inc., Pleasanton, CA (2018)
 Q-Chem 5.1.1 for Intel X86 EM64T Linux

User input:
--------------------------------------------------------------

$comment
potential surface scanner
$end

$rem
JOBTYPE  PES_SCAN
UNRESTRICTED TRUE
SYM_IGNORE  TRUE
GEOM_OPT_MAX_CYCLES 400
SCF_MAX_CYCLES 400
METHOD   B3LYP
BASIS   6-31G**
PDB_PRINT 2
SCF_CONVERGENCE 6
THRESH 14
SCF_PRINT 1
$end
$molecule
0 1
S 1.849604 -0.000262 0.112148
C -0.192680 0.000047 -0.376806
C -0.824083 -1.279884 0.134422
C -0.823699 1.280149 0.134472
H -0.106460 0.000055 -1.465333
H -1.871191 -1.326622 -0.195561
H -0.306274 -2.164075 -0.242282
H -0.821970 -1.317862 1.228564
H -1.870788 1.327222 -0.195524
H -0.305617 2.164201 -0.242184
H -0.821589 1.318073 1.228615
H 1.624645 -0.000242 1.441871
$end
$scan
stre 1 2 2.200000 2.201000 0.100000
$end
--------------------------------------------------------------

    9    -517.3308340106      2.60e-07  Convergence criterion met
 Total energy in the final basis set =     -517.3308340106
    9    -517.3228865141      2.65e-07  Convergence criterion met
 Total energy in the final basis set =     -517.3228865141
    9    -517.3228749646      2.66e-07  Convergence criterion met
 Total energy in the final basis set =     -517.3228749646
    9    -517.3229495451      2.70e-07  Convergence criterion met
 Total energy in the final basis set =     -517.3229495451
    9    -517.3229525355      2.70e-07  Convergence criterion met
 Total energy in the final basis set =     -517.3229525355

             Standard Nuclear Orientation (Angstroms)
    I     Atom           X                Y                Z
 ----------------------------------------------------------------
    1      S       1.9113485246    -0.0002737278     0.1298566587
    2      C      -0.2268650856     0.0000546523    -0.3878711615
    3      C      -0.8335814615    -1.2823749325     0.1321490393
    4      C      -0.8331995269     1.2826456228     0.1321977261
    5      H      -0.1115123020     0.0000577572    -1.4722743917
    6      H      -1.8819197478    -1.3419434454    -0.1949546900
    7      H      -0.3081607975    -2.1617177285    -0.2445178035
    8      H      -0.8292480575    -1.3153570310     1.2260611066
    9      H      -1.8815154028     1.3425423257    -0.1949162402
   10      H      -0.3075106309     2.1618477345    -0.2444245866
   11      H      -0.8288687591     1.3155762063     1.2261117610
   12      H       1.6609312469    -0.0002574337     1.4549845818
 ----------------------------------------------------------------

    9    -517.3229530379      2.71e-07  Convergence criterion met
 Total energy in the final basis set =     -517.3229530379

                    Orbital Energies (a.u.)
 --------------------------------------------------------------

 Alpha MOs
 -- Occupied --
-88.861 -10.248 -10.193 -10.193  -7.921  -5.886  -5.883  -5.876
 -0.805  -0.702  -0.686  -0.583  -0.467  -0.444  -0.421  -0.399
 -0.377  -0.365  -0.355  -0.283  -0.228

 Beta MOs
 -- Occupied --
-88.861 -10.248 -10.193 -10.193  -7.921  -5.886  -5.883  -5.876
 -0.805  -0.702  -0.686  -0.583  -0.467  -0.444  -0.421  -0.399
 -0.377  -0.365  -0.355  -0.283  -0.228

          Ground-State Mulliken Net Atomic Charges

     Atom                 Charge (a.u.)    Spin (a.u.)
  --------------------------------------------------------
      1 S                    -0.180596      -0.000000
      2 C                    -0.139148      -0.000000
      3 C                    -0.301441      -0.000000
      4 C                    -0.301442       0.000000
      5 H                     0.140551       0.000000
      6 H                     0.112595       0.000000
      7 H                     0.135404       0.000000
      8 H                     0.116422      -0.000000
      9 H                     0.112595      -0.000000
     10 H                     0.135404      -0.000000
     11 H                     0.116422      -0.000000
     12 H                     0.053236       0.000000
  --------------------------------------------------------
  Sum of atomic charges =     0.000000

                    Cartesian Multipole Moments
 -----------------------------------------------------------------
    Charge (ESU x 10^10)
                -0.0000
    Dipole Moment (Debye)
         X      -2.6971      Y       0.0004      Z       0.3202
       Tot       2.7160
    Quadrupole Moments (Debye-Ang)
        XX     -38.6706     XY       0.0005     YY     -34.8924
        XZ       1.3789     YZ      -0.0003     ZZ     -31.5273

 Final energy is   -517.322953037905
 **  OPTIMIZATION CONVERGED  **
 Total job time:  18.75s(wall), 210.25s(cpu)
        *  Thank you very much for using Q-Chem.  Have a nice day.  *
