 Q-Chem 5.1, Q-Chem, Inc., Pleasanton, CA (2018)
 Q-Chem 5.1.1 for Intel X86 EM64T Linux

User input:
--------------------------------------------------------------

$comment
potential surface scanner
$end

$rem
JOBTYPE  PES_SCAN
UNRESTRICTED TRUE
SYM_IGNORE  TRUE
GEOM_OPT_MAX_CYCLES 400
SCF_MAX_CYCLES 400
METHOD   B3LYP
BASIS   6-31G**
PDB_PRINT 2
SCF_CONVERGENCE 6
THRESH 14
SCF_PRINT 1
$end
$molecule
0 3
S 4.174703 -0.000663 0.114303
C -0.618916 0.000295 -0.133116
C -1.320871 -1.298373 0.084386
C -1.321032 1.298907 0.084197
H 0.323531 0.000311 -0.675143
H -2.081543 -1.494703 -0.692358
H -0.629158 -2.146533 0.072063
H -1.858620 -1.312322 1.042679
H -2.081497 1.495186 -0.692763
H -0.629380 2.147123 0.072072
H -1.859046 1.312808 1.042339
H 3.431726 -0.001234 1.243745
$end
$scan
stre 1 2 4.700000 4.701000 0.100000
$end
--------------------------------------------------------------

    9    -517.2318552049      8.71e-07  Convergence criterion met
 Total energy in the final basis set =     -517.2318552049
    9    -517.2307828239      8.36e-07  Convergence criterion met
 Total energy in the final basis set =     -517.2307828239
    9    -517.2316431931      8.53e-07  Convergence criterion met
 Total energy in the final basis set =     -517.2316431931
    9    -517.2318825895      8.71e-07  Convergence criterion met
 Total energy in the final basis set =     -517.2318825895
    9    -517.2318861732      8.73e-07  Convergence criterion met
 Total energy in the final basis set =     -517.2318861732

             Standard Nuclear Orientation (Angstroms)
    I     Atom           X                Y                Z
 ----------------------------------------------------------------
    1      S       4.0859603844    -0.0007106956     0.1314554745
    2      C      -0.6053802371     0.0002885655    -0.1537149682
    3      C      -1.3002915107    -1.2984333327     0.0849519076
    4      C      -1.3004488545     1.2989553152     0.0847892327
    5      H       0.3202450532     0.0003061321    -0.7241917810
    6      H      -2.0829849467    -1.4959589090    -0.6693120774
    7      H      -0.6087743144    -2.1462761730     0.0532713458
    8      H      -1.8101893353    -1.3118144774     1.0583476522
    9      H      -2.0829691349     1.4964263382    -0.6696690303
   10      H      -0.6089888059     2.1468526058     0.0532799408
   11      H      -1.8105809240     1.3122909142     1.0580607400
   12      H       3.3342996258    -0.0011242834     1.2551355633
 ----------------------------------------------------------------

    9    -517.2318868297      8.73e-07  Convergence criterion met
 Total energy in the final basis set =     -517.2318868297

                    Orbital Energies (a.u.)
 --------------------------------------------------------------

 Alpha MOs
 -- Occupied --
-88.911 -10.185 -10.176 -10.176  -7.973  -5.944  -5.934  -5.925
 -0.776  -0.738  -0.687  -0.566  -0.447  -0.424  -0.413  -0.404
 -0.381  -0.350  -0.344  -0.321  -0.273  -0.178

 Beta MOs
 -- Occupied --
-88.906 -10.177 -10.177 -10.171  -7.967  -5.931  -5.926  -5.922
 -0.759  -0.699  -0.684  -0.545  -0.442  -0.407  -0.399  -0.399
 -0.375  -0.347  -0.338  -0.259

          Ground-State Mulliken Net Atomic Charges

     Atom                 Charge (a.u.)    Spin (a.u.)
  --------------------------------------------------------
      1 S                    -0.075873       1.028008
      2 C                    -0.081432       1.018663
      3 C                    -0.333603      -0.080066
      4 C                    -0.333603      -0.080065
      5 H                     0.098380      -0.046595
      6 H                     0.110024       0.062430
      7 H                     0.108139       0.006114
      8 H                     0.106332       0.025237
      9 H                     0.110025       0.062433
     10 H                     0.108143       0.006122
     11 H                     0.106330       0.025223
     12 H                     0.077139      -0.027504
  --------------------------------------------------------
  Sum of atomic charges =     0.000000

                    Cartesian Multipole Moments
 -----------------------------------------------------------------
    Charge (ESU x 10^10)
                 0.0000
    Dipole Moment (Debye)
         X      -0.7082      Y      -0.0003      Z       0.7315
       Tot       1.0182
    Quadrupole Moments (Debye-Ang)
        XX     -39.3786     XY      -0.0003     YY     -33.1254
        XZ       1.4382     YZ      -0.0006     ZZ     -33.7389

 Final energy is   -517.231886829666
 **  OPTIMIZATION CONVERGED  **
 Total job time:  16.21s(wall), 186.26s(cpu)
        *  Thank you very much for using Q-Chem.  Have a nice day.  *
