 Q-Chem 5.1, Q-Chem, Inc., Pleasanton, CA (2018)
 Q-Chem 5.1.1 for Intel X86 EM64T Linux

User input:
--------------------------------------------------------------

$comment
potential surface scanner
$end

$rem
JOBTYPE  PES_SCAN
UNRESTRICTED TRUE
SYM_IGNORE  TRUE
GEOM_OPT_MAX_CYCLES 400
SCF_MAX_CYCLES 400
METHOD   B3LYP
BASIS   6-31G**
PDB_PRINT 2
SCF_CONVERGENCE 6
THRESH 14
SCF_PRINT 1
$end
$molecule
0 1
S 1.657900 -0.000200 0.107500
C -0.098900 0.000100 -0.384900
C -0.779700 -1.258900 0.138700
C -0.779300 1.259100 0.138700
H -0.135800 0.000100 -1.479400
H -1.829100 -1.282800 -0.175600
H -0.301500 -2.163300 -0.253500
H -0.763000 -1.307700 1.233500
H -1.828700 1.283400 -0.175500
H -0.300800 2.163400 -0.253400
H -0.762600 1.307800 1.233400
H 1.451400 -0.000200 1.432900
$end
$scan
stre 1 2 1.000000 1.001000 0.100000
$end
--------------------------------------------------------------

    9    -517.3397527088      2.29e-07  Convergence criterion met
 Total energy in the final basis set =     -517.3397527088
    9    -517.3268240487      2.00e-07  Convergence criterion met
 Total energy in the final basis set =     -517.3268240487
    8    -517.2850197798      8.54e-07  Convergence criterion met
 Total energy in the final basis set =     -517.2850197798
    8    -517.2071409035      7.12e-07  Convergence criterion met
 Total energy in the final basis set =     -517.2071409035
    8    -517.0816095185      8.21e-07  Convergence criterion met
 Total energy in the final basis set =     -517.0816095185
    9    -516.8768428141      4.88e-07  Convergence criterion met
 Total energy in the final basis set =     -516.8768428141
    9    -516.5930457318      8.59e-07  Convergence criterion met
 Total energy in the final basis set =     -516.5930457318
    9    -516.3816617719      8.68e-07  Convergence criterion met
    9    -516.1179106086      8.91e-07  Convergence criterion met
 Total energy in the final basis set =     -516.1179106086
    9    -516.1179138042      8.91e-07  Convergence criterion met
 Total energy in the final basis set =     -516.1179138042
    9    -516.1179170241      8.92e-07  Convergence criterion met
 Total energy in the final basis set =     -516.1179170241
    9    -516.1179209333      8.93e-07  Convergence criterion met
 Total energy in the final basis set =     -516.1179209333
    9    -516.1179239214      8.93e-07  Convergence criterion met
 Total energy in the final basis set =     -516.1179239214
    9    -516.1179249700      8.93e-07  Convergence criterion met
 Total energy in the final basis set =     -516.1179249700

             Standard Nuclear Orientation (Angstroms)
    I     Atom           X                Y                Z
 ----------------------------------------------------------------
    1      S       1.2643479149    -0.0001705610    -0.0642795883
    2      C       0.2799577245    -0.0000206959    -0.2402799682
    3      C      -0.7987586250    -1.3188569583     0.1458281405
    4      C      -0.7983611904     1.3191163032     0.1458786486
    5      H      -0.0768928093     0.0000484621    -1.2792833549
    6      H      -1.8160813667    -1.2134130671    -0.2376965755
    7      H      -0.3237404013    -2.2289625677    -0.2367345388
    8      H      -0.8088133373    -1.3438877114     1.2407580096
    9      H      -1.8157067756     1.2139983426    -0.2376770745
   10      H      -0.3230603042     2.2290974976    -0.2366272887
   11      H      -0.8084357201     1.3440918240     1.2408127878
   12      H       1.5554448906    -0.0002408681     1.3217008026
 ----------------------------------------------------------------

    9    -516.1179251505      8.92e-07  Convergence criterion met
 Total energy in the final basis set =     -516.1179251505

                    Orbital Energies (a.u.)
 --------------------------------------------------------------

 Alpha MOs
 -- Occupied --
-88.826 -10.249 -10.173 -10.173  -7.971  -5.945  -5.915  -5.910
 -0.964  -0.699  -0.679  -0.617  -0.499  -0.480  -0.448  -0.404
 -0.387  -0.385  -0.366  -0.249  -0.171

 Beta MOs
 -- Occupied --
-88.826 -10.249 -10.173 -10.173  -7.971  -5.945  -5.915  -5.910
 -0.964  -0.699  -0.679  -0.617  -0.499  -0.480  -0.448  -0.404
 -0.387  -0.385  -0.366  -0.249  -0.171

          Ground-State Mulliken Net Atomic Charges

     Atom                 Charge (a.u.)    Spin (a.u.)
  --------------------------------------------------------
      1 S                     0.351858      -0.000000
      2 C                    -0.342795      -0.000000
      3 C                    -0.392180      -0.000000
      4 C                    -0.392177       0.000000
      5 H                     0.198302      -0.000000
      6 H                     0.100535       0.000000
      7 H                     0.097750      -0.000000
      8 H                     0.106584       0.000000
      9 H                     0.100535      -0.000000
     10 H                     0.097750      -0.000000
     11 H                     0.106584      -0.000000
     12 H                    -0.032747       0.000000
  --------------------------------------------------------
  Sum of atomic charges =    -0.000000

                    Cartesian Multipole Moments
 -----------------------------------------------------------------
    Charge (ESU x 10^10)
                -0.0000
    Dipole Moment (Debye)
         X      -0.9950      Y       0.0002      Z      -0.5342
       Tot       1.1293
    Quadrupole Moments (Debye-Ang)
        XX     -36.9298     XY       0.0002     YY     -35.0599
        XZ       1.0757     YZ      -0.0002     ZZ     -31.3976

 Final energy is   -516.117925150454
 **  OPTIMIZATION CONVERGED  **
 Total job time:  100.07s(wall), 1121.07s(cpu)
        *  Thank you very much for using Q-Chem.  Have a nice day.  *
