 Q-Chem 5.1, Q-Chem, Inc., Pleasanton, CA (2018)
 Q-Chem 5.1.1 for Intel X86 EM64T Linux

User input:
--------------------------------------------------------------

$comment
potential surface scanner
$end

$rem
JOBTYPE  PES_SCAN
UNRESTRICTED TRUE
SYM_IGNORE  TRUE
GEOM_OPT_MAX_CYCLES 400
SCF_MAX_CYCLES 400
METHOD   B3LYP
BASIS   6-31G**
PDB_PRINT 2
SCF_CONVERGENCE 6
THRESH 14
SCF_PRINT 1
$end
$molecule
0 1
S 1.657900 -0.000200 0.107500
C -0.098900 0.000100 -0.384900
C -0.779700 -1.258900 0.138700
C -0.779300 1.259100 0.138700
H -0.135800 0.000100 -1.479400
H -1.829100 -1.282800 -0.175600
H -0.301500 -2.163300 -0.253500
H -0.763000 -1.307700 1.233500
H -1.828700 1.283400 -0.175500
H -0.300800 2.163400 -0.253400
H -0.762600 1.307800 1.233400
H 1.451400 -0.000200 1.432900
$end
$scan
stre 1 2 1.500000 1.501000 0.100000
$end
--------------------------------------------------------------

    9    -517.3397527088      2.29e-07  Convergence criterion met
 Total energy in the final basis set =     -517.3397527088
    9    -517.3268240487      2.00e-07  Convergence criterion met
 Total energy in the final basis set =     -517.3268240487
    8    -517.2850197798      8.54e-07  Convergence criterion met
 Total energy in the final basis set =     -517.2850197798
    8    -517.2725013074      7.93e-07  Convergence criterion met
 Total energy in the final basis set =     -517.2725013074
    8    -517.2736087095      7.67e-07  Convergence criterion met
 Total energy in the final basis set =     -517.2736087095
    8    -517.2738852203      7.57e-07  Convergence criterion met
 Total energy in the final basis set =     -517.2738852203
    8    -517.2739343750      7.56e-07  Convergence criterion met
 Total energy in the final basis set =     -517.2739343750
    8    -517.2739584783      7.56e-07  Convergence criterion met
 Total energy in the final basis set =     -517.2739584783
    8    -517.2739610062      7.56e-07  Convergence criterion met
 Total energy in the final basis set =     -517.2739610062

             Standard Nuclear Orientation (Angstroms)
    I     Atom           X                Y                Z
 ----------------------------------------------------------------
    1      S       1.4921923739    -0.0002056959     0.0054018124
    2      C       0.0225716195     0.0000166800    -0.2949574610
    3      C      -0.7839520607    -1.2617950334     0.1448442455
    4      C      -0.7835782867     1.2620491464     0.1448895700
    5      H      -0.0490376303     0.0000454894    -1.3963449290
    6      H      -1.8221655539    -1.2209615755    -0.1986647311
    7      H      -0.3168444037    -2.1715230867    -0.2432695842
    8      H      -0.7910903013    -1.3295981153     1.2398183716
    9      H      -1.8217968782     1.2215555544    -0.1986441206
   10      H      -0.3161830916     2.1716538079    -0.2431674003
   11      H      -0.7907181810     1.3297967614     1.2398666533
   12      H       1.4905023941    -0.0002339329     1.3626275733
 ----------------------------------------------------------------

    8    -517.2739619046      7.56e-07  Convergence criterion met
 Total energy in the final basis set =     -517.2739619046

                    Orbital Energies (a.u.)
 --------------------------------------------------------------

 Alpha MOs
 -- Occupied --
-88.858 -10.209 -10.181 -10.181  -7.929  -5.894  -5.889  -5.884
 -0.873  -0.715  -0.688  -0.583  -0.469  -0.454  -0.429  -0.398
 -0.389  -0.357  -0.351  -0.307  -0.221

 Beta MOs
 -- Occupied --
-88.858 -10.209 -10.181 -10.181  -7.929  -5.894  -5.889  -5.884
 -0.873  -0.715  -0.688  -0.583  -0.469  -0.454  -0.429  -0.398
 -0.389  -0.357  -0.351  -0.307  -0.221

          Ground-State Mulliken Net Atomic Charges

     Atom                 Charge (a.u.)    Spin (a.u.)
  --------------------------------------------------------
      1 S                    -0.006219       0.000000
      2 C                    -0.200933      -0.000000
      3 C                    -0.307487      -0.000000
      4 C                    -0.307488       0.000000
      5 H                     0.143610      -0.000000
      6 H                     0.102544       0.000000
      7 H                     0.115335      -0.000000
      8 H                     0.102743       0.000000
      9 H                     0.102544      -0.000000
     10 H                     0.115335      -0.000000
     11 H                     0.102743      -0.000000
     12 H                     0.037272      -0.000000
  --------------------------------------------------------
  Sum of atomic charges =    -0.000000

                    Cartesian Multipole Moments
 -----------------------------------------------------------------
    Charge (ESU x 10^10)
                 0.0000
    Dipole Moment (Debye)
         X      -1.4629      Y       0.0002      Z       0.3461
       Tot       1.5033
    Quadrupole Moments (Debye-Ang)
        XX     -36.9111     XY       0.0002     YY     -35.2254
        XZ       1.6722     YZ      -0.0003     ZZ     -31.7042

 Final energy is   -517.273961904602
 **  OPTIMIZATION CONVERGED  **
 Total job time:  29.95s(wall), 332.31s(cpu)
        *  Thank you very much for using Q-Chem.  Have a nice day.  *
