 Q-Chem 5.1, Q-Chem, Inc., Pleasanton, CA (2018)
 Q-Chem 5.1.1 for Intel X86 EM64T Linux

User input:
--------------------------------------------------------------

$comment
potential surface scanner
$end

$rem
JOBTYPE  PES_SCAN
UNRESTRICTED TRUE
SYM_IGNORE  TRUE
GEOM_OPT_MAX_CYCLES 400
SCF_MAX_CYCLES 400
METHOD   B3LYP
BASIS   6-31G**
PDB_PRINT 2
SCF_CONVERGENCE 6
THRESH 14
SCF_PRINT 1
$end
$molecule
0 3
S 3.218260 0.007189 1.069612
C -0.499061 -0.001794 -0.407357
C -1.028898 -1.299892 0.106600
C -1.022189 1.298426 0.108148
H 0.002079 -0.002514 -1.373729
H -2.038916 -1.511449 -0.287140
H -0.395091 -2.145517 -0.178474
H -1.121996 -1.293366 1.199910
H -2.031616 1.515132 -0.284320
H -0.384609 2.141211 -0.176890
H -1.114244 1.291488 1.201558
H 1.946176 0.001886 0.584489
$end
$scan
stre 1 2 3.900000 3.901000 0.100000
$end
--------------------------------------------------------------

    9    -517.2347946651      9.85e-07  Convergence criterion met
 Total energy in the final basis set =     -517.2347946651
    9    -517.2332404222      8.79e-07  Convergence criterion met
 Total energy in the final basis set =     -517.2332404222
    9    -517.2346637411      9.36e-07  Convergence criterion met
 Total energy in the final basis set =     -517.2346637411
    9    -517.2350891455      9.89e-07  Convergence criterion met
 Total energy in the final basis set =     -517.2350891455
    9    -517.2350989058      9.99e-07  Convergence criterion met
 Total energy in the final basis set =     -517.2350989058

             Standard Nuclear Orientation (Angstroms)
    I     Atom           X                Y                Z
 ----------------------------------------------------------------
    1      S       3.1337475815     0.0063360911     1.0574697715
    2      C      -0.4819649206    -0.0015927827    -0.4042279694
    3      C      -1.0110375517    -1.2997281289     0.1108241574
    4      C      -1.0048149070     1.2985332940     0.1121992124
    5      H       0.0105928131    -0.0022476760    -1.3751197396
    6      H      -2.0214880735    -1.5105824711    -0.2820191878
    7      H      -0.3777263127    -2.1453666729    -0.1751735431
    8      H      -1.1027689336    -1.2929667036     1.2041406736
    9      H      -2.0146442680     1.5142366063    -0.2796198606
   10      H      -0.3678979118     2.1414995814    -0.1736543456
   11      H      -1.0957615842     1.2913639823     1.2055925553
   12      H       1.8636590684     0.0013148800     0.5619952759
 ----------------------------------------------------------------

    9    -517.2350994112      1.00e-06  Convergence criterion met
 Total energy in the final basis set =     -517.2350994112

                    Orbital Energies (a.u.)
 --------------------------------------------------------------

 Alpha MOs
 -- Occupied --
-88.899 -10.203 -10.186 -10.186  -7.960  -5.932  -5.921  -5.913
 -0.789  -0.726  -0.697  -0.579  -0.459  -0.438  -0.415  -0.399
 -0.392  -0.362  -0.355  -0.311  -0.263  -0.196

 Beta MOs
 -- Occupied --
-88.893 -10.190 -10.187 -10.187  -7.955  -5.918  -5.913  -5.909
 -0.772  -0.695  -0.684  -0.558  -0.453  -0.420  -0.409  -0.386
 -0.384  -0.358  -0.350  -0.248

          Ground-State Mulliken Net Atomic Charges

     Atom                 Charge (a.u.)    Spin (a.u.)
  --------------------------------------------------------
      1 S                    -0.094184       1.051806
      2 C                    -0.087948       0.974437
      3 C                    -0.334828      -0.074139
      4 C                    -0.334907      -0.074142
      5 H                     0.097983      -0.041385
      6 H                     0.116323       0.064126
      7 H                     0.117735       0.008651
      8 H                     0.113121       0.017301
      9 H                     0.116340       0.064136
     10 H                     0.117837       0.008625
     11 H                     0.113076       0.017342
     12 H                     0.059451      -0.016759
  --------------------------------------------------------
  Sum of atomic charges =    -0.000000

                    Cartesian Multipole Moments
 -----------------------------------------------------------------
    Charge (ESU x 10^10)
                 0.0000
    Dipole Moment (Debye)
         X      -1.9060      Y      -0.0041      Z      -0.6338
       Tot       2.0086
    Quadrupole Moments (Debye-Ang)
        XX     -39.9809     XY      -0.0232     YY     -35.5484
        XZ      -2.7156     YZ       0.0424     ZZ     -33.9335

 Final energy is   -517.235099411152
 **  OPTIMIZATION CONVERGED  **
 Total job time:  17.08s(wall), 196.55s(cpu)
        *  Thank you very much for using Q-Chem.  Have a nice day.  *
