 Q-Chem 5.1, Q-Chem, Inc., Pleasanton, CA (2018)
 Q-Chem 5.1.1 for Intel X86 EM64T Linux

User input:
--------------------------------------------------------------

$comment
potential surface scanner
$end

$rem
JOBTYPE  PES_SCAN
UNRESTRICTED TRUE
SYM_IGNORE  TRUE
GEOM_OPT_MAX_CYCLES 400
SCF_MAX_CYCLES 400
METHOD   B3LYP
BASIS   6-31G**
PDB_PRINT 2
SCF_CONVERGENCE 6
THRESH 14
SCF_PRINT 1
$end
$molecule
0 3
S 2.546318 0.006681 1.027145
C -0.332625 -0.001100 -0.369862
C -0.885135 -1.295952 0.141434
C -0.880420 1.295627 0.141634
H 0.050984 -0.001473 -1.390563
H -1.903370 -1.468160 -0.245393
H -0.277348 -2.152257 -0.166867
H -0.957265 -1.297123 1.234949
H -1.896267 1.473534 -0.248795
H -0.267238 2.149364 -0.163203
H -0.956933 1.295356 1.234872
H 1.289198 -0.003697 0.367058
$end
$scan
stre 1 2 3.100000 3.101000 0.100000
$end
--------------------------------------------------------------

   10    -517.2354128234      3.41e-07  Convergence criterion met
 Total energy in the final basis set =     -517.2354128234
   10    -517.2340456973      3.33e-07  Convergence criterion met
 Total energy in the final basis set =     -517.2340456973
   10    -517.2346365960      3.35e-07  Convergence criterion met
 Total energy in the final basis set =     -517.2346365960
   10    -517.2353059808      3.37e-07  Convergence criterion met
 Total energy in the final basis set =     -517.2353059808
   10    -517.2355426280      3.36e-07  Convergence criterion met
 Total energy in the final basis set =     -517.2355426280
   10    -517.2357925294      3.32e-07  Convergence criterion met
 Total energy in the final basis set =     -517.2357925294
   10    -517.2370605375      3.24e-07  Convergence criterion met
 Total energy in the final basis set =     -517.2370605375
   10    -517.2412649430      3.58e-07  Convergence criterion met
    9    -517.2565216450      5.92e-07  Convergence criterion met
 Total energy in the final basis set =     -517.2565216450
    9    -517.2565444473      5.83e-07  Convergence criterion met
 Total energy in the final basis set =     -517.2565444473
    9    -517.2565471144      5.83e-07  Convergence criterion met
 Total energy in the final basis set =     -517.2565471144
    9    -517.2565568161      5.85e-07  Convergence criterion met
 Total energy in the final basis set =     -517.2565568161
    9    -517.2565619006      5.86e-07  Convergence criterion met
 Total energy in the final basis set =     -517.2565619006
    9    -517.2565651037      5.86e-07  Convergence criterion met
 Total energy in the final basis set =     -517.2565651037

             Standard Nuclear Orientation (Angstroms)
    I     Atom           X                Y                Z
 ----------------------------------------------------------------
    1      S       2.6781693188    -0.0080637273     1.0331071174
    2      C      -0.1374636099     0.0005767681    -0.2638660787
    3      C      -0.8492203019    -1.2807573135     0.1630526758
    4      C      -0.8487316718     1.2825008015     0.1621451538
    5      H       0.0363392964     0.0001201138    -1.3475246548
    6      H      -1.8435165212    -1.3426090427    -0.2958611802
    7      H      -0.2876290651    -2.1714306499    -0.1341395080
    8      H      -0.9857489169    -1.3147441174     1.2494789466
    9      H      -1.8430585580     1.3443730644    -0.2967120975
   10      H      -0.2868737830     2.1727708409    -0.1357762696
   11      H      -0.9851018951     1.3173582029     1.2485601017
   12      H       0.8827347077     0.0007050592     0.1799447935
 ----------------------------------------------------------------

    9    -517.2565655764      5.86e-07  Convergence criterion met
 Total energy in the final basis set =     -517.2565655764

                    Orbital Energies (a.u.)
 --------------------------------------------------------------

 Alpha MOs
 -- Occupied --
-88.911 -10.198 -10.181 -10.181  -7.972  -5.941  -5.940  -5.922
 -0.793  -0.709  -0.688  -0.596  -0.471  -0.445  -0.406  -0.387
 -0.366  -0.347  -0.344  -0.317  -0.277  -0.269

 Beta MOs
 -- Occupied --
-88.901 -10.195 -10.181 -10.181  -7.961  -5.921  -5.920  -5.917
 -0.788  -0.687  -0.629  -0.586  -0.462  -0.442  -0.405  -0.386
 -0.346  -0.346  -0.339  -0.244

          Ground-State Mulliken Net Atomic Charges

     Atom                 Charge (a.u.)    Spin (a.u.)
  --------------------------------------------------------
      1 S                    -0.049642       1.862169
      2 C                    -0.141505       0.151818
      3 C                    -0.310339      -0.002291
      4 C                    -0.310328      -0.002246
      5 H                     0.109562       0.000151
      6 H                     0.109419       0.008630
      7 H                     0.112601       0.000890
      8 H                     0.108720       0.001051
      9 H                     0.109446       0.008696
     10 H                     0.112501       0.000888
     11 H                     0.108768       0.001053
     12 H                     0.040796      -0.030809
  --------------------------------------------------------
  Sum of atomic charges =     0.000000

                    Cartesian Multipole Moments
 -----------------------------------------------------------------
    Charge (ESU x 10^10)
                -0.0000
    Dipole Moment (Debye)
         X      -1.1835      Y       0.0035      Z      -0.4861
       Tot       1.2795
    Quadrupole Moments (Debye-Ang)
        XX     -36.4585     XY       0.0063     YY     -35.9605
        XZ      -1.2291     YZ      -0.0107     ZZ     -33.5824

 Final energy is   -517.256565576393
 **  OPTIMIZATION CONVERGED  **
 Total job time:  56.06s(wall), 656.60s(cpu)
        *  Thank you very much for using Q-Chem.  Have a nice day.  *
