 Q-Chem 5.1, Q-Chem, Inc., Pleasanton, CA (2018)
 Q-Chem 5.1.1 for Intel X86 EM64T Linux

User input:
--------------------------------------------------------------

$comment
potential surface scanner
$end

$rem
JOBTYPE  PES_SCAN
UNRESTRICTED TRUE
SYM_IGNORE  TRUE
GEOM_OPT_MAX_CYCLES 400
SCF_MAX_CYCLES 400
METHOD   B3LYP
BASIS   6-31G**
PDB_PRINT 2
SCF_CONVERGENCE 6
THRESH 14
SCF_PRINT 1
$end
$molecule
0 1
S 2.035388 -0.000303 0.163148
C -0.295880 0.000069 -0.407108
C -0.855553 -1.287020 0.127203
C -0.855170 1.287300 0.127253
H -0.119852 0.000063 -1.481126
H -1.904736 -1.374669 -0.197052
H -0.311501 -2.154831 -0.248278
H -0.849908 -1.310257 1.220672
H -1.904324 1.375269 -0.197009
H -0.310856 2.154964 -0.248188
H -0.849531 1.310488 1.220724
H 1.751819 -0.000269 1.482164
$end
$scan
stre 1 2 2.500000 2.501000 0.100000
$end
--------------------------------------------------------------

    9    -517.3059041997      2.85e-07  Convergence criterion met
 Total energy in the final basis set =     -517.3059041997
    9    -517.2975417048      2.87e-07  Convergence criterion met
 Total energy in the final basis set =     -517.2975417048
    9    -517.2973979510      2.89e-07  Convergence criterion met
 Total energy in the final basis set =     -517.2973979510
    9    -517.2975346586      2.99e-07  Convergence criterion met
 Total energy in the final basis set =     -517.2975346586
    9    -517.2975366758      3.00e-07  Convergence criterion met
 Total energy in the final basis set =     -517.2975366758

             Standard Nuclear Orientation (Angstroms)
    I     Atom           X                Y                Z
 ----------------------------------------------------------------
    1      S       2.0976683846    -0.0003188553     0.1775375344
    2      C      -0.3308879350     0.0000718944    -0.4158527268
    3      C      -0.8679569945    -1.2891054310     0.1247441433
    4      C      -0.8675689880     1.2893856290     0.1247984559
    5      H      -0.1243186486     0.0000631671    -1.4835937337
    6      H      -1.9161315997    -1.3933410717    -0.2007614263
    7      H      -0.3116414832    -2.1501728922    -0.2476701271
    8      H      -0.8645871237    -1.3064019139     1.2180543644
    9      H      -1.9157094545     1.3939465071    -0.2007116870
   10      H      -0.3109900613     2.1502998927    -0.2475753058
   11      H      -0.8642056111     1.3066315575     1.2181092790
   12      H       1.8062255150    -0.0002544838     1.4953242297
 ----------------------------------------------------------------

    9    -517.2975371325      3.00e-07  Convergence criterion met
 Total energy in the final basis set =     -517.2975371325

                    Orbital Energies (a.u.)
 --------------------------------------------------------------

 Alpha MOs
 -- Occupied --
-88.850 -10.263 -10.201 -10.201  -7.909  -5.873  -5.872  -5.864
 -0.811  -0.713  -0.669  -0.591  -0.476  -0.449  -0.431  -0.407
 -0.377  -0.374  -0.357  -0.255  -0.217

 Beta MOs
 -- Occupied --
-88.850 -10.263 -10.201 -10.201  -7.909  -5.873  -5.872  -5.864
 -0.811  -0.713  -0.669  -0.591  -0.476  -0.449  -0.431  -0.407
 -0.377  -0.374  -0.357  -0.255  -0.217

          Ground-State Mulliken Net Atomic Charges

     Atom                 Charge (a.u.)    Spin (a.u.)
  --------------------------------------------------------
      1 S                    -0.292446      -0.000000
      2 C                    -0.058558       0.000000
      3 C                    -0.316125      -0.000000
      4 C                    -0.316126       0.000000
      5 H                     0.147837       0.000000
      6 H                     0.119547       0.000000
      7 H                     0.147636       0.000000
      8 H                     0.127189      -0.000000
      9 H                     0.119548      -0.000000
     10 H                     0.147636      -0.000000
     11 H                     0.127189       0.000000
     12 H                     0.046674       0.000000
  --------------------------------------------------------
  Sum of atomic charges =    -0.000000

                    Cartesian Multipole Moments
 -----------------------------------------------------------------
    Charge (ESU x 10^10)
                -0.0000
    Dipole Moment (Debye)
         X      -3.7997      Y       0.0006      Z       0.1553
       Tot       3.8029
    Quadrupole Moments (Debye-Ang)
        XX     -40.4241     XY       0.0009     YY     -34.4298
        XZ       1.1281     YZ      -0.0001     ZZ     -31.3719

 Final energy is   -517.297537132541
 **  OPTIMIZATION CONVERGED  **
 Total job time:  19.23s(wall), 207.51s(cpu)
        *  Thank you very much for using Q-Chem.  Have a nice day.  *
