 Q-Chem 5.1, Q-Chem, Inc., Pleasanton, CA (2018)
 Q-Chem 5.1.1 for Intel X86 EM64T Linux

User input:
--------------------------------------------------------------

$comment
potential surface scanner
$end

$rem
JOBTYPE  PES_SCAN
UNRESTRICTED TRUE
SYM_IGNORE  TRUE
GEOM_OPT_MAX_CYCLES 400
SCF_MAX_CYCLES 400
METHOD   B3LYP
BASIS   6-31G**
PDB_PRINT 2
SCF_CONVERGENCE 6
THRESH 14
SCF_PRINT 1
$end
$molecule
0 3
S 2.678169 -0.008064 1.033107
C -0.137464 0.000577 -0.263866
C -0.849220 -1.280757 0.163053
C -0.848732 1.282501 0.162145
H 0.036339 0.000120 -1.347525
H -1.843517 -1.342609 -0.295861
H -0.287629 -2.171431 -0.134140
H -0.985749 -1.314744 1.249479
H -1.843059 1.344373 -0.296712
H -0.286874 2.172771 -0.135776
H -0.985102 1.317358 1.248560
H 0.882735 0.000705 0.179945
$end
$scan
stre 1 2 3.000000 3.001000 0.100000
$end
--------------------------------------------------------------

    9    -517.2565655761      5.86e-07  Convergence criterion met
 Total energy in the final basis set =     -517.2565655761
    9    -517.2530611572      5.56e-07  Convergence criterion met
 Total energy in the final basis set =     -517.2530611572
    9    -517.2540196684      5.89e-07  Convergence criterion met
 Total energy in the final basis set =     -517.2540196684
    9    -517.2543687507      6.27e-07  Convergence criterion met
 Total energy in the final basis set =     -517.2543687507
    9    -517.2543854405      6.36e-07  Convergence criterion met
 Total energy in the final basis set =     -517.2543854405
    9    -517.2543873052      6.39e-07  Convergence criterion met
 Total energy in the final basis set =     -517.2543873052

             Standard Nuclear Orientation (Angstroms)
    I     Atom           X                Y                Z
 ----------------------------------------------------------------
    1      S       2.5879284348    -0.0087693026     0.9999927816
    2      C      -0.1339989060     0.0007402234    -0.2613640984
    3      C      -0.8411267505    -1.2816464164     0.1659402073
    4      C      -0.8410095055     1.2835052058     0.1649087515
    5      H       0.0486227879     0.0000925671    -1.3436149537
    6      H      -1.8345248953    -1.3466104018    -0.2947328304
    7      H      -0.2761001958    -2.1704958965    -0.1298091649
    8      H      -0.9795516518    -1.3148006875     1.2521178963
    9      H      -1.8344249414     1.3482209800    -0.2957983103
   10      H      -0.2759555032     2.1721272379    -0.1315041256
   11      H      -0.9791255244     1.3175775564     1.2510619753
   12      H       0.8891636513     0.0008589342     0.1852108712
 ----------------------------------------------------------------

    9    -517.2543876725      6.39e-07  Convergence criterion met
 Total energy in the final basis set =     -517.2543876725

                    Orbital Energies (a.u.)
 --------------------------------------------------------------

 Alpha MOs
 -- Occupied --
-88.907 -10.200 -10.183 -10.183  -7.967  -5.937  -5.935  -5.918
 -0.796  -0.708  -0.690  -0.598  -0.474  -0.447  -0.408  -0.389
 -0.371  -0.350  -0.346  -0.314  -0.268  -0.267

 Beta MOs
 -- Occupied --
-88.896 -10.197 -10.183 -10.183  -7.957  -5.916  -5.916  -5.912
 -0.790  -0.689  -0.632  -0.585  -0.463  -0.444  -0.406  -0.388
 -0.349  -0.348  -0.341  -0.241

          Ground-State Mulliken Net Atomic Charges

     Atom                 Charge (a.u.)    Spin (a.u.)
  --------------------------------------------------------
      1 S                    -0.056843       1.830465
      2 C                    -0.137766       0.187902
      3 C                    -0.310619      -0.003437
      4 C                    -0.310156      -0.003408
      5 H                     0.112069      -0.000140
      6 H                     0.110955       0.010501
      7 H                     0.114680       0.001131
      8 H                     0.109972       0.001341
      9 H                     0.110810       0.010535
     10 H                     0.114330       0.001131
     11 H                     0.110250       0.001353
     12 H                     0.032318      -0.037374
  --------------------------------------------------------
  Sum of atomic charges =     0.000000

                    Cartesian Multipole Moments
 -----------------------------------------------------------------
    Charge (ESU x 10^10)
                 0.0000
    Dipole Moment (Debye)
         X      -1.3890      Y       0.0047      Z      -0.5689
       Tot       1.5010
    Quadrupole Moments (Debye-Ang)
        XX     -36.9495     XY       0.0579     YY     -35.8498
        XZ      -1.4719     YZ      -0.1072     ZZ     -33.6474

 Final energy is   -517.254387672460
 **  OPTIMIZATION CONVERGED  **
 Total job time:  26.25s(wall), 239.04s(cpu)
        *  Thank you very much for using Q-Chem.  Have a nice day.  *
