 Q-Chem 5.1, Q-Chem, Inc., Pleasanton, CA (2018)
 Q-Chem 5.1.1 for Intel X86 EM64T Linux

User input:
--------------------------------------------------------------

$comment
potential surface scanner
$end

$rem
JOBTYPE  PES_SCAN
UNRESTRICTED TRUE
SYM_IGNORE  TRUE
GEOM_OPT_MAX_CYCLES 400
SCF_MAX_CYCLES 400
METHOD   B3LYP
BASIS   6-31G**
PDB_PRINT 2
SCF_CONVERGENCE 6
THRESH 14
SCF_PRINT 1
$end
$molecule
0 3
S 1.374476 -0.086949 1.272505
C 0.019240 0.032759 -0.193444
C -0.627264 -1.323071 0.234289
C -0.722772 1.325950 0.231923
H -0.415287 -0.009299 -1.298632
H -1.636752 -1.383378 -0.186997
H -0.045427 -2.166841 -0.142728
H -0.717787 -1.418209 1.322560
H -1.673104 1.429044 -0.303575
H -0.114281 2.205888 0.005152
H -0.918073 1.324566 1.306420
H 1.006930 0.070341 -0.685062
$end
$scan
stre 1 2 1.900000 1.901000 0.100000
$end
--------------------------------------------------------------

   14    -517.1623964087      4.09e-07  Convergence criterion met
 Total energy in the final basis set =     -517.1623964087
   13    -517.1433196296      9.01e-07  Convergence criterion met
 Total energy in the final basis set =     -517.1433196296
   13    -517.1436648353      9.62e-07  Convergence criterion met
 Total energy in the final basis set =     -517.1436648353
   13    -517.1459059841      9.25e-07  Convergence criterion met
 Total energy in the final basis set =     -517.1459059841
   13    -517.1475624708      8.06e-07  Convergence criterion met
 Total energy in the final basis set =     -517.1475624708
   13    -517.1495841261      9.04e-07  Convergence criterion met
 Total energy in the final basis set =     -517.1495841261
   14    -517.1534207141      5.51e-07  Convergence criterion met
 Total energy in the final basis set =     -517.1534207141
   11    -517.1594123490      7.93e-07  Convergence criterion met
   22    -517.1986043828      6.37e-07  Convergence criterion met
 Total energy in the final basis set =     -517.1986043828
   22    -517.1986170515      4.86e-07  Convergence criterion met
 Total energy in the final basis set =     -517.1986170515
   22    -517.1986253983      4.21e-07  Convergence criterion met
 Total energy in the final basis set =     -517.1986253983
   22    -517.1986293144      2.72e-07  Convergence criterion met
 Total energy in the final basis set =     -517.1986293144
   22    -517.1986324058      2.28e-07  Convergence criterion met
 Total energy in the final basis set =     -517.1986324058
   22    -517.1986337343      7.90e-07  Convergence criterion met
 Total energy in the final basis set =     -517.1986337343

             Standard Nuclear Orientation (Angstroms)
    I     Atom           X                Y                Z
 ----------------------------------------------------------------
    1      S       1.7039292216     0.0610650112     1.2998821359
    2      C       0.1582013728     0.0018427592     0.1966067408
    3      C      -0.6300630119    -1.2832987220     0.4431027500
    4      C      -0.6647343721     1.2625842073     0.4876683548
    5      H      -0.3930818329     0.0185300204    -3.1806652536
    6      H      -1.5005977482    -1.3097872658    -0.2243338656
    7      H      -0.0283637769    -2.1742333258     0.2424571827
    8      H      -0.9834237516    -1.3330717017     1.4770659545
    9      H      -1.5440108845     1.2713547536    -0.1674126870
   10      H      -0.0947467622     2.1766433884     0.2991603938
   11      H      -1.0117168051     1.2751049701     1.5252262298
   12      H       0.5185073510     0.0340669052    -0.8363469362
 ----------------------------------------------------------------

   23    -517.1986343249      5.45e-07  Convergence criterion met
 Total energy in the final basis set =     -517.1986343249

                    Orbital Energies (a.u.)
 --------------------------------------------------------------

 Alpha MOs
 -- Occupied --
-88.884 -10.233 -10.194 -10.189  -7.944  -5.915  -5.905  -5.896
 -0.815  -0.699  -0.689  -0.572  -0.466  -0.441  -0.422  -0.398
 -0.361  -0.360  -0.327  -0.320  -0.281  -0.239

 Beta MOs
 -- Occupied --
-88.878 -10.233 -10.193 -10.189  -7.939  -5.902  -5.897  -5.893
 -0.810  -0.697  -0.661  -0.562  -0.464  -0.437  -0.417  -0.396
 -0.360  -0.357  -0.314  -0.226

          Ground-State Mulliken Net Atomic Charges

     Atom                 Charge (a.u.)    Spin (a.u.)
  --------------------------------------------------------
      1 S                    -0.026159       0.994125
      2 C                    -0.207547      -0.022848
      3 C                    -0.301171       0.010536
      4 C                    -0.317992       0.021854
      5 H                     0.003086       0.990102
      6 H                     0.108806       0.001910
      7 H                     0.116346      -0.000348
      8 H                     0.124880      -0.000708
      9 H                     0.117078       0.010835
     10 H                     0.122944      -0.001044
     11 H                     0.126191      -0.001086
     12 H                     0.133537      -0.003328
  --------------------------------------------------------
  Sum of atomic charges =     0.000000

                    Cartesian Multipole Moments
 -----------------------------------------------------------------
    Charge (ESU x 10^10)
                 0.0000
    Dipole Moment (Debye)
         X      -1.7691      Y      -0.0135      Z      -1.0892
       Tot       2.0775
    Quadrupole Moments (Debye-Ang)
        XX     -37.6653     XY      -0.6960     YY     -33.2760
        XZ      -1.7604     YZ       0.5119     ZZ     -36.5876

 Final energy is   -517.198634324948
 **  OPTIMIZATION CONVERGED  **
 Total job time:  203.69s(wall), 2292.31s(cpu)
        *  Thank you very much for using Q-Chem.  Have a nice day.  *
