 Q-Chem 5.1, Q-Chem, Inc., Pleasanton, CA (2018)
 Q-Chem 5.1.1 for Intel X86 EM64T Linux

User input:
--------------------------------------------------------------

$comment
potential surface scanner
$end

$rem
JOBTYPE  PES_SCAN
UNRESTRICTED TRUE
SYM_IGNORE  TRUE
GEOM_OPT_MAX_CYCLES 400
SCF_MAX_CYCLES 400
METHOD   B3LYP
BASIS   6-31G**
PDB_PRINT 2
SCF_CONVERGENCE 6
THRESH 14
SCF_PRINT 1
$end
$molecule
0 3
S 1.580636 -0.172121 1.403760
C -0.069899 0.034704 -0.326257
C -0.660652 -1.284205 0.190700
C -0.756350 1.301439 0.199477
H -0.274504 0.019929 -1.418481
H -1.702463 -1.354556 -0.143715
H -0.122121 -2.150451 -0.202924
H -0.678513 -1.354724 1.284260
H -1.787540 1.343673 -0.169694
H -0.243561 2.202072 -0.152413
H -0.782423 1.335188 1.290491
H 1.027287 0.079853 -0.392793
$end
$scan
stre 1 2 2.300000 2.301000 0.100000
$end
--------------------------------------------------------------

    9    -517.2221706245      9.90e-07  Convergence criterion met
 Total energy in the final basis set =     -517.2221706245
   10    -517.2097888424      7.15e-07  Convergence criterion met
 Total energy in the final basis set =     -517.2097888424
   10    -517.2101752124      7.12e-07  Convergence criterion met
 Total energy in the final basis set =     -517.2101752124
   10    -517.2102970238      7.87e-07  Convergence criterion met
 Total energy in the final basis set =     -517.2102970238
   10    -517.2103493906      8.42e-07  Convergence criterion met
 Total energy in the final basis set =     -517.2103493906
   10    -517.2104009733      9.17e-07  Convergence criterion met
 Total energy in the final basis set =     -517.2104009733
   10    -517.2104125325      9.36e-07  Convergence criterion met
 Total energy in the final basis set =     -517.2104125325
   10    -517.2104164516      9.36e-07  Convergence criterion met
 Total energy in the final basis set =     -517.2104164516
   10    -517.2104213341      9.33e-07  Convergence criterion met
 Total energy in the final basis set =     -517.2104213341
   10    -517.2104295020      9.29e-07  Convergence criterion met
 Total energy in the final basis set =     -517.2104295020
   10    -517.2104391748      9.32e-07  Convergence criterion met
 Total energy in the final basis set =     -517.2104391748
   10    -517.2104460675      9.45e-07  Convergence criterion met
 Total energy in the final basis set =     -517.2104460675
   10    -517.2104483965      9.59e-07  Convergence criterion met
 Total energy in the final basis set =     -517.2104483965

             Standard Nuclear Orientation (Angstroms)
    I     Atom           X                Y                Z
 ----------------------------------------------------------------
    1      S       1.5232031395    -0.1473578297     1.3546465213
    2      C      -0.0575793851     0.0332285042    -0.3062315762
    3      C      -0.6504783401    -1.2919115673     0.2037360494
    4      C      -0.7475911215     1.3053320265     0.2099384564
    5      H      -0.3107597815     0.0136828781    -1.3944018047
    6      H      -1.6843362301    -1.3672760231    -0.1536537105
    7      H      -0.0986749897    -2.1541461363    -0.1795606677
    8      H      -0.6902580273    -1.3623071997     1.2965418327
    9      H      -1.7593787436     1.3729725780    -0.2062354817
   10      H      -0.2029073283     2.2014230536    -0.1028022619
   11      H      -0.8214518891     1.3222398450     1.2988175810
   12      H       1.0301096966     0.0749208707    -0.4583839384
 ----------------------------------------------------------------

   10    -517.2104488042      9.66e-07  Convergence criterion met
 Total energy in the final basis set =     -517.2104488042

                    Orbital Energies (a.u.)
 --------------------------------------------------------------

 Alpha MOs
 -- Occupied --
-88.882 -10.210 -10.193 -10.182  -7.945  -5.914  -5.912  -5.896
 -0.815  -0.698  -0.693  -0.610  -0.476  -0.457  -0.415  -0.401
 -0.377  -0.357  -0.349  -0.287  -0.251  -0.224

 Beta MOs
 -- Occupied --
-88.872 -10.208 -10.193 -10.182  -7.935  -5.894  -5.893  -5.889
 -0.805  -0.695  -0.635  -0.589  -0.456  -0.451  -0.413  -0.395
 -0.366  -0.355  -0.336  -0.226

          Ground-State Mulliken Net Atomic Charges

     Atom                 Charge (a.u.)    Spin (a.u.)
  --------------------------------------------------------
      1 S                    -0.101204       1.800305
      2 C                    -0.283736       0.077099
      3 C                    -0.321746       0.015989
      4 C                    -0.283528      -0.002214
      5 H                     0.111947       0.073398
      6 H                     0.120167       0.023020
      7 H                     0.127572      -0.000724
      8 H                     0.130833      -0.000991
      9 H                     0.102926      -0.001332
     10 H                     0.109587       0.000573
     11 H                     0.131256      -0.000339
     12 H                     0.155925       0.015218
  --------------------------------------------------------
  Sum of atomic charges =    -0.000000

                    Cartesian Multipole Moments
 -----------------------------------------------------------------
    Charge (ESU x 10^10)
                -0.0000
    Dipole Moment (Debye)
         X      -1.4183      Y       0.0605      Z      -1.3522
       Tot       1.9605
    Quadrupole Moments (Debye-Ang)
        XX     -36.7594     XY       1.6111     YY     -33.7345
        XZ      -2.0480     YZ      -0.3034     ZZ     -36.0265

 Final energy is   -517.210448804163
 **  OPTIMIZATION CONVERGED  **
 Total job time:  45.22s(wall), 525.26s(cpu)
        *  Thank you very much for using Q-Chem.  Have a nice day.  *
