 Q-Chem 5.1, Q-Chem, Inc., Pleasanton, CA (2018)
 Q-Chem 5.1.1 for Intel X86 EM64T Linux

User input:
--------------------------------------------------------------

$comment
potential surface scanner
$end

$rem
JOBTYPE  PES_SCAN
UNRESTRICTED TRUE
SYM_IGNORE  TRUE
GEOM_OPT_MAX_CYCLES 400
SCF_MAX_CYCLES 400
METHOD   B3LYP
BASIS   6-31G**
PDB_PRINT 2
SCF_CONVERGENCE 6
THRESH 14
SCF_PRINT 1
$end
$molecule
0 1
S 2.161126 -0.000326 0.192560
C -0.364438 0.000076 -0.425117
C -0.880453 -1.290892 0.122127
C -0.880065 1.291175 0.122180
H -0.130225 0.000064 -1.486477
H -1.927448 -1.412393 -0.203787
H -0.312031 -2.145153 -0.247168
H -0.878846 -1.301757 1.215287
H -1.927020 1.413005 -0.203740
H -0.311379 2.145279 -0.247072
H -0.878469 1.301991 1.215341
H 1.859145 -0.000264 1.508267
$end
$scan
stre 1 2 2.700000 2.701000 0.100000
$end
--------------------------------------------------------------

    9    -517.2895019523      3.69e-07  Convergence criterion met
 Total energy in the final basis set =     -517.2895019523
    9    -517.2817212179      4.81e-07  Convergence criterion met
 Total energy in the final basis set =     -517.2817212179
    9    -517.2816663118      4.92e-07  Convergence criterion met
 Total energy in the final basis set =     -517.2816663118
    9    -517.2818323202      5.20e-07  Convergence criterion met
 Total energy in the final basis set =     -517.2818323202
    9    -517.2818459311      5.27e-07  Convergence criterion met
 Total energy in the final basis set =     -517.2818459311
    9    -517.2818530467      5.32e-07  Convergence criterion met
 Total energy in the final basis set =     -517.2818530467
    9    -517.2818540934      5.32e-07  Convergence criterion met
 Total energy in the final basis set =     -517.2818540934

             Standard Nuclear Orientation (Angstroms)
    I     Atom           X                Y                Z
 ----------------------------------------------------------------
    1      S       2.2259822989    -0.0003305950     0.2022840093
    2      C      -0.3982880388     0.0000822933    -0.4326984536
    3      C      -0.8942097800    -1.2922783109     0.1201673929
    4      C      -0.8938284943     1.2925679416     0.1202165676
    5      H      -0.1342678630     0.0000658353    -1.4862977339
    6      H      -1.9379001339    -1.4324202347    -0.2113238709
    7      H      -0.3110013362    -2.1397514075    -0.2413911752
    8      H      -0.8998636363    -1.2956590911     1.2132453747
    9      H      -1.9374696852     1.4330399195    -0.2112887323
   10      H      -0.3103557957     2.1398789961    -0.2412953723
   11      H      -0.8995040449     1.2959035333     1.2132944415
   12      H       1.9206035094    -0.0002938799     1.5174885521
 ----------------------------------------------------------------

    9    -517.2818548755      5.32e-07  Convergence criterion met
 Total energy in the final basis set =     -517.2818548755

                    Orbital Energies (a.u.)
 --------------------------------------------------------------

 Alpha MOs
 -- Occupied --
-88.842 -10.271 -10.207 -10.207  -7.901  -5.865  -5.864  -5.856
 -0.817  -0.720  -0.660  -0.596  -0.483  -0.454  -0.438  -0.413
 -0.384  -0.379  -0.351  -0.240  -0.210

 Beta MOs
 -- Occupied --
-88.842 -10.271 -10.207 -10.207  -7.901  -5.865  -5.864  -5.856
 -0.817  -0.720  -0.660  -0.596  -0.483  -0.454  -0.438  -0.413
 -0.384  -0.379  -0.351  -0.240  -0.210

          Ground-State Mulliken Net Atomic Charges

     Atom                 Charge (a.u.)    Spin (a.u.)
  --------------------------------------------------------
      1 S                    -0.350726      -0.000000
      2 C                    -0.017499      -0.000000
      3 C                    -0.327164       0.000000
      4 C                    -0.327164       0.000000
      5 H                     0.152999      -0.000000
      6 H                     0.124545      -0.000000
      7 H                     0.155617      -0.000000
      8 H                     0.133513      -0.000000
      9 H                     0.124545      -0.000000
     10 H                     0.155618      -0.000000
     11 H                     0.133512      -0.000000
     12 H                     0.042203       0.000000
  --------------------------------------------------------
  Sum of atomic charges =    -0.000000

                    Cartesian Multipole Moments
 -----------------------------------------------------------------
    Charge (ESU x 10^10)
                -0.0000
    Dipole Moment (Debye)
         X      -4.5585      Y       0.0007      Z       0.0461
       Tot       4.5587
    Quadrupole Moments (Debye-Ang)
        XX     -41.7774     XY       0.0011     YY     -34.1196
        XZ       0.9762     YZ      -0.0002     ZZ     -31.2896

 Final energy is   -517.281854875477
 **  OPTIMIZATION CONVERGED  **
 Total job time:  24.60s(wall), 275.36s(cpu)
        *  Thank you very much for using Q-Chem.  Have a nice day.  *
