 Q-Chem 5.1, Q-Chem, Inc., Pleasanton, CA (2018)
 Q-Chem 5.1.1 for Intel X86 EM64T Linux

User input:
--------------------------------------------------------------

$comment
potential surface scanner
$end

$rem
JOBTYPE  PES_SCAN
UNRESTRICTED TRUE
SYM_IGNORE  TRUE
GEOM_OPT_MAX_CYCLES 400
SCF_MAX_CYCLES 400
METHOD   B3LYP
BASIS   6-31G**
PDB_PRINT 2
SCF_CONVERGENCE 6
THRESH 14
SCF_PRINT 1
$end
$molecule
0 1
S 1.657900 -0.000200 0.107500
C -0.098900 0.000100 -0.384900
C -0.779700 -1.258900 0.138700
C -0.779300 1.259100 0.138700
H -0.135800 0.000100 -1.479400
H -1.829100 -1.282800 -0.175600
H -0.301500 -2.163300 -0.253500
H -0.763000 -1.307700 1.233500
H -1.828700 1.283400 -0.175500
H -0.300800 2.163400 -0.253400
H -0.762600 1.307800 1.233400
H 1.451400 -0.000200 1.432900
$end
$scan
stre 1 2 1.100000 1.101000 0.100000
$end
--------------------------------------------------------------

    9    -517.3397527088      2.29e-07  Convergence criterion met
 Total energy in the final basis set =     -517.3397527088
    9    -517.3268240487      2.00e-07  Convergence criterion met
 Total energy in the final basis set =     -517.3268240487
    8    -517.2850197798      8.54e-07  Convergence criterion met
 Total energy in the final basis set =     -517.2850197798
    8    -517.2071409035      7.12e-07  Convergence criterion met
 Total energy in the final basis set =     -517.2071409035
    8    -517.0816095185      8.21e-07  Convergence criterion met
 Total energy in the final basis set =     -517.0816095185
    9    -516.8768428141      4.88e-07  Convergence criterion met
 Total energy in the final basis set =     -516.8768428141
    9    -516.6791870293      6.72e-07  Convergence criterion met
 Total energy in the final basis set =     -516.6791870293
    9    -516.6115070071      7.45e-07  Convergence criterion met
    9    -516.5983212234      4.43e-07  Convergence criterion met
 Total energy in the final basis set =     -516.5983212234
    9    -516.5983249677      3.08e-07  Convergence criterion met
 Total energy in the final basis set =     -516.5983249677
    9    -516.5983274882      2.13e-07  Convergence criterion met
 Total energy in the final basis set =     -516.5983274882
    9    -516.5983293235      2.23e-07  Convergence criterion met
 Total energy in the final basis set =     -516.5983293235
    9    -516.5983312209      2.54e-07  Convergence criterion met
 Total energy in the final basis set =     -516.5983312209
    9    -516.5983329617      2.43e-07  Convergence criterion met
 Total energy in the final basis set =     -516.5983329617

             Standard Nuclear Orientation (Angstroms)
    I     Atom           X                Y                Z
 ----------------------------------------------------------------
    1      S       1.2905812870    -0.0001760217    -0.0583745325
    2      C       0.2069294885    -0.0000126961    -0.2473164452
    3      C      -0.7863310928    -1.2816676181     0.1491520759
    4      C      -0.7859490462     1.2819239707     0.1491979086
    5      H      -0.0433830495     0.0000444773    -1.3235661405
    6      H      -1.8102881884    -1.1907557819    -0.2224802396
    7      H      -0.3200782050    -2.1951270727    -0.2351495792
    8      H      -0.7994913448    -1.3288977672     1.2444432545
    9      H      -1.8099194910     1.1913468891    -0.2224794619
   10      H      -0.3193996832     2.1952603973    -0.2350345527
   11      H      -0.7991360413     1.3290928286     1.2444945807
   12      H       1.5063653668    -0.0002316052     1.3195131318
 ----------------------------------------------------------------

    9    -516.5983339194      2.11e-07  Convergence criterion met
 Total energy in the final basis set =     -516.5983339194

                    Orbital Energies (a.u.)
 --------------------------------------------------------------

 Alpha MOs
 -- Occupied --
-88.825 -10.216 -10.176 -10.176  -7.944  -5.912  -5.895  -5.889
 -0.966  -0.709  -0.684  -0.604  -0.480  -0.477  -0.454  -0.406
 -0.386  -0.384  -0.361  -0.265  -0.182

 Beta MOs
 -- Occupied --
-88.825 -10.216 -10.176 -10.176  -7.944  -5.912  -5.895  -5.889
 -0.966  -0.709  -0.684  -0.604  -0.480  -0.477  -0.454  -0.406
 -0.386  -0.384  -0.361  -0.265  -0.182

          Ground-State Mulliken Net Atomic Charges

     Atom                 Charge (a.u.)    Spin (a.u.)
  --------------------------------------------------------
      1 S                     0.176410       0.000000
      2 C                    -0.243344      -0.000000
      3 C                    -0.359273      -0.000000
      4 C                    -0.359272       0.000000
      5 H                     0.180729       0.000000
      6 H                     0.100876      -0.000000
      7 H                     0.102844       0.000000
      8 H                     0.105367       0.000000
      9 H                     0.100876      -0.000000
     10 H                     0.102844      -0.000000
     11 H                     0.105367       0.000000
     12 H                    -0.013424      -0.000000
  --------------------------------------------------------
  Sum of atomic charges =    -0.000000

                    Cartesian Multipole Moments
 -----------------------------------------------------------------
    Charge (ESU x 10^10)
                 0.0000
    Dipole Moment (Debye)
         X      -1.2644      Y       0.0002      Z      -0.2640
       Tot       1.2916
    Quadrupole Moments (Debye-Ang)
        XX     -36.9780     XY       0.0003     YY     -35.0598
        XZ       1.2659     YZ      -0.0003     ZZ     -31.4299

 Final energy is   -516.598333919415
 **  OPTIMIZATION CONVERGED  **
 Total job time:  86.80s(wall), 975.99s(cpu)
        *  Thank you very much for using Q-Chem.  Have a nice day.  *
