 Q-Chem 5.1, Q-Chem, Inc., Pleasanton, CA (2018)
 Q-Chem 5.1.1 for Intel X86 EM64T Linux

User input:
--------------------------------------------------------------

$comment
potential surface scanner
$end

$rem
JOBTYPE  PES_SCAN
UNRESTRICTED TRUE
SYM_IGNORE  TRUE
GEOM_OPT_MAX_CYCLES 400
SCF_MAX_CYCLES 400
METHOD   B3LYP
BASIS   6-31G**
PDB_PRINT 2
SCF_CONVERGENCE 6
THRESH 14
SCF_PRINT 1
$end
$molecule
0 3
S 1.708940 -0.221476 1.497819
C -0.092201 0.038581 -0.359132
C -0.681777 -1.271802 0.166779
C -0.774394 1.297676 0.179152
H -0.217269 0.030450 -1.456436
H -1.732390 -1.343929 -0.137574
H -0.154933 -2.143122 -0.232468
H -0.666681 -1.333105 1.261309
H -1.831861 1.303028 -0.108834
H -0.315502 2.203785 -0.229033
H -0.719413 1.354278 1.269211
H 1.007378 0.086437 -0.288381
$end
$scan
stre 1 2 2.500000 2.501000 0.100000
$end
--------------------------------------------------------------

   14    -517.2393278015      7.71e-07  Convergence criterion met
 Total energy in the final basis set =     -517.2393278015
   13    -517.2309799965      9.76e-07  Convergence criterion met
 Total energy in the final basis set =     -517.2309799965
   13    -517.2315239407      9.27e-07  Convergence criterion met
 Total energy in the final basis set =     -517.2315239407
   13    -517.2316427756      8.90e-07  Convergence criterion met
 Total energy in the final basis set =     -517.2316427756
   13    -517.2316559334      8.63e-07  Convergence criterion met
 Total energy in the final basis set =     -517.2316559334
   13    -517.2316786009      7.97e-07  Convergence criterion met
 Total energy in the final basis set =     -517.2316786009
   13    -517.2316911702      7.52e-07  Convergence criterion met
 Total energy in the final basis set =     -517.2316911702
   13    -517.2316981921      7.26e-07  Convergence criterion met
 Total energy in the final basis set =     -517.2316981921
   13    -517.2317006251      7.25e-07  Convergence criterion met
 Total energy in the final basis set =     -517.2317006251
   13    -517.2317027219      7.33e-07  Convergence criterion met
 Total energy in the final basis set =     -517.2317027219
   13    -517.2317052007      7.47e-07  Convergence criterion met
 Total energy in the final basis set =     -517.2317052007
   13    -517.2317079615      7.66e-07  Convergence criterion met
 Total energy in the final basis set =     -517.2317079615
   13    -517.2317097116      7.81e-07  Convergence criterion met
 Total energy in the final basis set =     -517.2317097116

             Standard Nuclear Orientation (Angstroms)
    I     Atom           X                Y                Z
 ----------------------------------------------------------------
    1      S       1.6442228856    -0.1950981070     1.4496387833
    2      C      -0.0816053154     0.0363922680    -0.3442204001
    3      C      -0.6711845781    -1.2774476498     0.1786012596
    4      C      -0.7654348737     1.2986969200     0.1890980813
    5      H      -0.2437129041     0.0251446476    -1.4394445440
    6      H      -1.7185292769    -1.3471138409    -0.1379146569
    7      H      -0.1409800666    -2.1469663531    -0.2196145967
    8      H      -0.6706960160    -1.3439662171     1.2727501836
    9      H      -1.8108134007     1.3220743026    -0.1394724061
   10      H      -0.2795159962     2.2027583698    -0.1912459068
   11      H      -0.7509280640     1.3431958516     1.2804437267
   12      H       1.0190746060     0.0831308084    -0.3362075239
 ----------------------------------------------------------------

   13    -517.2317101810      7.84e-07  Convergence criterion met
 Total energy in the final basis set =     -517.2317101810

                    Orbital Energies (a.u.)
 --------------------------------------------------------------

 Alpha MOs
 -- Occupied --
-88.893 -10.204 -10.188 -10.180  -7.955  -5.924  -5.923  -5.906
 -0.805  -0.700  -0.692  -0.605  -0.476  -0.451  -0.411  -0.396
 -0.372  -0.353  -0.346  -0.297  -0.259  -0.248

 Beta MOs
 -- Occupied --
-88.883 -10.201 -10.188 -10.180  -7.945  -5.904  -5.903  -5.899
 -0.797  -0.692  -0.630  -0.590  -0.457  -0.449  -0.409  -0.391
 -0.359  -0.351  -0.338  -0.233

          Ground-State Mulliken Net Atomic Charges

     Atom                 Charge (a.u.)    Spin (a.u.)
  --------------------------------------------------------
      1 S                    -0.088709       1.835709
      2 C                    -0.237972       0.110022
      3 C                    -0.319882       0.010593
      4 C                    -0.293295      -0.004183
      5 H                     0.111677       0.036566
      6 H                     0.116670       0.016682
      7 H                     0.121806      -0.000232
      8 H                     0.123651      -0.001166
      9 H                     0.103743       0.000600
     10 H                     0.106573       0.000618
     11 H                     0.128627       0.000072
     12 H                     0.127111      -0.005281
  --------------------------------------------------------
  Sum of atomic charges =    -0.000000

                    Cartesian Multipole Moments
 -----------------------------------------------------------------
    Charge (ESU x 10^10)
                -0.0000
    Dipole Moment (Debye)
         X      -1.2005      Y       0.0841      Z      -1.1149
       Tot       1.6405
    Quadrupole Moments (Debye-Ang)
        XX     -36.3207     XY       1.5867     YY     -34.0769
        XZ      -1.4950     YZ      -0.3829     ZZ     -35.6841

 Final energy is   -517.231710180998
 **  OPTIMIZATION CONVERGED  **
 Total job time:  55.29s(wall), 623.68s(cpu)
        *  Thank you very much for using Q-Chem.  Have a nice day.  *
