 Q-Chem 5.1, Q-Chem, Inc., Pleasanton, CA (2018)
 Q-Chem 5.1.1 for Intel X86 EM64T Linux

User input:
--------------------------------------------------------------

$comment
potential surface scanner
$end

$rem
JOBTYPE  PES_SCAN
UNRESTRICTED TRUE
SYM_IGNORE  TRUE
GEOM_OPT_MAX_CYCLES 400
SCF_MAX_CYCLES 400
METHOD   B3LYP
BASIS   6-31G**
PDB_PRINT 2
SCF_CONVERGENCE 6
THRESH 14
SCF_PRINT 1
$end
$molecule
0 3
S 2.587928 -0.008769 0.999993
C -0.133999 0.000740 -0.261364
C -0.841127 -1.281646 0.165940
C -0.841010 1.283505 0.164909
H 0.048623 0.000093 -1.343615
H -1.834525 -1.346610 -0.294733
H -0.276100 -2.170496 -0.129809
H -0.979552 -1.314801 1.252118
H -1.834425 1.348221 -0.295798
H -0.275956 2.172127 -0.131504
H -0.979126 1.317578 1.251062
H 0.889164 0.000859 0.185211
$end
$scan
stre 1 2 2.900000 2.901000 0.100000
$end
--------------------------------------------------------------

    9    -517.2543876588      6.39e-07  Convergence criterion met
 Total energy in the final basis set =     -517.2543876588
    9    -517.2500273895      6.08e-07  Convergence criterion met
 Total energy in the final basis set =     -517.2500273895
    9    -517.2508529319      6.41e-07  Convergence criterion met
 Total energy in the final basis set =     -517.2508529319
    9    -517.2511253074      6.75e-07  Convergence criterion met
 Total energy in the final basis set =     -517.2511253074
    9    -517.2511386320      6.83e-07  Convergence criterion met
 Total energy in the final basis set =     -517.2511386320
    9    -517.2511406412      6.86e-07  Convergence criterion met
 Total energy in the final basis set =     -517.2511406412

             Standard Nuclear Orientation (Angstroms)
    I     Atom           X                Y                Z
 ----------------------------------------------------------------
    1      S       2.4990602840    -0.0112910904     0.9649443515
    2      C      -0.1301880172     0.0012436203    -0.2585327759
    3      C      -0.8326304302    -1.2823635240     0.1691209285
    4      C      -0.8335414141     1.2846637734     0.1677455134
    5      H       0.0617212050     0.0001837804    -1.3392411082
    6      H      -1.8245766801    -1.3515969629    -0.2942227108
    7      H      -0.2632862402    -2.1692087353    -0.1240536824
    8      H      -0.9741027360    -1.3139276627     1.2549462185
    9      H      -1.8254807549     1.3528629451    -0.2958604924
   10      H      -0.2648514314     2.1717569315    -0.1259913658
   11      H      -0.9744612525     1.3172471069     1.2535156881
   12      H       0.8922324677     0.0012308175     0.1900394356
 ----------------------------------------------------------------

    9    -517.2511411665      6.87e-07  Convergence criterion met
 Total energy in the final basis set =     -517.2511411665

                    Orbital Energies (a.u.)
 --------------------------------------------------------------

 Alpha MOs
 -- Occupied --
-88.902 -10.203 -10.184 -10.184  -7.963  -5.932  -5.930  -5.914
 -0.800  -0.708  -0.692  -0.600  -0.477  -0.449  -0.410  -0.391
 -0.375  -0.352  -0.348  -0.312  -0.264  -0.257

 Beta MOs
 -- Occupied --
-88.892 -10.198 -10.184 -10.184  -7.953  -5.912  -5.911  -5.908
 -0.793  -0.691  -0.637  -0.584  -0.464  -0.446  -0.408  -0.389
 -0.352  -0.350  -0.344  -0.239

          Ground-State Mulliken Net Atomic Charges

     Atom                 Charge (a.u.)    Spin (a.u.)
  --------------------------------------------------------
      1 S                    -0.063443       1.796755
      2 C                    -0.136870       0.226194
      3 C                    -0.311265      -0.004761
      4 C                    -0.309826      -0.004794
      5 H                     0.114459      -0.000547
      6 H                     0.112557       0.012381
      7 H                     0.116720       0.001400
      8 H                     0.111014       0.001645
      9 H                     0.112038       0.012329
     10 H                     0.115857       0.001408
     11 H                     0.111698       0.001678
     12 H                     0.027060      -0.043690
  --------------------------------------------------------
  Sum of atomic charges =     0.000000

                    Cartesian Multipole Moments
 -----------------------------------------------------------------
    Charge (ESU x 10^10)
                 0.0000
    Dipole Moment (Debye)
         X      -1.5776      Y       0.0071      Z      -0.6460
       Tot       1.7048
    Quadrupole Moments (Debye-Ang)
        XX     -37.4000     XY       0.1452     YY     -35.7152
        XZ      -1.6898     YZ      -0.2674     ZZ     -33.7206

 Final energy is   -517.251141166540
 **  OPTIMIZATION CONVERGED  **
 Total job time:  20.47s(wall), 234.10s(cpu)
        *  Thank you very much for using Q-Chem.  Have a nice day.  *
