 Q-Chem 5.1, Q-Chem, Inc., Pleasanton, CA (2018)
 Q-Chem 5.1.1 for Intel X86 EM64T Linux

User input:
--------------------------------------------------------------

$comment
potential surface scanner
$end

$rem
JOBTYPE  PES_SCAN
UNRESTRICTED TRUE
SYM_IGNORE  TRUE
GEOM_OPT_MAX_CYCLES 400
SCF_MAX_CYCLES 400
METHOD   B3LYP
BASIS   6-31G**
PDB_PRINT 2
SCF_CONVERGENCE 6
THRESH 14
SCF_PRINT 1
$end
$molecule
0 3
S 2.499060 -0.011291 0.964944
C -0.130188 0.001244 -0.258533
C -0.832630 -1.282364 0.169121
C -0.833541 1.284664 0.167746
H 0.061721 0.000184 -1.339241
H -1.824577 -1.351597 -0.294223
H -0.263286 -2.169209 -0.124054
H -0.974103 -1.313928 1.254946
H -1.825481 1.352863 -0.295860
H -0.264851 2.171757 -0.125991
H -0.974461 1.317247 1.253516
H 0.892232 0.001231 0.190039
$end
$scan
stre 1 2 2.800000 2.801000 0.100000
$end
--------------------------------------------------------------

    9    -517.2511411537      6.87e-07  Convergence criterion met
 Total energy in the final basis set =     -517.2511411537
    9    -517.2451701519      6.77e-07  Convergence criterion met
 Total energy in the final basis set =     -517.2451701519
    9    -517.2458373374      7.12e-07  Convergence criterion met
 Total energy in the final basis set =     -517.2458373374
    9    -517.2460545066      7.66e-07  Convergence criterion met
 Total energy in the final basis set =     -517.2460545066
    9    -517.2460723713      8.15e-07  Convergence criterion met
 Total energy in the final basis set =     -517.2460723713
    9    -517.2460848718      9.00e-07  Convergence criterion met
 Total energy in the final basis set =     -517.2460848718
   10    -517.2461152222      8.35e-07  Convergence criterion met
 Total energy in the final basis set =     -517.2461152222
   10    -517.2461631339      9.54e-07  Convergence criterion met
   15    -517.2497196925      7.62e-07  Convergence criterion met
 Total energy in the final basis set =     -517.2497196925
   15    -517.2497326409      7.75e-07  Convergence criterion met
 Total energy in the final basis set =     -517.2497326409
   15    -517.2497489605      7.96e-07  Convergence criterion met
 Total energy in the final basis set =     -517.2497489605
   15    -517.2497587742      8.96e-07  Convergence criterion met
 Total energy in the final basis set =     -517.2497587742
   15    -517.2497618626      9.27e-07  Convergence criterion met
 Total energy in the final basis set =     -517.2497618626
   15    -517.2497627342      9.56e-07  Convergence criterion met
 Total energy in the final basis set =     -517.2497627342

             Standard Nuclear Orientation (Angstroms)
    I     Atom           X                Y                Z
 ----------------------------------------------------------------
    1      S       1.8813766619    -0.2493358311     1.5599465052
    2      C      -0.1144665118     0.0404225736    -0.3823846394
    3      C      -0.7029494627    -1.2645847178     0.1533758205
    4      C      -0.7944991916     1.2960693345     0.1631955456
    5      H      -0.1921890035     0.0353613358    -1.4805392442
    6      H      -1.7553812877    -1.3486822620    -0.1411536531
    7      H      -0.1744138829    -2.1392907518    -0.2373472818
    8      H      -0.6731816452    -1.3084547198     1.2487692432
    9      H      -1.8565201659     1.3024979219    -0.1080432083
   10      H      -0.3421638192     2.2058953907    -0.2440522693
   11      H      -0.7247806442     1.3445467478     1.2539143048
   12      H       0.9790639528     0.0863559782    -0.2232711232
 ----------------------------------------------------------------

   15    -517.2497631739      9.63e-07  Convergence criterion met
 Total energy in the final basis set =     -517.2497631739

                    Orbital Energies (a.u.)
 --------------------------------------------------------------

 Alpha MOs
 -- Occupied --
-88.908 -10.198 -10.183 -10.178  -7.968  -5.938  -5.937  -5.919
 -0.795  -0.707  -0.688  -0.598  -0.472  -0.445  -0.406  -0.389
 -0.364  -0.347  -0.343  -0.310  -0.275  -0.267

 Beta MOs
 -- Occupied --
-88.897 -10.196 -10.183 -10.178  -7.958  -5.918  -5.917  -5.913
 -0.790  -0.687  -0.626  -0.589  -0.459  -0.444  -0.405  -0.387
 -0.349  -0.346  -0.337  -0.241

          Ground-State Mulliken Net Atomic Charges

     Atom                 Charge (a.u.)    Spin (a.u.)
  --------------------------------------------------------
      1 S                    -0.064558       1.878405
      2 C                    -0.190283       0.110539
      3 C                    -0.316988       0.004936
      4 C                    -0.304479      -0.003060
      5 H                     0.108542       0.014135
      6 H                     0.111622       0.009030
      7 H                     0.114655       0.000196
      8 H                     0.114686      -0.001152
      9 H                     0.104888       0.002670
     10 H                     0.104858       0.000501
     11 H                     0.122753       0.000537
     12 H                     0.094305      -0.016739
  --------------------------------------------------------
  Sum of atomic charges =     0.000000

                    Cartesian Multipole Moments
 -----------------------------------------------------------------
    Charge (ESU x 10^10)
                 0.0000
    Dipole Moment (Debye)
         X      -0.9140      Y       0.0939      Z      -0.7755
       Tot       1.2024
    Quadrupole Moments (Debye-Ang)
        XX     -35.8710     XY       1.4076     YY     -34.3357
        XZ      -0.7289     YZ      -0.5582     ZZ     -35.2389

 Final energy is   -517.249763173860
 **  OPTIMIZATION CONVERGED  **
 Total job time:  158.23s(wall), 1859.88s(cpu)
        *  Thank you very much for using Q-Chem.  Have a nice day.  *
