 Q-Chem 5.1, Q-Chem, Inc., Pleasanton, CA (2018)
 Q-Chem 5.1.1 for Intel X86 EM64T Linux

User input:
--------------------------------------------------------------

$comment
potential surface scanner
$end

$rem
JOBTYPE  PES_SCAN
UNRESTRICTED TRUE
SYM_IGNORE  TRUE
GEOM_OPT_MAX_CYCLES 400
SCF_MAX_CYCLES 400
METHOD   B3LYP
BASIS   6-31G**
PDB_PRINT 2
SCF_CONVERGENCE 6
THRESH 14
SCF_PRINT 1
$end
$molecule
0 3
S 4.350530 -0.000534 0.079795
C -0.646589 0.000323 -0.089892
C -1.360791 -1.298308 0.083592
C -1.360988 1.298878 0.083333
H 0.326648 0.000345 -0.574372
H -2.074016 -1.492746 -0.737348
H -0.670021 -2.146850 0.111258
H -1.954429 -1.313525 1.008296
H -2.073933 1.493247 -0.737867
H -0.670315 2.147493 0.111243
H -1.954953 1.314033 1.007825
H 3.618756 -0.001555 1.216540
$end
$scan
stre 1 2 4.900000 4.901000 0.100000
$end
--------------------------------------------------------------

    9    -517.2317853378      8.69e-07  Convergence criterion met
 Total energy in the final basis set =     -517.2317853378
    9    -517.2305244165      8.33e-07  Convergence criterion met
 Total energy in the final basis set =     -517.2305244165
    9    -517.2315378577      8.49e-07  Convergence criterion met
 Total energy in the final basis set =     -517.2315378577
    9    -517.2318163194      8.68e-07  Convergence criterion met
 Total energy in the final basis set =     -517.2318163194
    9    -517.2318206140      8.70e-07  Convergence criterion met
 Total energy in the final basis set =     -517.2318206140

             Standard Nuclear Orientation (Angstroms)
    I     Atom           X                Y                Z
 ----------------------------------------------------------------
    1      S       4.2628884643    -0.0006049349     0.0969037420
    2      C      -0.6326635220     0.0003061809    -0.1118303721
    3      C      -1.3410562415    -1.2983334617     0.0839437356
    4      C      -1.3412289253     1.2988833326     0.0837233011
    5      H       0.3257570369     0.0003226331    -0.6250018556
    6      H      -2.0784085883    -1.4937611792    -0.7151707412
    7      H      -0.6495571157    -2.1467060944     0.0916541171
    8      H      -1.9069276919    -1.3127991485     1.0259045806
    9      H      -2.0783380640     1.4942561256    -0.7156295561
   10      H      -0.6498034778     2.1473159136     0.0916558253
   11      H      -1.9073959770     1.3132950013     1.0255046016
   12      H       3.5266331023    -0.0013733684     1.2307456218
 ----------------------------------------------------------------

    9    -517.2318209747      8.70e-07  Convergence criterion met
 Total energy in the final basis set =     -517.2318209747

                    Orbital Energies (a.u.)
 --------------------------------------------------------------

 Alpha MOs
 -- Occupied --
-88.911 -10.185 -10.176 -10.176  -7.973  -5.944  -5.934  -5.925
 -0.776  -0.739  -0.687  -0.566  -0.447  -0.424  -0.413  -0.404
 -0.381  -0.350  -0.344  -0.321  -0.273  -0.178

 Beta MOs
 -- Occupied --
-88.906 -10.177 -10.177 -10.171  -7.967  -5.931  -5.926  -5.922
 -0.759  -0.699  -0.684  -0.545  -0.442  -0.407  -0.399  -0.399
 -0.375  -0.347  -0.338  -0.259

          Ground-State Mulliken Net Atomic Charges

     Atom                 Charge (a.u.)    Spin (a.u.)
  --------------------------------------------------------
      1 S                    -0.075443       1.027702
      2 C                    -0.080135       1.018975
      3 C                    -0.333414      -0.080079
      4 C                    -0.333414      -0.080077
      5 H                     0.096526      -0.046578
      6 H                     0.109964       0.062332
      7 H                     0.108038       0.006031
      8 H                     0.106642       0.025389
      9 H                     0.109966       0.062336
     10 H                     0.108045       0.006041
     11 H                     0.106638       0.025370
     12 H                     0.076586      -0.027442
  --------------------------------------------------------
  Sum of atomic charges =    -0.000000

                    Cartesian Multipole Moments
 -----------------------------------------------------------------
    Charge (ESU x 10^10)
                 0.0000
    Dipole Moment (Debye)
         X      -0.6918      Y      -0.0006      Z       0.7343
       Tot       1.0088
    Quadrupole Moments (Debye-Ang)
        XX     -39.4607     XY      -0.0013     YY     -33.1216
        XZ       1.6985     YZ      -0.0007     ZZ     -33.8165

 Final energy is   -517.231820974739
 **  OPTIMIZATION CONVERGED  **
 Total job time:  16.24s(wall), 184.34s(cpu)
        *  Thank you very much for using Q-Chem.  Have a nice day.  *
