 Q-Chem 5.1, Q-Chem, Inc., Pleasanton, CA (2018)
 Q-Chem 5.1.1 for Intel X86 EM64T Linux

User input:
--------------------------------------------------------------

$comment
potential surface scanner
$end

$rem
JOBTYPE  PES_SCAN
UNRESTRICTED TRUE
SYM_IGNORE  TRUE
GEOM_OPT_MAX_CYCLES 400
SCF_MAX_CYCLES 400
METHOD   B3LYP
BASIS   6-31G**
PDB_PRINT 2
SCF_CONVERGENCE 6
THRESH 14
SCF_PRINT 1
$end
$molecule
0 3
S 4.085960 -0.000711 0.131455
C -0.605380 0.000289 -0.153715
C -1.300292 -1.298433 0.084952
C -1.300449 1.298955 0.084789
H 0.320245 0.000306 -0.724192
H -2.082985 -1.495959 -0.669312
H -0.608774 -2.146276 0.053271
H -1.810189 -1.311814 1.058348
H -2.082969 1.496426 -0.669669
H -0.608989 2.146853 0.053280
H -1.810581 1.312291 1.058061
H 3.334300 -0.001124 1.255136
$end
$scan
stre 1 2 4.600000 4.601000 0.100000
$end
--------------------------------------------------------------

    9    -517.2318868297      8.73e-07  Convergence criterion met
 Total energy in the final basis set =     -517.2318868297
    9    -517.2309047671      8.38e-07  Convergence criterion met
 Total energy in the final basis set =     -517.2309047671
    9    -517.2316904922      8.55e-07  Convergence criterion met
 Total energy in the final basis set =     -517.2316904922
    9    -517.2319110929      8.72e-07  Convergence criterion met
 Total energy in the final basis set =     -517.2319110929
    9    -517.2319146723      8.74e-07  Convergence criterion met
 Total energy in the final basis set =     -517.2319146723
    9    -517.2319158975      8.74e-07  Convergence criterion met
 Total energy in the final basis set =     -517.2319158975
    9    -517.2319215685      8.76e-07  Convergence criterion met
 Total energy in the final basis set =     -517.2319215685
    9    -517.2319305863      8.77e-07  Convergence criterion met
    9    -517.2329702203      9.07e-07  Convergence criterion met
 Total energy in the final basis set =     -517.2329702203
    9    -517.2330363281      9.04e-07  Convergence criterion met
 Total energy in the final basis set =     -517.2330363281
    9    -517.2330952553      9.06e-07  Convergence criterion met
 Total energy in the final basis set =     -517.2330952553
    9    -517.2331066852      9.10e-07  Convergence criterion met
 Total energy in the final basis set =     -517.2331066852
    9    -517.2331101243      9.17e-07  Convergence criterion met
 Total energy in the final basis set =     -517.2331101243
    9    -517.2331114815      9.16e-07  Convergence criterion met
 Total energy in the final basis set =     -517.2331114815

             Standard Nuclear Orientation (Angstroms)
    I     Atom           X                Y                Z
 ----------------------------------------------------------------
    1      S       3.7373034538     0.0132033204     1.1318002663
    2      C      -0.5946801510    -0.0033283957    -0.4153405668
    3      C      -1.1398304326    -1.3004947015     0.0833160076
    4      C      -1.1295633356     1.2970494429     0.0861300957
    5      H      -0.0345158834    -0.0045688763    -1.3480178515
    6      H      -2.1429200274    -1.5102977991    -0.3289481525
    7      H      -0.5029987621    -2.1478034812    -0.1905709297
    8      H      -1.2540062373    -1.2967059455     1.1751478128
    9      H      -2.1319657905     1.5146029099    -0.3237912865
   10      H      -0.4872312074     2.1401572130    -0.1878451392
   11      H      -1.2416743019     1.2925989781     1.1781976590
   12      H       2.4519796755     0.0063903351     0.7023260847
 ----------------------------------------------------------------

    9    -517.2331115661      9.16e-07  Convergence criterion met
 Total energy in the final basis set =     -517.2331115661

                    Orbital Energies (a.u.)
 --------------------------------------------------------------

 Alpha MOs
 -- Occupied --
-88.906 -10.195 -10.183 -10.183  -7.967  -5.939  -5.929  -5.920
 -0.784  -0.733  -0.693  -0.574  -0.454  -0.432  -0.411  -0.407
 -0.388  -0.358  -0.351  -0.316  -0.269  -0.188

 Beta MOs
 -- Occupied --
-88.900 -10.184 -10.184 -10.182  -7.962  -5.926  -5.921  -5.917
 -0.767  -0.693  -0.691  -0.553  -0.449  -0.414  -0.405  -0.393
 -0.382  -0.354  -0.346  -0.254

          Ground-State Mulliken Net Atomic Charges

     Atom                 Charge (a.u.)    Spin (a.u.)
  --------------------------------------------------------
      1 S                    -0.086312       1.032265
      2 C                    -0.082674       1.005833
      3 C                    -0.335238      -0.077621
      4 C                    -0.335322      -0.077636
      5 H                     0.091791      -0.044319
      6 H                     0.113848       0.064274
      7 H                     0.110913       0.007981
      8 H                     0.110949       0.019846
      9 H                     0.113867       0.064305
     10 H                     0.110872       0.007910
     11 H                     0.110961       0.019955
     12 H                     0.076346      -0.022793
  --------------------------------------------------------
  Sum of atomic charges =     0.000000

                    Cartesian Multipole Moments
 -----------------------------------------------------------------
    Charge (ESU x 10^10)
                 0.0000
    Dipole Moment (Debye)
         X      -1.5389      Y      -0.0055      Z      -0.4552
       Tot       1.6048
    Quadrupole Moments (Debye-Ang)
        XX     -40.7954     XY      -0.0444     YY     -32.9353
        XZ      -1.7977     YZ       0.0428     ZZ     -36.4828

 Final energy is   -517.233111566083
 **  OPTIMIZATION CONVERGED  **
 Total job time:  103.73s(wall), 1209.84s(cpu)
        *  Thank you very much for using Q-Chem.  Have a nice day.  *
