 Q-Chem 5.1, Q-Chem, Inc., Pleasanton, CA (2018)
 Q-Chem 5.1.1 for Intel X86 EM64T Linux

User input:
--------------------------------------------------------------

$comment
potential surface scanner
$end

$rem
JOBTYPE  PES_SCAN
UNRESTRICTED TRUE
SYM_IGNORE  TRUE
GEOM_OPT_MAX_CYCLES 400
SCF_MAX_CYCLES 400
METHOD   B3LYP
BASIS   6-31G**
PDB_PRINT 2
SCF_CONVERGENCE 6
THRESH 14
SCF_PRINT 1
$end
$molecule
0 1
S 1.667806 -0.000236 0.061182
C -0.087254 0.000032 -0.338523
C -0.799958 -1.270843 0.139649
C -0.799579 1.271101 0.139697
H -0.081334 0.000052 -1.435967
H -1.843329 -1.275460 -0.196804
H -0.307879 -2.168876 -0.241799
H -0.802813 -1.326094 1.234315
H -1.842943 1.276056 -0.196777
H -0.307216 2.169001 -0.241697
H -0.802439 1.326296 1.234366
H 1.536837 -0.000229 1.404758
$end
$scan
stre 1 2 1.900000 1.901000 0.100000
$end
--------------------------------------------------------------

    9    -517.3407014914      2.13e-07  Convergence criterion met
 Total energy in the final basis set =     -517.3407014914
    9    -517.3409578131      2.25e-07  Convergence criterion met
 Total energy in the final basis set =     -517.3409578131
    9    -517.3412183897      2.26e-07  Convergence criterion met
 Total energy in the final basis set =     -517.3412183897
    9    -517.3412747130      2.28e-07  Convergence criterion met
 Total energy in the final basis set =     -517.3412747130
    9    -517.3412776021      2.28e-07  Convergence criterion met
 Total energy in the final basis set =     -517.3412776021

             Standard Nuclear Orientation (Angstroms)
    I     Atom           X                Y                Z
 ----------------------------------------------------------------
    1      S       1.7276709292    -0.0002450156     0.0776945880
    2      C      -0.1230854380     0.0000353607    -0.3520734739
    3      C      -0.8072930948    -1.2741490679     0.1381947888
    4      C      -0.8069102787     1.2744067133     0.1382441234
    5      H      -0.0917378817     0.0000520042    -1.4470572117
    6      H      -1.8518465586    -1.2938151187    -0.1967076934
    7      H      -0.3058390939    -2.1675594037    -0.2408472105
    8      H      -0.8089761550    -1.3233702531     1.2327148260
    9      H      -1.8514522383     1.2944140223    -0.1966761179
   10      H      -0.3051745120     2.1676824401    -0.2407429460
   11      H      -0.8085972416     1.3235720413     1.2327671006
   12      H       1.5631405636    -0.0002237229     1.4168892267
 ----------------------------------------------------------------

    9    -517.3412778122      2.28e-07  Convergence criterion met
 Total energy in the final basis set =     -517.3412778122

                    Orbital Energies (a.u.)
 --------------------------------------------------------------

 Alpha MOs
 -- Occupied --
-88.867 -10.230 -10.185 -10.185  -7.930  -5.894  -5.891  -5.884
 -0.812  -0.701  -0.694  -0.579  -0.462  -0.444  -0.417  -0.393
 -0.387  -0.354  -0.345  -0.309  -0.233

 Beta MOs
 -- Occupied --
-88.867 -10.230 -10.185 -10.185  -7.930  -5.894  -5.891  -5.884
 -0.812  -0.701  -0.694  -0.579  -0.462  -0.444  -0.417  -0.393
 -0.387  -0.354  -0.345  -0.309  -0.233

          Ground-State Mulliken Net Atomic Charges

     Atom                 Charge (a.u.)    Spin (a.u.)
  --------------------------------------------------------
      1 S                    -0.068447      -0.000000
      2 C                    -0.207259      -0.000000
      3 C                    -0.296397      -0.000000
      4 C                    -0.296399       0.000000
      5 H                     0.135812       0.000000
      6 H                     0.106848       0.000000
      7 H                     0.124714       0.000000
      8 H                     0.107339      -0.000000
      9 H                     0.106849      -0.000000
     10 H                     0.124714       0.000000
     11 H                     0.107338      -0.000000
     12 H                     0.054888       0.000000
  --------------------------------------------------------
  Sum of atomic charges =    -0.000000

                    Cartesian Multipole Moments
 -----------------------------------------------------------------
    Charge (ESU x 10^10)
                 0.0000
    Dipole Moment (Debye)
         X      -1.8639      Y       0.0003      Z       0.4335
       Tot       1.9136
    Quadrupole Moments (Debye-Ang)
        XX     -37.4697     XY       0.0003     YY     -35.2199
        XZ       1.6063     YZ      -0.0002     ZZ     -31.6600

 Final energy is   -517.341277812222
 **  OPTIMIZATION CONVERGED  **
 Total job time:  18.85s(wall), 210.47s(cpu)
        *  Thank you very much for using Q-Chem.  Have a nice day.  *
