 Q-Chem 5.0, Q-Chem, Inc., Pleasanton, CA (2017)
 Q-Chem 5.0.0 for Intel X86 Linux

User input:
--------------------------------------------------------------
$comment
A single point DFT calculation in with basis
Mo
lanl2dz
**** set projection
$end

$molecule
0  1
C    -0.98640     0.00000     0.69120
C     0.53630     0.00010     0.53380
C    -1.78450    -0.00010    -0.60800
Cl    1.11730    -1.45760    -0.30850
Cl    1.11720     1.45760    -0.30860
H    -1.28430     0.87690     1.28000
H    -1.28420    -0.87680     1.28010
H     1.00350     0.00010     1.52300
H    -1.57530    -0.88750    -1.21210
H    -2.85630    -0.00010    -0.38330
H    -1.57540     0.88740    -1.21220
$end

$rem
JOBTYPE  OPT
UNRESTRICTED TRUE
SYM_IGNORE  TRUE
GEOM_OPT_MAX_CYCLES 400
SCF_MAX_CYCLES 400
METHOD   B3LYP
BASIS   6-31G**
PDB_PRINT 2
SCF_CONVERGENCE 8
THRESH 10
SCF_PRINT 1
$end

--------------------------------------------------------------

   12   -1038.3366865975      5.87E-09 Convergence criterion met
   10   -1038.3379910821      4.77E-09 Convergence criterion met
   10   -1038.3381028416      3.97E-09 Convergence criterion met

             Standard Nuclear Orientation (Angstroms)
    I     Atom           X                Y                Z
 ----------------------------------------------------------------
    1      C      -1.0016905845     0.0000169410     0.6861102447
    2      C       0.5167837063     0.0000649593     0.5441442865
    3      C      -1.7984784075    -0.0000631302    -0.6173342651
    4      Cl      1.1168112862    -1.4878904270    -0.2976735872
    5      Cl      1.1167228052     1.4879483389    -0.2978108416
    6      H      -1.2547338464     0.8810367667     1.2883387314
    7      H      -1.2546717132    -0.8809714359     1.2884097795
    8      H       1.0092900636     0.0001119619     1.5144718527
    9      H      -1.5762230852    -0.8857751786    -1.2181748724
   10      H      -2.8696278818    -0.0000909251    -0.3968310521
   11      H      -1.5762823426     0.8856121291    -1.2182502763
 ----------------------------------------------------------------

    9   -1038.3381067208      3.09E-09 Convergence criterion met
 Final energy is   -1038.33810672077
 **  OPTIMIZATION CONVERGED  **

                    Orbital Energies (a.u.)
 --------------------------------------------------------------

 Alpha MOs
 -- Occupied --
*******-101.549 -10.314 -10.216 -10.187  -9.465  -9.465  -7.230
 -7.230  -7.219  -7.219  -7.219  -7.219  -0.903  -0.820  -0.781
 -0.682  -0.592  -0.496  -0.482  -0.446  -0.421  -0.387  -0.374
 -0.359  -0.325  -0.319  -0.304  -0.303

 Beta MOs
 -- Occupied --
*******-101.549 -10.314 -10.216 -10.187  -9.465  -9.465  -7.230
 -7.230  -7.219  -7.219  -7.219  -7.219  -0.903  -0.820  -0.781
 -0.682  -0.592  -0.496  -0.482  -0.446  -0.421  -0.387  -0.374
 -0.359  -0.325  -0.319  -0.304  -0.303

          Ground-State Mulliken Net Atomic Charges

     Atom                 Charge (a.u.)    Spin (a.u.)
  --------------------------------------------------------
      1 C                    -0.172807      -0.000000
      2 C                    -0.267144       0.000000
      3 C                    -0.322113       0.000000
      4 Cl                   -0.035583      -0.000000
      5 Cl                   -0.035566       0.000000
      6 H                     0.129639       0.000000
      7 H                     0.129640       0.000000
      8 H                     0.197694      -0.000000
      9 H                     0.131764       0.000000
     10 H                     0.112711      -0.000000
     11 H                     0.131763       0.000000
  --------------------------------------------------------
  Sum of atomic charges =     0.000000

                    Cartesian Multipole Moments
 -----------------------------------------------------------------
    Charge (ESU x 10^10)
                 0.0000
    Dipole Moment (Debye)
         X      -1.6872      Y       0.0001      Z       1.5610
       Tot       2.2986
    Quadrupole Moments (Debye-Ang)
        XX     -45.1865     XY       0.0002     YY     -47.1002
        XZ       0.8291     YZ       0.0002     ZZ     -43.1330

 Total job time:  12.84s(wall), 146.80s(cpu)
        *  Thank you very much for using Q-Chem.  Have a nice day.  *
