 Q-Chem 5.1, Q-Chem, Inc., Pleasanton, CA (2018)
 Q-Chem 5.1.1 for Intel X86 EM64T Linux

User input:
--------------------------------------------------------------

$comment
potential surface scanner
$end

$rem
JOBTYPE  PES_SCAN
UNRESTRICTED TRUE
SYM_IGNORE  TRUE
GEOM_OPT_MAX_CYCLES 400
SCF_MAX_CYCLES 400
METHOD   B3LYP
BASIS   6-31G**
PDB_PRINT 2
SCF_CONVERGENCE 6
THRESH 14
SCF_PRINT 1
$end
$molecule
0 3
Br 2.291461 2.451294 -0.532059
Br -0.153792 1.747305 0.914251
C -0.720212 -0.891969 -0.482881
C 0.459273 -0.627070 0.167959
C -1.919284 -1.509563 0.147122
H -0.803661 -0.598548 -1.527933
H 0.628121 -0.983087 1.179204
H 1.317814 -0.251891 -0.376958
H -1.760982 -1.735872 1.204237
H -2.786147 -0.843245 0.054682
H -2.187794 -2.436359 -0.376816
$end
$scan
stre 1 3 4.400000 4.401000 0.100000
$end
--------------------------------------------------------------

   14   -5265.6351921308      6.04e-07  Convergence criterion met
 Total energy in the final basis set =    -5265.6351921308
   14   -5265.6345469913      5.33e-07  Convergence criterion met
 Total energy in the final basis set =    -5265.6345469913
   14   -5265.6346911448      5.52e-07  Convergence criterion met
 Total energy in the final basis set =    -5265.6346911448
   14   -5265.6347743421      5.69e-07  Convergence criterion met
 Total energy in the final basis set =    -5265.6347743421
   14   -5265.6347913313      5.77e-07  Convergence criterion met
 Total energy in the final basis set =    -5265.6347913313
   14   -5265.6348231211      5.94e-07  Convergence criterion met
 Total energy in the final basis set =    -5265.6348231211
   14   -5265.6349821319      6.27e-07  Convergence criterion met
 Total energy in the final basis set =    -5265.6349821319
   14   -5265.6331752746      4.19e-07  Convergence criterion met
   14   -5265.6353417103      4.87e-07  Convergence criterion met
 Total energy in the final basis set =    -5265.6353417103
   14   -5265.6353438254      4.93e-07  Convergence criterion met
 Total energy in the final basis set =    -5265.6353438254
   14   -5265.6353448826      4.98e-07  Convergence criterion met
 Total energy in the final basis set =    -5265.6353448826
   14   -5265.6353461892      5.03e-07  Convergence criterion met
 Total energy in the final basis set =    -5265.6353461892
   14   -5265.6353476342      5.07e-07  Convergence criterion met
 Total energy in the final basis set =    -5265.6353476342
   14   -5265.6353486559      5.07e-07  Convergence criterion met
 Total energy in the final basis set =    -5265.6353486559

             Standard Nuclear Orientation (Angstroms)
    I     Atom           X                Y                Z
 ----------------------------------------------------------------
    1      Br      1.8732597075     2.6649230026    -0.9809968016
    2      Br      0.0477798510     1.6553879806     1.0894199514
    3      C      -0.6510317657    -0.8968348994    -0.4316017641
    4      C       0.4963925659    -0.7335837765     0.3078630143
    5      C      -1.9272719734    -1.4578999712     0.0880930378
    6      H      -0.6445984943    -0.5476439841    -1.4627863860
    7      H       0.5703153859    -1.1415299632     1.3112768256
    8      H       1.4183780506    -0.4149818948    -0.1646776860
    9      H      -1.8516646052    -1.7612838218     1.1348141874
   10      H      -2.7344338045    -0.7206593735    -0.0082367834
   11      H      -2.2323279178    -2.3248982986    -0.5123595954
 ----------------------------------------------------------------

   14   -5265.6353490146      5.04e-07  Convergence criterion met
 Total energy in the final basis set =    -5265.6353490146

                    Orbital Energies (a.u.)
 --------------------------------------------------------------

 Alpha MOs
 -- Occupied --
*******-482.829 -62.529 -62.487 -56.350 -56.348 -56.346 -56.309
-56.304 -56.304 -10.265 -10.255 -10.224  -8.716  -8.674  -6.544
 -6.538  -6.532  -6.506  -6.491  -6.490  -2.638  -2.638  -2.633
 -2.628  -2.628  -2.598  -2.594  -2.594  -2.583  -2.583  -0.849
 -0.780  -0.734  -0.726  -0.610  -0.518  -0.474  -0.459  -0.418
 -0.401  -0.373  -0.352  -0.306  -0.273  -0.261  -0.260  -0.252

 Beta MOs
 -- Occupied --
*******-482.827 -62.528 -62.485 -56.347 -56.346 -56.345 -56.305
-56.303 -56.303 -10.259 -10.254 -10.224  -8.712  -8.670  -6.537
 -6.533  -6.530  -6.497  -6.489  -6.488  -2.632  -2.632  -2.629
 -2.625  -2.625  -2.592  -2.589  -2.589  -2.582  -2.582  -0.836
 -0.751  -0.724  -0.694  -0.603  -0.514  -0.471  -0.449  -0.415
 -0.399  -0.336  -0.308  -0.294  -0.255  -0.250

          Ground-State Mulliken Net Atomic Charges

     Atom                 Charge (a.u.)    Spin (a.u.)
  --------------------------------------------------------
      1 Br                   -0.251233       0.730897
      2 Br                   -0.093359       0.816401
      3 C                     0.023100       0.433551
      4 C                    -0.248765       0.027121
      5 C                    -0.361891      -0.030202
      6 H                     0.149054      -0.019087
      7 H                     0.156557      -0.001050
      8 H                     0.188689       0.000806
      9 H                     0.133611       0.000333
     10 H                     0.158853       0.022815
     11 H                     0.145383       0.018414
  --------------------------------------------------------
  Sum of atomic charges =    -0.000000

                    Cartesian Multipole Moments
 -----------------------------------------------------------------
    Charge (ESU x 10^10)
                 0.0000
    Dipole Moment (Debye)
         X      -3.0004      Y      -5.6076      Z       0.4226
       Tot       6.3739
    Quadrupole Moments (Debye-Ang)
        XX     -57.1648     XY      -3.8120     YY     -64.3529
        XZ       1.9163     YZ       1.7093     ZZ     -56.5989

 Final energy is   -5265.63534901463
 **  OPTIMIZATION CONVERGED  **
 Total job time:  131.46s(wall), 1534.03s(cpu)
        *  Thank you very much for using Q-Chem.  Have a nice day.  *
