 Q-Chem 5.1, Q-Chem, Inc., Pleasanton, CA (2018)
 Q-Chem 5.1.1 for Intel X86 EM64T Linux

User input:
--------------------------------------------------------------

$comment
potential surface scanner
$end

$rem
JOBTYPE  PES_SCAN
UNRESTRICTED TRUE
SYM_IGNORE  TRUE
GEOM_OPT_MAX_CYCLES 400
SCF_MAX_CYCLES 400
METHOD   B3LYP
BASIS   6-31G**
PDB_PRINT 2
SCF_CONVERGENCE 6
THRESH 14
SCF_PRINT 1
$end
$molecule
0 3
Br 1.040494 2.453573 -1.410559
Br 0.305070 1.553319 1.307051
C -0.535487 -0.845690 -0.375594
C 0.554104 -0.814069 0.467068
C -1.885059 -1.343625 -0.000541
H -0.413745 -0.421921 -1.370436
H 0.509037 -1.284259 1.444802
H 1.536640 -0.570713 0.080327
H -1.914661 -1.747550 1.014198
H -2.623125 -0.535205 -0.082347
H -2.208474 -2.122863 -0.703164
$end
$scan
stre 1 3 3.700000 3.701000 0.100000
$end
--------------------------------------------------------------

   14   -5265.6356269817      5.54e-07  Convergence criterion met
 Total energy in the final basis set =    -5265.6356269817
   14   -5265.6355507760      4.61e-07  Convergence criterion met
 Total energy in the final basis set =    -5265.6355507760
   13   -5265.6355688577      9.49e-07  Convergence criterion met
 Total energy in the final basis set =    -5265.6355688577
   14   -5265.6355892033      5.65e-07  Convergence criterion met
 Total energy in the final basis set =    -5265.6355892033
   14   -5265.6356041477      5.79e-07  Convergence criterion met
 Total energy in the final basis set =    -5265.6356041477
   14   -5265.6356239174      5.91e-07  Convergence criterion met
 Total energy in the final basis set =    -5265.6356239174
   14   -5265.6356382975      4.19e-07  Convergence criterion met
 Total energy in the final basis set =    -5265.6356382975
   14   -5265.6356463538      5.26e-07  Convergence criterion met
 Total energy in the final basis set =    -5265.6356463538
   14   -5265.6356475935      5.24e-07  Convergence criterion met
 Total energy in the final basis set =    -5265.6356475935

             Standard Nuclear Orientation (Angstroms)
    I     Atom           X                Y                Z
 ----------------------------------------------------------------
    1      Br      0.8497949426     2.4204246647    -1.4520982645
    2      Br      0.3376786417     1.5386789433     1.3180211649
    3      C      -0.5059958354    -0.8471301423    -0.3681622361
    4      C       0.5708493714    -0.8461663253     0.4900681991
    5      C      -1.8727811685    -1.3131387326    -0.0155280186
    6      H      -0.3588667263    -0.4126315978    -1.3555144660
    7      H       0.5012207811    -1.3133573981     1.4678074859
    8      H       1.5641912444    -0.6197273615     0.1209457714
    9      H      -1.9282142384    -1.7203121603     0.9968570544
   10      H      -2.5876224674    -0.4849734701    -0.1050463241
   11      H      -2.2054605453    -2.0806694198    -0.7265453665
 ----------------------------------------------------------------

   14   -5265.6356480645      5.22e-07  Convergence criterion met
 Total energy in the final basis set =    -5265.6356480645

                    Orbital Energies (a.u.)
 --------------------------------------------------------------

 Alpha MOs
 -- Occupied --
*******-482.830 -62.528 -62.487 -56.350 -56.348 -56.345 -56.310
-56.305 -56.305 -10.263 -10.257 -10.222  -8.716  -8.674  -6.544
 -6.538  -6.531  -6.506  -6.491  -6.491  -2.638  -2.637  -2.632
 -2.628  -2.627  -2.598  -2.595  -2.594  -2.583  -2.583  -0.848
 -0.779  -0.734  -0.727  -0.608  -0.517  -0.473  -0.458  -0.416
 -0.400  -0.374  -0.352  -0.305  -0.270  -0.263  -0.262  -0.253

 Beta MOs
 -- Occupied --
*******-482.828 -62.527 -62.486 -56.346 -56.345 -56.344 -56.306
-56.304 -56.304 -10.257 -10.255 -10.222  -8.712  -8.671  -6.537
 -6.533  -6.529  -6.498  -6.490  -6.489  -2.632  -2.631  -2.628
 -2.625  -2.624  -2.593  -2.590  -2.590  -2.582  -2.582  -0.835
 -0.751  -0.723  -0.696  -0.601  -0.513  -0.470  -0.447  -0.413
 -0.398  -0.337  -0.308  -0.293  -0.257  -0.252

          Ground-State Mulliken Net Atomic Charges

     Atom                 Charge (a.u.)    Spin (a.u.)
  --------------------------------------------------------
      1 Br                   -0.265251       0.713257
      2 Br                   -0.092966       0.810301
      3 C                     0.029102       0.452768
      4 C                    -0.250575       0.032500
      5 C                    -0.364253      -0.031718
      6 H                     0.164846      -0.020139
      7 H                     0.154214      -0.001691
      8 H                     0.183593       0.000562
      9 H                     0.131163       0.000382
     10 H                     0.164312       0.025175
     11 H                     0.145814       0.018603
  --------------------------------------------------------
  Sum of atomic charges =     0.000000

                    Cartesian Multipole Moments
 -----------------------------------------------------------------
    Charge (ESU x 10^10)
                -0.0000
    Dipole Moment (Debye)
         X      -1.8742      Y      -5.3909      Z       0.9832
       Tot       5.7915
    Quadrupole Moments (Debye-Ang)
        XX     -54.7568     XY      -1.4564     YY     -63.1348
        XZ       1.7806     YZ       2.4891     ZZ     -57.6388

 Final energy is   -5265.63564806451
 **  OPTIMIZATION CONVERGED  **
 Total job time:  64.89s(wall), 752.60s(cpu)
        *  Thank you very much for using Q-Chem.  Have a nice day.  *
