 Q-Chem 5.1, Q-Chem, Inc., Pleasanton, CA (2018)
 Q-Chem 5.1.1 for Intel X86 EM64T Linux

User input:
--------------------------------------------------------------

$comment
potential surface scanner
$end

$rem
JOBTYPE  PES_SCAN
UNRESTRICTED TRUE
SYM_IGNORE  TRUE
GEOM_OPT_MAX_CYCLES 400
SCF_MAX_CYCLES 400
METHOD   B3LYP
BASIS   6-31G**
PDB_PRINT 2
SCF_CONVERGENCE 6
THRESH 14
SCF_PRINT 1
$end
$molecule
0 3
Br -0.259157 1.697165 -0.452627
Br 1.419808 2.163060 1.952176
C -0.443533 -0.894109 -0.558952
C 0.553518 -0.967432 0.381509
C -1.889463 -1.154007 -0.268838
H -0.152887 -0.871678 -1.607276
H 0.325552 -1.045217 1.439857
H 1.598188 -0.888441 0.103169
H -2.127543 -1.004644 0.786824
H -2.539662 -0.518090 -0.873883
H -2.120026 -2.195613 -0.531152
$end
$scan
stre 1 3 2.500000 2.501000 0.100000
$end
--------------------------------------------------------------

   14   -5265.6303717376      5.41e-07  Convergence criterion met
 Total energy in the final basis set =    -5265.6303717376
   12   -5265.6287393835      6.61e-07  Convergence criterion met
 Total energy in the final basis set =    -5265.6287393835
   13   -5265.6290820026      6.13e-07  Convergence criterion met
 Total energy in the final basis set =    -5265.6290820026
   14   -5265.6294551886      6.10e-07  Convergence criterion met
 Total energy in the final basis set =    -5265.6294551886
   14   -5265.6295088679      6.13e-07  Convergence criterion met
 Total energy in the final basis set =    -5265.6295088679
   14   -5265.6295353194      6.12e-07  Convergence criterion met
 Total energy in the final basis set =    -5265.6295353194
   14   -5265.6295524704      6.11e-07  Convergence criterion met
 Total energy in the final basis set =    -5265.6295524704
   14   -5265.6295742087      6.10e-07  Convergence criterion met
   14   -5265.6296028877      6.10e-07  Convergence criterion met
 Total energy in the final basis set =    -5265.6296028877
   14   -5265.6296064995      6.08e-07  Convergence criterion met
 Total energy in the final basis set =    -5265.6296064995
   14   -5265.6296098124      6.05e-07  Convergence criterion met
 Total energy in the final basis set =    -5265.6296098124
   14   -5265.6296131186      6.02e-07  Convergence criterion met
 Total energy in the final basis set =    -5265.6296131186
   14   -5265.6296160501      6.01e-07  Convergence criterion met
 Total energy in the final basis set =    -5265.6296160501
   14   -5265.6296178488      6.01e-07  Convergence criterion met
 Total energy in the final basis set =    -5265.6296178488

             Standard Nuclear Orientation (Angstroms)
    I     Atom           X                Y                Z
 ----------------------------------------------------------------
    1      Br     -0.2539765921     1.6513220816    -0.5629584503
    2      Br      1.1653878897     2.0862880510     2.0167756183
    3      C      -0.4262990362    -0.8427304777    -0.5655985460
    4      C       0.5955240988    -1.0119235955     0.3495869747
    5      C      -1.8682201521    -1.0934092922    -0.2336495616
    6      H      -0.1614536546    -0.8528462199    -1.6204342228
    7      H       0.3888029022    -1.1093337344     1.4104839286
    8      H       1.6353943313    -0.9728228560     0.0455963305
    9      H      -2.0866399526    -0.8697090772     0.8129178356
   10      H      -2.5355595290    -0.5090430782    -0.8696344490
   11      H      -2.0881653052    -2.1547978015    -0.4122784580
 ----------------------------------------------------------------

   14   -5265.6296185644      6.02e-07  Convergence criterion met
 Total energy in the final basis set =    -5265.6296185644

                    Orbital Energies (a.u.)
 --------------------------------------------------------------

 Alpha MOs
 -- Occupied --
*******-482.830 -62.527 -62.488 -56.348 -56.346 -56.344 -56.310
-56.305 -56.305 -10.274 -10.253 -10.219  -8.714  -8.675  -6.542
 -6.536  -6.530  -6.507  -6.491  -6.491  -2.637  -2.636  -2.631
 -2.626  -2.626  -2.599  -2.595  -2.595  -2.583  -2.583  -0.850
 -0.774  -0.734  -0.728  -0.610  -0.517  -0.471  -0.458  -0.413
 -0.400  -0.371  -0.351  -0.304  -0.267  -0.266  -0.262  -0.256

 Beta MOs
 -- Occupied --
*******-482.828 -62.526 -62.486 -56.345 -56.344 -56.343 -56.306
-56.304 -56.304 -10.273 -10.245 -10.219  -8.711  -8.671  -6.536
 -6.532  -6.528  -6.499  -6.490  -6.489  -2.631  -2.630  -2.627
 -2.624  -2.623  -2.593  -2.590  -2.590  -2.582  -2.582  -0.840
 -0.742  -0.723  -0.696  -0.604  -0.512  -0.467  -0.453  -0.411
 -0.399  -0.333  -0.308  -0.292  -0.256  -0.251

          Ground-State Mulliken Net Atomic Charges

     Atom                 Charge (a.u.)    Spin (a.u.)
  --------------------------------------------------------
      1 Br                   -0.098706       0.781873
      2 Br                   -0.249522       0.727667
      3 C                    -0.090754      -0.017365
      4 C                    -0.140615       0.552489
      5 C                    -0.335538       0.002201
      6 H                     0.162357       0.001565
      7 H                     0.160043      -0.024145
      8 H                     0.157821      -0.024011
      9 H                     0.146491      -0.000759
     10 H                     0.148368       0.002815
     11 H                     0.140055      -0.002330
  --------------------------------------------------------
  Sum of atomic charges =     0.000000

                    Cartesian Multipole Moments
 -----------------------------------------------------------------
    Charge (ESU x 10^10)
                -0.0000
    Dipole Moment (Debye)
         X      -1.7194      Y      -5.1366      Z      -2.2638
       Tot       5.8708
    Quadrupole Moments (Debye-Ang)
        XX     -55.3861     XY      -1.9205     YY     -61.5703
        XZ      -1.2828     YZ      -4.1080     ZZ     -58.9023

 Final energy is   -5265.62961856445
 **  OPTIMIZATION CONVERGED  **
 Total job time:  134.17s(wall), 1511.56s(cpu)
        *  Thank you very much for using Q-Chem.  Have a nice day.  *
