 Q-Chem 5.1, Q-Chem, Inc., Pleasanton, CA (2018)
 Q-Chem 5.1.1 for Intel X86 EM64T Linux

User input:
--------------------------------------------------------------

$comment
potential surface scanner
$end

$rem
JOBTYPE  PES_SCAN
UNRESTRICTED TRUE
SYM_IGNORE  TRUE
GEOM_OPT_MAX_CYCLES 400
SCF_MAX_CYCLES 400
METHOD   B3LYP
BASIS   6-31G**
PDB_PRINT 2
SCF_CONVERGENCE 6
THRESH 14
SCF_PRINT 1
$end
$molecule
0 1
Br -0.621000 1.744900 0.138600
Br 2.339300 0.022500 -0.135100
C -0.519000 -0.151000 -0.364100
C 0.644500 -0.814800 0.353000
C -1.843800 -0.801500 0.007700
H -0.380000 -0.157800 -1.450100
H 0.570800 -0.733000 1.441800
H 0.738000 -1.869500 0.078300
H -2.034600 -0.746700 1.085500
H -2.681600 -0.314200 -0.503400
H -1.847800 -1.857900 -0.281400
$end
$scan
stre 1 3 1.400000 1.401000 0.100000
$end
--------------------------------------------------------------

    9   -5265.7112865010      6.36e-07  Convergence criterion met
 Total energy in the final basis set =    -5265.7112865010
   10   -5265.7006859870      3.75e-07  Convergence criterion met
 Total energy in the final basis set =    -5265.7006859870
   10   -5265.6667426267      3.76e-07  Convergence criterion met
 Total energy in the final basis set =    -5265.6667426267
   10   -5265.6053072919      3.81e-07  Convergence criterion met
 Total energy in the final basis set =    -5265.6053072919
   10   -5265.5183654968      3.94e-07  Convergence criterion met
 Total energy in the final basis set =    -5265.5183654968
   10   -5265.4649606222      4.25e-07  Convergence criterion met
 Total energy in the final basis set =    -5265.4649606222
   10   -5265.4628957580      4.39e-07  Convergence criterion met
 Total energy in the final basis set =    -5265.4628957580
   10   -5265.4631122054      4.54e-07  Convergence criterion met
   10   -5265.4631305899      4.56e-07  Convergence criterion met
 Total energy in the final basis set =    -5265.4631305899
   10   -5265.4631334120      4.56e-07  Convergence criterion met
 Total energy in the final basis set =    -5265.4631334120
   10   -5265.4631387408      4.56e-07  Convergence criterion met
 Total energy in the final basis set =    -5265.4631387408
   10   -5265.4631435360      4.55e-07  Convergence criterion met
 Total energy in the final basis set =    -5265.4631435360
   10   -5265.4631490366      4.55e-07  Convergence criterion met
 Total energy in the final basis set =    -5265.4631490366
   10   -5265.4631523037      4.56e-07  Convergence criterion met
 Total energy in the final basis set =    -5265.4631523037

             Standard Nuclear Orientation (Angstroms)
    I     Atom           X                Y                Z
 ----------------------------------------------------------------
    1      Br     -0.6455809573     1.4677358663     0.0305229331
    2      Br      2.4126511472    -0.1278005524    -0.1518189319
    3      C      -0.5497441849     0.1089209196    -0.2926445966
    4      C       0.6119442399    -0.7476216882     0.3622633973
    5      C      -1.8197466132    -0.7976780179     0.0150547786
    6      H      -0.3829541612    -0.1341444883    -1.3655585680
    7      H       0.5713718896    -0.6703753194     1.4512084615
    8      H       0.5653462022    -1.7884247501     0.0495901884
    9      H      -2.0196496896    -0.7994143177     1.0927152591
   10      H      -2.6894962813    -0.3643075220    -0.4882559261
   11      H      -1.6893415913    -1.8258901299    -0.3322769954
 ----------------------------------------------------------------

   10   -5265.4631536935      4.56e-07  Convergence criterion met
 Total energy in the final basis set =    -5265.4631536935

                    Orbital Energies (a.u.)
 --------------------------------------------------------------

 Alpha MOs
 -- Occupied --
*******-482.852 -62.531 -62.510 -56.350 -56.348 -56.348 -56.331
-56.328 -56.328 -10.251 -10.245 -10.201  -8.727  -8.697  -6.559
 -6.545  -6.544  -6.527  -6.515  -6.514  -2.657  -2.649  -2.648
 -2.637  -2.637  -2.621  -2.617  -2.617  -2.607  -2.607  -0.984
 -0.806  -0.742  -0.677  -0.591  -0.515  -0.482  -0.459  -0.428
 -0.411  -0.398  -0.366  -0.288  -0.279  -0.260  -0.258

 Beta MOs
 -- Occupied --
*******-482.852 -62.531 -62.510 -56.350 -56.348 -56.348 -56.331
-56.328 -56.328 -10.251 -10.245 -10.201  -8.727  -8.697  -6.559
 -6.545  -6.544  -6.527  -6.515  -6.514  -2.657  -2.649  -2.648
 -2.637  -2.637  -2.621  -2.617  -2.617  -2.607  -2.607  -0.984
 -0.806  -0.742  -0.677  -0.591  -0.515  -0.482  -0.459  -0.428
 -0.411  -0.398  -0.366  -0.288  -0.279  -0.260  -0.258

          Ground-State Mulliken Net Atomic Charges

     Atom                 Charge (a.u.)    Spin (a.u.)
  --------------------------------------------------------
      1 Br                    0.040166      -0.000000
      2 Br                   -0.112871      -0.000000
      3 C                    -0.091134       0.000000
      4 C                    -0.270480       0.000000
      5 C                    -0.347698       0.000000
      6 H                     0.120392       0.000000
      7 H                     0.153772      -0.000000
      8 H                     0.150900       0.000000
      9 H                     0.120576       0.000000
     10 H                     0.125119      -0.000000
     11 H                     0.111256      -0.000000
  --------------------------------------------------------
  Sum of atomic charges =    -0.000000

                    Cartesian Multipole Moments
 -----------------------------------------------------------------
    Charge (ESU x 10^10)
                -0.0000
    Dipole Moment (Debye)
         X      -2.1209      Y      -1.5220      Z       0.1123
       Tot       2.6129
    Quadrupole Moments (Debye-Ang)
        XX     -59.6425     XY       1.1194     YY     -55.8733
        XZ       0.5578     YZ      -0.4174     ZZ     -55.3307

 Final energy is   -5265.46315369353
 **  OPTIMIZATION CONVERGED  **
 Total job time:  90.33s(wall), 1056.14s(cpu)
        *  Thank you very much for using Q-Chem.  Have a nice day.  *
