 Q-Chem 5.1, Q-Chem, Inc., Pleasanton, CA (2018)
 Q-Chem 5.1.1 for Intel X86 EM64T Linux

User input:
--------------------------------------------------------------

$comment
potential surface scanner
$end

$rem
JOBTYPE  PES_SCAN
UNRESTRICTED TRUE
SYM_IGNORE  TRUE
GEOM_OPT_MAX_CYCLES 400
SCF_MAX_CYCLES 400
METHOD   B3LYP
BASIS   6-31G**
PDB_PRINT 2
SCF_CONVERGENCE 6
THRESH 14
SCF_PRINT 1
$end
$molecule
0 1
Br -0.676119 1.746228 0.156255
Br 2.406464 -0.154451 -0.227227
C -0.534785 -0.085570 -0.328039
C 0.636170 -0.769652 0.370468
C -1.838102 -0.825984 -0.006174
H -0.364222 -0.090446 -1.406381
H 0.607511 -0.617171 1.449091
H 0.619028 -1.838092 0.150815
H -2.038327 -0.823492 1.069231
H -2.683622 -0.354610 -0.511801
H -1.769197 -1.865760 -0.345438
$end
$scan
stre 1 3 2.000000 2.001000 0.100000
$end
--------------------------------------------------------------

    9   -5265.7112402033      8.60e-07  Convergence criterion met
 Total energy in the final basis set =    -5265.7112402033
    9   -5265.7130749426      7.28e-07  Convergence criterion met
 Total energy in the final basis set =    -5265.7130749426
    9   -5265.7133932694      7.45e-07  Convergence criterion met
 Total energy in the final basis set =    -5265.7133932694
    9   -5265.7134800751      7.58e-07  Convergence criterion met
 Total energy in the final basis set =    -5265.7134800751
    9   -5265.7134834933      7.60e-07  Convergence criterion met
 Total energy in the final basis set =    -5265.7134834933
    9   -5265.7134849888      7.62e-07  Convergence criterion met
 Total energy in the final basis set =    -5265.7134849888
    9   -5265.7134865873      7.62e-07  Convergence criterion met
 Total energy in the final basis set =    -5265.7134865873
    9   -5265.7134877077      7.62e-07  Convergence criterion met
 Total energy in the final basis set =    -5265.7134877077

             Standard Nuclear Orientation (Angstroms)
    I     Atom           X                Y                Z
 ----------------------------------------------------------------
    1      Br     -0.6834539703     1.8055672624     0.1712791380
    2      Br      2.4051861016    -0.1574114997    -0.2352175346
    3      C      -0.5314088528    -0.1223560090    -0.3386165308
    4      C       0.6414830456    -0.7745005076     0.3730302512
    5      C      -1.8410976656    -0.8331346006    -0.0099156035
    6      H      -0.3598004434    -0.0894397306    -1.4146576245
    7      H       0.6079169083    -0.6050910738     1.4486529273
    8      H       0.6311876432    -1.8478094675     0.1729437783
    9      H      -2.0310965264    -0.8389128779     1.0670201089
   10      H      -2.6826880837    -0.3443627502    -0.5045900796
   11      H      -1.7914291565    -1.8715487454    -0.3591288306
 ----------------------------------------------------------------

    9   -5265.7134880802      7.60e-07  Convergence criterion met
 Total energy in the final basis set =    -5265.7134880802

                    Orbital Energies (a.u.)
 --------------------------------------------------------------

 Alpha MOs
 -- Occupied --
*******-482.852 -62.516 -62.511 -56.337 -56.333 -56.333 -56.332
-56.328 -56.328 -10.270 -10.261 -10.209  -8.703  -8.698  -6.533
 -6.528  -6.520  -6.520  -6.515  -6.515  -2.627  -2.623  -2.623
 -2.621  -2.618  -2.618  -2.613  -2.612  -2.608  -2.608  -0.859
 -0.793  -0.745  -0.689  -0.604  -0.495  -0.465  -0.448  -0.429
 -0.390  -0.371  -0.357  -0.289  -0.286  -0.281  -0.274

 Beta MOs
 -- Occupied --
*******-482.852 -62.516 -62.511 -56.337 -56.333 -56.333 -56.332
-56.328 -56.328 -10.270 -10.261 -10.209  -8.703  -8.698  -6.533
 -6.528  -6.520  -6.520  -6.515  -6.515  -2.627  -2.623  -2.623
 -2.621  -2.618  -2.618  -2.613  -2.612  -2.608  -2.608  -0.859
 -0.793  -0.745  -0.689  -0.604  -0.495  -0.465  -0.448  -0.429
 -0.390  -0.371  -0.357  -0.289  -0.286  -0.281  -0.274

          Ground-State Mulliken Net Atomic Charges

     Atom                 Charge (a.u.)    Spin (a.u.)
  --------------------------------------------------------
      1 Br                   -0.103660      -0.000000
      2 Br                   -0.085238      -0.000000
      3 C                    -0.135645      -0.000000
      4 C                    -0.245355       0.000000
      5 C                    -0.321695       0.000000
      6 H                     0.168165      -0.000000
      7 H                     0.171388      -0.000000
      8 H                     0.157580       0.000000
      9 H                     0.133133      -0.000000
     10 H                     0.142627       0.000000
     11 H                     0.118700       0.000000
  --------------------------------------------------------
  Sum of atomic charges =    -0.000000

                    Cartesian Multipole Moments
 -----------------------------------------------------------------
    Charge (ESU x 10^10)
                -0.0000
    Dipole Moment (Debye)
         X      -1.8148      Y      -2.6119      Z       0.0669
       Tot       3.1812
    Quadrupole Moments (Debye-Ang)
        XX     -59.0687     XY       1.9958     YY     -56.9082
        XZ       0.7482     YZ      -0.4041     ZZ     -55.4267

 Final energy is   -5265.71348808020
 **  OPTIMIZATION CONVERGED  **
 Total job time:  48.35s(wall), 541.70s(cpu)
        *  Thank you very much for using Q-Chem.  Have a nice day.  *
