 Q-Chem 5.1, Q-Chem, Inc., Pleasanton, CA (2018)
 Q-Chem 5.1.1 for Intel X86 EM64T Linux

User input:
--------------------------------------------------------------

$comment
potential surface scanner
$end

$rem
JOBTYPE  PES_SCAN
UNRESTRICTED TRUE
SYM_IGNORE  TRUE
GEOM_OPT_MAX_CYCLES 400
SCF_MAX_CYCLES 400
METHOD   B3LYP
BASIS   6-31G**
PDB_PRINT 2
SCF_CONVERGENCE 6
THRESH 14
SCF_PRINT 1
$end
$molecule
0 1
Br -0.621000 1.744900 0.138600
Br 2.339300 0.022500 -0.135100
C -0.519000 -0.151000 -0.364100
C 0.644500 -0.814800 0.353000
C -1.843800 -0.801500 0.007700
H -0.380000 -0.157800 -1.450100
H 0.570800 -0.733000 1.441800
H 0.738000 -1.869500 0.078300
H -2.034600 -0.746700 1.085500
H -2.681600 -0.314200 -0.503400
H -1.847800 -1.857900 -0.281400
$end
$scan
stre 1 3 1.000000 1.001000 0.100000
$end
--------------------------------------------------------------

    9   -5265.7112865010      6.36e-07  Convergence criterion met
 Total energy in the final basis set =    -5265.7112865010
   10   -5265.7006859870      3.75e-07  Convergence criterion met
 Total energy in the final basis set =    -5265.7006859870
   10   -5265.6667426268      3.76e-07  Convergence criterion met
 Total energy in the final basis set =    -5265.6667426268
   10   -5265.6053072919      3.81e-07  Convergence criterion met
 Total energy in the final basis set =    -5265.6053072919
   10   -5265.5129903249      3.90e-07  Convergence criterion met
 Total energy in the final basis set =    -5265.5129903249
   10   -5265.3634268608      4.32e-07  Convergence criterion met
 Total energy in the final basis set =    -5265.3634268608
   10   -5265.1475084369      5.54e-07  Convergence criterion met
 Total energy in the final basis set =    -5265.1475084369
   10   -5264.8505104653      7.87e-07  Convergence criterion met
   11   -5263.9099032270      8.76e-07  Convergence criterion met
 Total energy in the final basis set =    -5263.9099032270
   11   -5263.9099052345      8.76e-07  Convergence criterion met
 Total energy in the final basis set =    -5263.9099052345
   11   -5263.9099063339      8.75e-07  Convergence criterion met
 Total energy in the final basis set =    -5263.9099063339
   11   -5263.9099075612      8.75e-07  Convergence criterion met
 Total energy in the final basis set =    -5263.9099075612
   11   -5263.9099091191      8.75e-07  Convergence criterion met
 Total energy in the final basis set =    -5263.9099091191
   11   -5263.9099102742      8.76e-07  Convergence criterion met
 Total energy in the final basis set =    -5263.9099102742

             Standard Nuclear Orientation (Angstroms)
    I     Atom           X                Y                Z
 ----------------------------------------------------------------
    1      Br     -0.5248335191     1.2335952612    -0.6061892908
    2      Br      1.9995590061     0.3749407453     0.8777560115
    3      C      -0.7928902068     0.2716554635    -0.6592696460
    4      C       0.8732500630    -1.0965662202     0.2695482735
    5      C      -1.9380365276    -0.5326288371     0.1679633270
    6      H      -0.7014285837    -0.5052067126    -1.4539396420
    7      H       0.6031097430    -1.6828554126     1.1494979899
    8      H       1.4627030099    -1.6814662514    -0.4404624986
    9      H      -1.8391816763    -0.2831363669     1.2306760542
   10      H      -2.9130720231    -0.1674891003    -0.1896753822
   11      H      -1.8643792854    -1.6098425691     0.0248948035
 ----------------------------------------------------------------

   11   -5263.9099106825      8.77e-07  Convergence criterion met
 Total energy in the final basis set =    -5263.9099106825

                    Orbital Energies (a.u.)
 --------------------------------------------------------------

 Alpha MOs
 -- Occupied --
*******-482.841 -62.636 -62.499 -56.451 -56.450 -56.448 -56.319
-56.317 -56.316 -10.378 -10.195 -10.183  -8.871  -8.686  -6.727
 -6.677  -6.671  -6.514  -6.506  -6.503  -2.836  -2.801  -2.796
 -2.761  -2.761  -2.608  -2.606  -2.604  -2.598  -2.598  -1.080
 -0.779  -0.732  -0.633  -0.610  -0.579  -0.550  -0.452  -0.413
 -0.400  -0.393  -0.356  -0.289  -0.266  -0.230  -0.181

 Beta MOs
 -- Occupied --
*******-482.841 -62.636 -62.499 -56.451 -56.450 -56.448 -56.319
-56.317 -56.316 -10.378 -10.195 -10.183  -8.871  -8.686  -6.727
 -6.677  -6.671  -6.514  -6.506  -6.503  -2.836  -2.801  -2.796
 -2.761  -2.761  -2.608  -2.606  -2.604  -2.598  -2.598  -1.080
 -0.779  -0.732  -0.633  -0.610  -0.579  -0.550  -0.452  -0.413
 -0.400  -0.393  -0.356  -0.289  -0.266  -0.230  -0.181

          Ground-State Mulliken Net Atomic Charges

     Atom                 Charge (a.u.)    Spin (a.u.)
  --------------------------------------------------------
      1 Br                    0.819495       0.000000
      2 Br                   -0.139117       0.000000
      3 C                    -0.463450      -0.000000
      4 C                    -0.489285       0.000000
      5 C                    -0.381529       0.000000
      6 H                     0.078243      -0.000000
      7 H                     0.117260      -0.000000
      8 H                     0.114998      -0.000000
      9 H                     0.122536      -0.000000
     10 H                     0.093013      -0.000000
     11 H                     0.127835      -0.000000
  --------------------------------------------------------
  Sum of atomic charges =    -0.000000

                    Cartesian Multipole Moments
 -----------------------------------------------------------------
    Charge (ESU x 10^10)
                -0.0000
    Dipole Moment (Debye)
         X      -3.0200      Y       0.1074      Z      -1.7675
       Tot       3.5008
    Quadrupole Moments (Debye-Ang)
        XX     -57.7308     XY      -1.0126     YY     -54.8829
        XZ      -0.5300     YZ      -0.7805     ZZ     -54.6610

 Final energy is   -5263.90991068249
 **  OPTIMIZATION CONVERGED  **
 Total job time:  430.04s(wall), 4953.75s(cpu)
        *  Thank you very much for using Q-Chem.  Have a nice day.  *
