 Q-Chem 5.1, Q-Chem, Inc., Pleasanton, CA (2018)
 Q-Chem 5.1.1 for Intel X86 EM64T Linux

User input:
--------------------------------------------------------------

$comment
potential surface scanner
$end

$rem
JOBTYPE  PES_SCAN
UNRESTRICTED TRUE
SYM_IGNORE  TRUE
GEOM_OPT_MAX_CYCLES 400
SCF_MAX_CYCLES 400
METHOD   B3LYP
BASIS   6-31G**
PDB_PRINT 2
SCF_CONVERGENCE 6
THRESH 14
SCF_PRINT 1
$end
$molecule
0 3
Br -0.253977 1.651322 -0.562958
Br 1.165388 2.086288 2.016776
C -0.426299 -0.842730 -0.565599
C 0.595524 -1.011924 0.349587
C -1.868220 -1.093409 -0.233650
H -0.161454 -0.852846 -1.620434
H 0.388803 -1.109334 1.410484
H 1.635394 -0.972823 0.045596
H -2.086640 -0.869709 0.812918
H -2.535560 -0.509043 -0.869634
H -2.088165 -2.154798 -0.412278
$end
$scan
stre 1 3 2.400000 2.401000 0.100000
$end
--------------------------------------------------------------

   14   -5265.6296185598      6.02e-07  Convergence criterion met
 Total energy in the final basis set =    -5265.6296185598
   12   -5265.6281283708      8.86e-07  Convergence criterion met
 Total energy in the final basis set =    -5265.6281283708
   13   -5265.6284097429      4.01e-07  Convergence criterion met
 Total energy in the final basis set =    -5265.6284097429
   14   -5265.6287046585      4.36e-07  Convergence criterion met
 Total energy in the final basis set =    -5265.6287046585
   14   -5265.6287230649      4.23e-07  Convergence criterion met
 Total energy in the final basis set =    -5265.6287230649
   14   -5265.6287384205      3.38e-07  Convergence criterion met
 Total energy in the final basis set =    -5265.6287384205
   14   -5265.6287437636      3.65e-07  Convergence criterion met
 Total energy in the final basis set =    -5265.6287437636
   14   -5265.6287469584      3.73e-07  Convergence criterion met
 Total energy in the final basis set =    -5265.6287469584
   14   -5265.6287486650      3.72e-07  Convergence criterion met
 Total energy in the final basis set =    -5265.6287486650

             Standard Nuclear Orientation (Angstroms)
    I     Atom           X                Y                Z
 ----------------------------------------------------------------
    1      Br     -0.3005299998     1.6138261555    -0.6058314186
    2      Br      1.1080728206     2.0250487472     1.9886733607
    3      C      -0.4176674451    -0.7828639731    -0.5594065547
    4      C       0.6070067064    -1.0235818814     0.3551958493
    5      C      -1.8566512180    -1.0650392961    -0.2243832201
    6      H      -0.1538005996    -0.8273596216    -1.6134441020
    7      H       0.3953345140    -1.1453073099     1.4122319333
    8      H       1.6473961397    -1.0018765121     0.0514640627
    9      H      -2.0787301476    -0.8327494328     0.8196292444
   10      H      -2.5385261683    -0.5047968327    -0.8659773269
   11      H      -2.0471106023    -2.1343060430    -0.3873438281
 ----------------------------------------------------------------

   14   -5265.6287494708      3.73e-07  Convergence criterion met
 Total energy in the final basis set =    -5265.6287494708

                    Orbital Energies (a.u.)
 --------------------------------------------------------------

 Alpha MOs
 -- Occupied --
*******-482.831 -62.527 -62.488 -56.348 -56.346 -56.344 -56.311
-56.306 -56.306 -10.276 -10.251 -10.218  -8.714  -8.675  -6.542
 -6.537  -6.530  -6.508  -6.492  -6.492  -2.636  -2.636  -2.631
 -2.627  -2.626  -2.600  -2.596  -2.596  -2.584  -2.584  -0.851
 -0.773  -0.733  -0.729  -0.611  -0.515  -0.469  -0.458  -0.412
 -0.401  -0.373  -0.351  -0.304  -0.268  -0.263  -0.262  -0.257

 Beta MOs
 -- Occupied --
*******-482.829 -62.526 -62.487 -56.345 -56.344 -56.343 -56.307
-56.305 -56.305 -10.276 -10.242 -10.218  -8.711  -8.672  -6.536
 -6.532  -6.528  -6.500  -6.491  -6.490  -2.631  -2.631  -2.627
 -2.624  -2.623  -2.594  -2.591  -2.591  -2.583  -2.583  -0.840
 -0.744  -0.720  -0.697  -0.604  -0.511  -0.465  -0.453  -0.409
 -0.399  -0.339  -0.309  -0.293  -0.257  -0.252

          Ground-State Mulliken Net Atomic Charges

     Atom                 Charge (a.u.)    Spin (a.u.)
  --------------------------------------------------------
      1 Br                   -0.088184       0.721253
      2 Br                   -0.248051       0.726928
      3 C                    -0.108724      -0.047316
      4 C                    -0.137347       0.650373
      5 C                    -0.330418       0.003768
      6 H                     0.166288       0.003434
      7 H                     0.159112      -0.028181
      8 H                     0.155624      -0.028373
      9 H                     0.147105      -0.001055
     10 H                     0.146532       0.002541
     11 H                     0.138064      -0.003372
  --------------------------------------------------------
  Sum of atomic charges =    -0.000000

                    Cartesian Multipole Moments
 -----------------------------------------------------------------
    Charge (ESU x 10^10)
                 0.0000
    Dipole Moment (Debye)
         X      -1.5986      Y      -4.9958      Z      -2.2000
       Tot       5.6880
    Quadrupole Moments (Debye-Ang)
        XX     -55.3502     XY      -1.7523     YY     -61.2634
        XZ      -1.1851     YZ      -3.8808     ZZ     -58.7764

 Final energy is   -5265.62874947077
 **  OPTIMIZATION CONVERGED  **
 Total job time:  71.50s(wall), 764.39s(cpu)
        *  Thank you very much for using Q-Chem.  Have a nice day.  *
