 Q-Chem 5.1, Q-Chem, Inc., Pleasanton, CA (2018)
 Q-Chem 5.1.1 for Intel X86 EM64T Linux

User input:
--------------------------------------------------------------

$comment
potential surface scanner
$end

$rem
JOBTYPE  PES_SCAN
UNRESTRICTED TRUE
SYM_IGNORE  TRUE
GEOM_OPT_MAX_CYCLES 400
SCF_MAX_CYCLES 400
METHOD   B3LYP
BASIS   6-31G**
PDB_PRINT 2
SCF_CONVERGENCE 6
THRESH 14
SCF_PRINT 1
$end
$molecule
0 3
Br 0.036804 1.439790 -0.768718
Br -0.241903 1.949520 2.154711
C -0.339028 -0.722429 -0.615227
C 0.757740 -1.212771 0.152824
C -1.736553 -0.851944 -0.053076
H -0.264262 -0.912588 -1.685127
H 0.691896 -1.258286 1.234684
H 1.718346 -1.405741 -0.311440
H -1.783693 -0.474670 0.971150
H -2.465810 -0.315326 -0.662179
H -2.008743 -1.914561 -0.046795
$end
$scan
stre 1 3 2.100000 2.101000 0.100000
$end
--------------------------------------------------------------

   12   -5265.6278850875      4.76e-07  Convergence criterion met
 Total energy in the final basis set =    -5265.6278850875
   11   -5265.6253023378      9.76e-07  Convergence criterion met
 Total energy in the final basis set =    -5265.6253023378
   11   -5265.6257587780      9.47e-07  Convergence criterion met
 Total energy in the final basis set =    -5265.6257587780
   11   -5265.6260478372      9.12e-07  Convergence criterion met
 Total energy in the final basis set =    -5265.6260478372
   11   -5265.6260523435      9.09e-07  Convergence criterion met
 Total energy in the final basis set =    -5265.6260523435
   11   -5265.6260546252      9.07e-07  Convergence criterion met
 Total energy in the final basis set =    -5265.6260546252
   11   -5265.6260562108      9.07e-07  Convergence criterion met
 Total energy in the final basis set =    -5265.6260562108
   11   -5265.6260582472      9.06e-07  Convergence criterion met
   11   -5265.6254086470      9.61e-07  Convergence criterion met
 Total energy in the final basis set =    -5265.6254086470
   11   -5265.6261806344      9.20e-07  Convergence criterion met
 Total energy in the final basis set =    -5265.6261806344
   11   -5265.6261905862      9.22e-07  Convergence criterion met
 Total energy in the final basis set =    -5265.6261905862
   11   -5265.6261936034      9.24e-07  Convergence criterion met
 Total energy in the final basis set =    -5265.6261936034
   11   -5265.6261965617      9.25e-07  Convergence criterion met
 Total energy in the final basis set =    -5265.6261965617
   11   -5265.6261978004      9.27e-07  Convergence criterion met
 Total energy in the final basis set =    -5265.6261978004

             Standard Nuclear Orientation (Angstroms)
    I     Atom           X                Y                Z
 ----------------------------------------------------------------
    1      Br      0.1149323959     1.3769342033    -0.7291107427
    2      Br     -0.5437603123     2.0360825228     2.1058680133
    3      C      -0.3145601447    -0.6757176029    -0.6188531710
    4      C       0.7777371032    -1.2796721522     0.1064001897
    5      C      -1.6992942086    -0.8111805111    -0.0139482968
    6      H      -0.2909666387    -0.8849369394    -1.6888462363
    7      H       0.7355896497    -1.3561248198     1.1877024215
    8      H       1.7141469784    -1.5075525547    -0.3902117522
    9      H      -1.7096072684    -0.4429115045     1.0152384515
   10      H      -2.4452782214    -0.2615554882    -0.5910774876
   11      H      -1.9741453332    -1.8723711532    -0.0123543894
 ----------------------------------------------------------------

   11   -5265.6261979199      9.27e-07  Convergence criterion met
 Total energy in the final basis set =    -5265.6261979199

                    Orbital Energies (a.u.)
 --------------------------------------------------------------

 Alpha MOs
 -- Occupied --
*******-482.838 -62.540 -62.496 -56.360 -56.359 -56.357 -56.319
-56.313 -56.313 -10.277 -10.237 -10.207  -8.727  -8.683  -6.555
 -6.548  -6.543  -6.516  -6.499  -6.499  -2.649  -2.648  -2.644
 -2.639  -2.638  -2.608  -2.604  -2.603  -2.591  -2.591  -0.857
 -0.775  -0.737  -0.719  -0.606  -0.505  -0.462  -0.454  -0.404
 -0.396  -0.380  -0.354  -0.314  -0.275  -0.270  -0.264  -0.248

 Beta MOs
 -- Occupied --
*******-482.836 -62.539 -62.495 -56.359 -56.357 -56.356 -56.314
-56.312 -56.312 -10.278 -10.225 -10.206  -8.725  -8.680  -6.551
 -6.545  -6.542  -6.507  -6.498  -6.498  -2.646  -2.645  -2.642
 -2.637  -2.636  -2.601  -2.599  -2.599  -2.591  -2.591  -0.845
 -0.755  -0.707  -0.701  -0.597  -0.499  -0.457  -0.447  -0.398
 -0.392  -0.365  -0.316  -0.305  -0.264  -0.259

          Ground-State Mulliken Net Atomic Charges

     Atom                 Charge (a.u.)    Spin (a.u.)
  --------------------------------------------------------
      1 Br                   -0.002094       0.480650
      2 Br                   -0.227701       0.745352
      3 C                    -0.154663      -0.078989
      4 C                    -0.166841       0.916678
      5 C                    -0.323967       0.008412
      6 H                     0.164067       0.008658
      7 H                     0.148990      -0.039555
      8 H                     0.134803      -0.039868
      9 H                     0.162696      -0.001441
     10 H                     0.136146       0.002216
     11 H                     0.128566      -0.002113
  --------------------------------------------------------
  Sum of atomic charges =     0.000000

                    Cartesian Multipole Moments
 -----------------------------------------------------------------
    Charge (ESU x 10^10)
                 0.0000
    Dipole Moment (Debye)
         X       0.1018      Y      -3.9691      Z      -2.3925
       Tot       4.6356
    Quadrupole Moments (Debye-Ang)
        XX     -55.2667     XY       0.9573     YY     -60.2904
        XZ       0.9512     YZ      -3.5541     ZZ     -58.6287

 Final energy is   -5265.62619791992
 **  OPTIMIZATION CONVERGED  **
 Total job time:  122.15s(wall), 1410.12s(cpu)
        *  Thank you very much for using Q-Chem.  Have a nice day.  *
