 Q-Chem 5.1, Q-Chem, Inc., Pleasanton, CA (2018)
 Q-Chem 5.1.1 for Intel X86 EM64T Linux

User input:
--------------------------------------------------------------

$comment
potential surface scanner
$end

$rem
JOBTYPE  PES_SCAN
UNRESTRICTED TRUE
SYM_IGNORE  TRUE
GEOM_OPT_MAX_CYCLES 400
SCF_MAX_CYCLES 400
METHOD   B3LYP
BASIS   6-31G**
PDB_PRINT 2
SCF_CONVERGENCE 6
THRESH 14
SCF_PRINT 1
$end
$molecule
0 3
Br 2.441455 2.525998 -0.409141
Br -0.126836 1.780071 0.831407
C -0.745297 -0.927493 -0.498647
C 0.428264 -0.593180 0.141151
C -1.928064 -1.543096 0.161374
H -0.842734 -0.671276 -1.552434
H 0.609869 -0.924665 1.158494
H 1.285456 -0.224440 -0.412594
H -1.738982 -1.786232 1.209561
H -2.786497 -0.859897 0.110109
H -2.231837 -2.454794 -0.368475
$end
$scan
stre 1 3 4.600000 4.601000 0.100000
$end
--------------------------------------------------------------

   14   -5265.6352998177      6.99e-07  Convergence criterion met
 Total energy in the final basis set =    -5265.6352998177
   14   -5265.6352427471      6.58e-07  Convergence criterion met
 Total energy in the final basis set =    -5265.6352427471
   14   -5265.6353625451      6.64e-07  Convergence criterion met
 Total energy in the final basis set =    -5265.6353625451
   14   -5265.6353995328      6.58e-07  Convergence criterion met
 Total energy in the final basis set =    -5265.6353995328
   14   -5265.6354030133      6.61e-07  Convergence criterion met
 Total energy in the final basis set =    -5265.6354030133
   14   -5265.6354073774      6.68e-07  Convergence criterion met
 Total energy in the final basis set =    -5265.6354073774
   14   -5265.6354087406      6.70e-07  Convergence criterion met
 Total energy in the final basis set =    -5265.6354087406
   14   -5265.6354117695      6.74e-07  Convergence criterion met
 Total energy in the final basis set =    -5265.6354117695
   14   -5265.6354131922      6.73e-07  Convergence criterion met
 Total energy in the final basis set =    -5265.6354131922
   14   -5265.6354143277      6.69e-07  Convergence criterion met
 Total energy in the final basis set =    -5265.6354143277

             Standard Nuclear Orientation (Angstroms)
    I     Atom           X                Y                Z
 ----------------------------------------------------------------
    1      Br      2.3707788582     2.4837773030    -0.4577469345
    2      Br     -0.1453747943     1.7639171376     0.8733637758
    3      C      -0.7335670017    -0.9106027174    -0.4927076084
    4      C       0.4444004008    -0.6093007369     0.1494975406
    5      C      -1.9234741053    -1.5257314138     0.1558287139
    6      H      -0.8260862045    -0.6388417696    -1.5429573523
    7      H       0.6226176297    -0.9497303991     1.1644595349
    8      H       1.3003149283    -0.2366300237    -0.4025257724
    9      H      -1.7495666868    -1.7540291661     1.2100036937
   10      H      -2.7876721815    -0.8531070231     0.0796158766
   11      H      -2.2075738429    -2.4487251909    -0.3660264679
 ----------------------------------------------------------------

   14   -5265.6354148149      6.67e-07  Convergence criterion met
 Total energy in the final basis set =    -5265.6354148149

                    Orbital Energies (a.u.)
 --------------------------------------------------------------

 Alpha MOs
 -- Occupied --
*******-482.830 -62.529 -62.487 -56.350 -56.348 -56.346 -56.310
-56.305 -56.304 -10.265 -10.254 -10.225  -8.716  -8.674  -6.544
 -6.538  -6.532  -6.506  -6.491  -6.490  -2.638  -2.638  -2.633
 -2.628  -2.627  -2.598  -2.595  -2.594  -2.583  -2.583  -0.849
 -0.780  -0.734  -0.727  -0.610  -0.518  -0.474  -0.460  -0.418
 -0.402  -0.373  -0.352  -0.306  -0.273  -0.262  -0.261  -0.253

 Beta MOs
 -- Occupied --
*******-482.828 -62.528 -62.486 -56.347 -56.346 -56.345 -56.305
-56.304 -56.303 -10.259 -10.253 -10.225  -8.712  -8.671  -6.537
 -6.533  -6.530  -6.498  -6.490  -6.489  -2.632  -2.632  -2.629
 -2.625  -2.625  -2.592  -2.590  -2.590  -2.582  -2.582  -0.836
 -0.752  -0.724  -0.695  -0.603  -0.514  -0.471  -0.450  -0.415
 -0.399  -0.335  -0.308  -0.294  -0.256  -0.251

          Ground-State Mulliken Net Atomic Charges

     Atom                 Charge (a.u.)    Spin (a.u.)
  --------------------------------------------------------
      1 Br                   -0.250740       0.726377
      2 Br                   -0.094113       0.813162
      3 C                     0.021787       0.443497
      4 C                    -0.247224       0.024545
      5 C                    -0.361450      -0.030836
      6 H                     0.142790      -0.019525
      7 H                     0.160062      -0.000485
      8 H                     0.191369       0.000738
      9 H                     0.135296       0.000374
     10 H                     0.157107       0.023143
     11 H                     0.145117       0.019010
  --------------------------------------------------------
  Sum of atomic charges =    -0.000000

                    Cartesian Multipole Moments
 -----------------------------------------------------------------
    Charge (ESU x 10^10)
                -0.0000
    Dipole Moment (Debye)
         X      -3.5418      Y      -5.4077      Z      -0.1620
       Tot       6.4664
    Quadrupole Moments (Debye-Ang)
        XX     -58.9669     XY      -4.3980     YY     -63.5013
        XZ       1.1021     YZ       0.5260     ZZ     -56.0929

 Final energy is   -5265.63541481494
 **  OPTIMIZATION CONVERGED  **
 Total job time:  68.90s(wall), 803.49s(cpu)
        *  Thank you very much for using Q-Chem.  Have a nice day.  *
