 Q-Chem 5.1, Q-Chem, Inc., Pleasanton, CA (2018)
 Q-Chem 5.1.1 for Intel X86 EM64T Linux

User input:
--------------------------------------------------------------

$comment
potential surface scanner
$end

$rem
JOBTYPE  PES_SCAN
UNRESTRICTED TRUE
SYM_IGNORE  TRUE
GEOM_OPT_MAX_CYCLES 400
SCF_MAX_CYCLES 400
METHOD   B3LYP
BASIS   6-31G**
PDB_PRINT 2
SCF_CONVERGENCE 6
THRESH 14
SCF_PRINT 1
$end
$molecule
0 3
Br 1.791730 2.609627 -1.048625
Br 0.050954 1.650332 1.112246
C -0.637371 -0.882640 -0.421294
C 0.505053 -0.741315 0.329443
C -1.920303 -1.447257 0.077765
H -0.621435 -0.511646 -1.444706
H 0.567075 -1.165134 1.327175
H 1.431770 -0.416042 -0.128677
H -1.851448 -1.780413 1.115921
H -2.720479 -0.700287 -0.000597
H -2.230750 -2.294231 -0.547844
$end
$scan
stre 1 3 4.200000 4.201000 0.100000
$end
--------------------------------------------------------------

   14   -5265.6354345200      4.92e-07  Convergence criterion met
 Total energy in the final basis set =    -5265.6354345200
   14   -5265.6354275829      4.70e-07  Convergence criterion met
 Total energy in the final basis set =    -5265.6354275829
   14   -5265.6354672445      4.81e-07  Convergence criterion met
 Total energy in the final basis set =    -5265.6354672445
   14   -5265.6354830831      4.95e-07  Convergence criterion met
 Total energy in the final basis set =    -5265.6354830831
   14   -5265.6354887543      5.01e-07  Convergence criterion met
 Total energy in the final basis set =    -5265.6354887543
   14   -5265.6354956849      5.06e-07  Convergence criterion met
 Total energy in the final basis set =    -5265.6354956849
   14   -5265.6355005964      5.05e-07  Convergence criterion met
 Total energy in the final basis set =    -5265.6355005964
   14   -5265.6355056328      4.97e-07  Convergence criterion met
   14   -5265.6355334560      4.71e-07  Convergence criterion met
 Total energy in the final basis set =    -5265.6355334560
   14   -5265.6354346443      5.27e-07  Convergence criterion met
 Total energy in the final basis set =    -5265.6354346443
   14   -5265.6355528619      4.78e-07  Convergence criterion met
 Total energy in the final basis set =    -5265.6355528619
   14   -5265.6355592346      4.82e-07  Convergence criterion met
 Total energy in the final basis set =    -5265.6355592346
   14   -5265.6355627316      4.94e-07  Convergence criterion met
 Total energy in the final basis set =    -5265.6355627316
   14   -5265.6355639977      4.91e-07  Convergence criterion met
 Total energy in the final basis set =    -5265.6355639977

             Standard Nuclear Orientation (Angstroms)
    I     Atom           X                Y                Z
 ----------------------------------------------------------------
    1      Br      1.5137367989     2.6558168515    -1.2088583657
    2      Br      0.2003213225     1.5973684960     1.2035369244
    3      C      -0.6026352388    -0.8819229622    -0.4055109561
    4      C       0.5176021877    -0.7739783764     0.3875861411
    5      C      -1.9163999205    -1.4121225419     0.0471068190
    6      H      -0.5390257782    -0.5094733662    -1.4263756247
    7      H       0.5314712179    -1.2096647922     1.3819989601
    8      H       1.4729292758    -0.5010404170    -0.0447912939
    9      H      -1.8919557823    -1.7529884977     1.0847747369
   10      H      -2.6933828014    -0.6436987417    -0.0546688130
   11      H      -2.2278652816    -2.2473016520    -0.5939915281
 ----------------------------------------------------------------

   14   -5265.6355644795      4.91e-07  Convergence criterion met
 Total energy in the final basis set =    -5265.6355644795

                    Orbital Energies (a.u.)
 --------------------------------------------------------------

 Alpha MOs
 -- Occupied --
*******-482.829 -62.529 -62.486 -56.350 -56.348 -56.346 -56.309
-56.304 -56.304 -10.264 -10.256 -10.224  -8.716  -8.673  -6.544
 -6.538  -6.532  -6.506  -6.490  -6.490  -2.638  -2.637  -2.633
 -2.628  -2.627  -2.598  -2.594  -2.593  -2.582  -2.582  -0.849
 -0.780  -0.734  -0.726  -0.610  -0.518  -0.474  -0.459  -0.418
 -0.401  -0.374  -0.352  -0.306  -0.272  -0.261  -0.260  -0.252

 Beta MOs
 -- Occupied --
*******-482.827 -62.527 -62.485 -56.346 -56.345 -56.345 -56.305
-56.303 -56.303 -10.258 -10.255 -10.224  -8.712  -8.670  -6.537
 -6.533  -6.530  -6.497  -6.489  -6.488  -2.632  -2.632  -2.629
 -2.625  -2.625  -2.592  -2.589  -2.589  -2.581  -2.581  -0.836
 -0.752  -0.724  -0.694  -0.603  -0.514  -0.471  -0.448  -0.415
 -0.399  -0.338  -0.308  -0.294  -0.255  -0.250

          Ground-State Mulliken Net Atomic Charges

     Atom                 Charge (a.u.)    Spin (a.u.)
  --------------------------------------------------------
      1 Br                   -0.254911       0.728247
      2 Br                   -0.091990       0.805858
      3 C                     0.025839       0.456854
      4 C                    -0.252680       0.016464
      5 C                    -0.362679      -0.031978
      6 H                     0.153914      -0.020094
      7 H                     0.156417      -0.000705
      8 H                     0.187491       0.001406
      9 H                     0.132766       0.000362
     10 H                     0.160237       0.024506
     11 H                     0.145596       0.019080
  --------------------------------------------------------
  Sum of atomic charges =    -0.000000

                    Cartesian Multipole Moments
 -----------------------------------------------------------------
    Charge (ESU x 10^10)
                -0.0000
    Dipole Moment (Debye)
         X      -2.6389      Y      -5.6288      Z       0.6779
       Tot       6.2535
    Quadrupole Moments (Debye-Ang)
        XX     -56.1823     XY      -3.0875     YY     -64.3244
        XZ       2.0589     YZ       2.2133     ZZ     -56.9761

 Final energy is   -5265.63556447946
 **  OPTIMIZATION CONVERGED  **
 Total job time:  127.19s(wall), 1474.49s(cpu)
        *  Thank you very much for using Q-Chem.  Have a nice day.  *
