 Q-Chem 5.1, Q-Chem, Inc., Pleasanton, CA (2018)
 Q-Chem 5.1.1 for Intel X86 EM64T Linux

User input:
--------------------------------------------------------------

$comment
potential surface scanner
$end

$rem
JOBTYPE  PES_SCAN
UNRESTRICTED TRUE
SYM_IGNORE  TRUE
GEOM_OPT_MAX_CYCLES 400
SCF_MAX_CYCLES 400
METHOD   B3LYP
BASIS   6-31G**
PDB_PRINT 2
SCF_CONVERGENCE 6
THRESH 14
SCF_PRINT 1
$end
$molecule
0 3
Br 0.712739 2.289355 -1.428698
Br 0.367850 1.498849 1.391594
C -0.490473 -0.826016 -0.381443
C 0.581155 -0.828604 0.488958
C -1.860868 -1.280945 -0.028335
H -0.338510 -0.415110 -1.376540
H 0.501597 -1.311420 1.458253
H 1.579523 -0.618365 0.123796
H -1.930272 -1.648731 0.998190
H -2.577445 -0.460399 -0.161558
H -2.180503 -2.077616 -0.713411
$end
$scan
stre 1 3 3.400000 3.401000 0.100000
$end
--------------------------------------------------------------

   14   -5265.6352910708      4.70e-07  Convergence criterion met
 Total energy in the final basis set =    -5265.6352910708
   13   -5265.6342976910      7.86e-07  Convergence criterion met
 Total energy in the final basis set =    -5265.6342976910
   13   -5265.6343493614      8.75e-07  Convergence criterion met
 Total energy in the final basis set =    -5265.6343493614
   14   -5265.6344075076      4.27e-07  Convergence criterion met
 Total energy in the final basis set =    -5265.6344075076
   14   -5265.6344342519      3.95e-07  Convergence criterion met
 Total energy in the final basis set =    -5265.6344342519
   14   -5265.6344420617      3.91e-07  Convergence criterion met
 Total energy in the final basis set =    -5265.6344420617
   14   -5265.6344518285      3.80e-07  Convergence criterion met
 Total energy in the final basis set =    -5265.6344518285
   13   -5265.6344542388      9.91e-07  Convergence criterion met
 Total energy in the final basis set =    -5265.6344542388
   13   -5265.6344569537      9.64e-07  Convergence criterion met
 Total energy in the final basis set =    -5265.6344569537

             Standard Nuclear Orientation (Angstroms)
    I     Atom           X                Y                Z
 ----------------------------------------------------------------
    1      Br      0.5944633549     2.2382295015    -1.4083405146
    2      Br      0.3902878839     1.4703694636     1.4303314760
    3      C      -0.4740123137    -0.8247923631    -0.3903732637
    4      C       0.5910450525    -0.8227949648     0.4918958446
    5      C      -1.8520289739    -1.2561186806    -0.0376178279
    6      H      -0.3125314364    -0.4511253268    -1.3966455422
    7      H       0.5008510232    -1.3083253676     1.4587793282
    8      H       1.5943800569    -0.6302907736     0.1304592553
    9      H      -1.9356999754    -1.5968767673     0.9970786691
   10      H      -2.5581687091    -0.4314221091    -0.1984273821
   11      H      -2.1737929629    -2.0658546121    -0.7063340427
 ----------------------------------------------------------------

   13   -5265.6344572658      9.57e-07  Convergence criterion met
 Total energy in the final basis set =    -5265.6344572658

                    Orbital Energies (a.u.)
 --------------------------------------------------------------

 Alpha MOs
 -- Occupied --
*******-482.830 -62.527 -62.487 -56.348 -56.347 -56.344 -56.310
-56.305 -56.305 -10.261 -10.258 -10.220  -8.715  -8.674  -6.542
 -6.537  -6.530  -6.506  -6.491  -6.491  -2.636  -2.636  -2.631
 -2.627  -2.626  -2.598  -2.595  -2.594  -2.583  -2.583  -0.848
 -0.779  -0.732  -0.727  -0.608  -0.516  -0.473  -0.456  -0.414
 -0.400  -0.376  -0.351  -0.305  -0.267  -0.265  -0.261  -0.253

 Beta MOs
 -- Occupied --
*******-482.828 -62.526 -62.486 -56.345 -56.344 -56.343 -56.306
-56.304 -56.304 -10.257 -10.254 -10.221  -8.711  -8.671  -6.536
 -6.532  -6.528  -6.498  -6.490  -6.489  -2.631  -2.630  -2.627
 -2.624  -2.623  -2.593  -2.590  -2.590  -2.582  -2.582  -0.833
 -0.752  -0.721  -0.697  -0.600  -0.512  -0.469  -0.445  -0.412
 -0.398  -0.340  -0.307  -0.293  -0.257  -0.253

          Ground-State Mulliken Net Atomic Charges

     Atom                 Charge (a.u.)    Spin (a.u.)
  --------------------------------------------------------
      1 Br                   -0.272957       0.700180
      2 Br                   -0.090676       0.785677
      3 C                     0.036759       0.498479
      4 C                    -0.255437       0.025638
      5 C                    -0.365401      -0.034995
      6 H                     0.165691      -0.022210
      7 H                     0.158132      -0.000646
      8 H                     0.182714      -0.000118
      9 H                     0.131066       0.000405
     10 H                     0.165283       0.026388
     11 H                     0.144827       0.021200
  --------------------------------------------------------
  Sum of atomic charges =    -0.000000

                    Cartesian Multipole Moments
 -----------------------------------------------------------------
    Charge (ESU x 10^10)
                 0.0000
    Dipole Moment (Debye)
         X      -1.5664      Y      -5.2344      Z       0.8489
       Tot       5.5293
    Quadrupole Moments (Debye-Ang)
        XX     -54.4480     XY      -0.8806     YY     -62.3528
        XZ       1.4666     YZ       2.2339     ZZ     -57.5871

 Final energy is   -5265.63445726584
 **  OPTIMIZATION CONVERGED  **
 Total job time:  64.27s(wall), 748.73s(cpu)
        *  Thank you very much for using Q-Chem.  Have a nice day.  *
