 Q-Chem 5.1, Q-Chem, Inc., Pleasanton, CA (2018)
 Q-Chem 5.1.1 for Intel X86 EM64T Linux

User input:
--------------------------------------------------------------

$comment
potential surface scanner
$end

$rem
JOBTYPE  PES_SCAN
UNRESTRICTED TRUE
SYM_IGNORE  TRUE
GEOM_OPT_MAX_CYCLES 400
SCF_MAX_CYCLES 400
METHOD   B3LYP
BASIS   6-31G**
PDB_PRINT 2
SCF_CONVERGENCE 6
THRESH 14
SCF_PRINT 1
$end
$molecule
0 1
Br -0.621000 1.744900 0.138600
Br 2.339300 0.022500 -0.135100
C -0.519000 -0.151000 -0.364100
C 0.644500 -0.814800 0.353000
C -1.843800 -0.801500 0.007700
H -0.380000 -0.157800 -1.450100
H 0.570800 -0.733000 1.441800
H 0.738000 -1.869500 0.078300
H -2.034600 -0.746700 1.085500
H -2.681600 -0.314200 -0.503400
H -1.847800 -1.857900 -0.281400
$end
$scan
stre 1 3 2.600000 2.601000 0.100000
$end
--------------------------------------------------------------

    9   -5265.7112865010      6.36e-07  Convergence criterion met
 Total energy in the final basis set =    -5265.7112865010
   10   -5265.7095385165      4.95e-07  Convergence criterion met
 Total energy in the final basis set =    -5265.7095385165
   10   -5265.7003179073      9.96e-07  Convergence criterion met
 Total energy in the final basis set =    -5265.7003179073
   11   -5265.6894114580      2.66e-07  Convergence criterion met
 Total energy in the final basis set =    -5265.6894114580
   11   -5265.6788893217      4.50e-07  Convergence criterion met
 Total energy in the final basis set =    -5265.6788893217
   11   -5265.6762650014      5.13e-07  Convergence criterion met
 Total energy in the final basis set =    -5265.6762650014
   11   -5265.6776615156      5.13e-07  Convergence criterion met
 Total energy in the final basis set =    -5265.6776615156
   11   -5265.6779544773      5.14e-07  Convergence criterion met
   11   -5265.6784178060      5.20e-07  Convergence criterion met
 Total energy in the final basis set =    -5265.6784178060
   11   -5265.6784637940      5.19e-07  Convergence criterion met
 Total energy in the final basis set =    -5265.6784637940
   11   -5265.6784852456      5.17e-07  Convergence criterion met
 Total energy in the final basis set =    -5265.6784852456
   11   -5265.6784923962      5.16e-07  Convergence criterion met
 Total energy in the final basis set =    -5265.6784923962
   11   -5265.6784962323      5.16e-07  Convergence criterion met
 Total energy in the final basis set =    -5265.6784962323
   11   -5265.6784979856      5.15e-07  Convergence criterion met
 Total energy in the final basis set =    -5265.6784979856

             Standard Nuclear Orientation (Angstroms)
    I     Atom           X                Y                Z
 ----------------------------------------------------------------
    1      Br     -0.7176753358     2.1727726322     0.2912551455
    2      Br      2.3947206914    -0.1893351863    -0.3010583750
    3      C      -0.5147964206    -0.3259848737    -0.3979842304
    4      C       0.6673943378    -0.8109690895     0.3703110697
    5      C      -1.8514369269    -0.8784492011    -0.0278972456
    6      H      -0.3513729897    -0.0760430961    -1.4420474273
    7      H       0.6052627249    -0.5387375078     1.4230706906
    8      H       0.6972365999    -1.9054373822     0.2942861666
    9      H      -2.0073479030    -0.8870063094     1.0530623432
   10      H      -2.6569482297    -0.3200035077    -0.5052848678
   11      H      -1.9002365482    -1.9198064785    -0.3869132695
 ----------------------------------------------------------------

   11   -5265.6784988621      5.15e-07  Convergence criterion met
 Total energy in the final basis set =    -5265.6784988621

                    Orbital Energies (a.u.)
 --------------------------------------------------------------

 Alpha MOs
 -- Occupied --
*******-482.821 -62.527 -62.478 -56.349 -56.345 -56.344 -56.299
-56.296 -56.296 -10.304 -10.278 -10.228  -8.714  -8.664  -6.545
 -6.531  -6.531  -6.493  -6.482  -6.482  -2.639  -2.635  -2.634
 -2.623  -2.623  -2.586  -2.583  -2.583  -2.575  -2.575  -0.865
 -0.798  -0.712  -0.708  -0.622  -0.503  -0.487  -0.467  -0.445
 -0.409  -0.391  -0.296  -0.295  -0.289  -0.256  -0.254

 Beta MOs
 -- Occupied --
*******-482.821 -62.527 -62.478 -56.349 -56.345 -56.344 -56.299
-56.296 -56.296 -10.304 -10.278 -10.228  -8.714  -8.664  -6.545
 -6.531  -6.531  -6.493  -6.482  -6.482  -2.639  -2.635  -2.634
 -2.623  -2.623  -2.586  -2.583  -2.583  -2.575  -2.575  -0.865
 -0.798  -0.712  -0.708  -0.622  -0.503  -0.487  -0.467  -0.445
 -0.409  -0.391  -0.296  -0.295  -0.289  -0.256  -0.254

          Ground-State Mulliken Net Atomic Charges

     Atom                 Charge (a.u.)    Spin (a.u.)
  --------------------------------------------------------
      1 Br                   -0.336788      -0.000000
      2 Br                   -0.051464       0.000000
      3 C                    -0.029237       0.000000
      4 C                    -0.263643      -0.000000
      5 C                    -0.337928      -0.000000
      6 H                     0.190796       0.000000
      7 H                     0.198415      -0.000000
      8 H                     0.170503      -0.000000
      9 H                     0.153470       0.000000
     10 H                     0.169152      -0.000000
     11 H                     0.136724       0.000000
  --------------------------------------------------------
  Sum of atomic charges =     0.000000

                    Cartesian Multipole Moments
 -----------------------------------------------------------------
    Charge (ESU x 10^10)
                 0.0000
    Dipole Moment (Debye)
         X      -1.4211      Y      -5.0668      Z      -0.3118
       Tot       5.2716
    Quadrupole Moments (Debye-Ang)
        XX     -57.5378     XY       4.0340     YY     -61.2033
        XZ       1.1518     YZ      -1.2028     ZZ     -55.2340

 Final energy is   -5265.67849886209
 **  OPTIMIZATION CONVERGED  **
 Total job time:  107.81s(wall), 1253.40s(cpu)
        *  Thank you very much for using Q-Chem.  Have a nice day.  *
