 Q-Chem 5.1, Q-Chem, Inc., Pleasanton, CA (2018)
 Q-Chem 5.1.1 for Intel X86 EM64T Linux

User input:
--------------------------------------------------------------

$comment
potential surface scanner
$end

$rem
JOBTYPE  PES_SCAN
UNRESTRICTED TRUE
SYM_IGNORE  TRUE
GEOM_OPT_MAX_CYCLES 400
SCF_MAX_CYCLES 400
METHOD   B3LYP
BASIS   6-31G**
PDB_PRINT 2
SCF_CONVERGENCE 6
THRESH 14
SCF_PRINT 1
$end
$molecule
0 3
Br 2.501059 2.584318 -0.358453
Br -0.101880 1.791797 0.797177
C -0.758530 -0.936244 -0.502426
C 0.416610 -0.592281 0.129657
C -1.934591 -1.553598 0.167610
H -0.862291 -0.688384 -1.557621
H 0.603424 -0.914094 1.149025
H 1.272554 -0.234638 -0.431756
H -1.738474 -1.789694 1.216103
H -2.797446 -0.875905 0.116744
H -2.235638 -2.470280 -0.355254
$end
$scan
stre 1 3 4.700000 4.701000 0.100000
$end
--------------------------------------------------------------

   14   -5265.6349740981      7.04e-07  Convergence criterion met
 Total energy in the final basis set =    -5265.6349740981
   14   -5265.6351660609      6.70e-07  Convergence criterion met
 Total energy in the final basis set =    -5265.6351660609
   14   -5265.6352638588      6.84e-07  Convergence criterion met
 Total energy in the final basis set =    -5265.6352638588
   14   -5265.6352941746      6.95e-07  Convergence criterion met
 Total energy in the final basis set =    -5265.6352941746
   14   -5265.6352975465      6.97e-07  Convergence criterion met
 Total energy in the final basis set =    -5265.6352975465
   14   -5265.6352994987      6.99e-07  Convergence criterion met
 Total energy in the final basis set =    -5265.6352994987

             Standard Nuclear Orientation (Angstroms)
    I     Atom           X                Y                Z
 ----------------------------------------------------------------
    1      Br      2.4414553727     2.5259984695    -0.4091412298
    2      Br     -0.1268356158     1.7800712818     0.8314073915
    3      C      -0.7452967628    -0.9274926379    -0.4986471200
    4      C       0.4282642540    -0.5931797605     0.1411511459
    5      C      -1.9280642585    -1.5430959369     0.1613737968
    6      H      -0.8427344637    -0.6712759839    -1.5524338775
    7      H       0.6098691377    -0.9246648678     1.1584941024
    8      H       1.2854557576    -0.2244400175    -0.4125938707
    9      H      -1.7389818257    -1.7862319441     1.2095614928
   10      H      -2.7864971594    -0.8598972487     0.1101089004
   11      H      -2.2318374361    -2.4547943539    -0.3684747319
 ----------------------------------------------------------------

   14   -5265.6352998172      6.99e-07  Convergence criterion met
 Total energy in the final basis set =    -5265.6352998172

                    Orbital Energies (a.u.)
 --------------------------------------------------------------

 Alpha MOs
 -- Occupied --
*******-482.830 -62.529 -62.487 -56.350 -56.348 -56.346 -56.310
-56.305 -56.304 -10.266 -10.255 -10.225  -8.716  -8.674  -6.544
 -6.538  -6.531  -6.506  -6.491  -6.490  -2.638  -2.637  -2.632
 -2.628  -2.627  -2.598  -2.595  -2.594  -2.583  -2.583  -0.849
 -0.780  -0.734  -0.727  -0.611  -0.518  -0.474  -0.460  -0.419
 -0.402  -0.373  -0.351  -0.305  -0.273  -0.262  -0.261  -0.254

 Beta MOs
 -- Occupied --
*******-482.828 -62.527 -62.486 -56.346 -56.345 -56.345 -56.306
-56.304 -56.304 -10.259 -10.254 -10.225  -8.712  -8.671  -6.537
 -6.533  -6.529  -6.498  -6.490  -6.489  -2.632  -2.631  -2.628
 -2.625  -2.624  -2.592  -2.590  -2.590  -2.582  -2.582  -0.836
 -0.752  -0.724  -0.695  -0.603  -0.514  -0.471  -0.450  -0.416
 -0.400  -0.336  -0.308  -0.293  -0.256  -0.251

          Ground-State Mulliken Net Atomic Charges

     Atom                 Charge (a.u.)    Spin (a.u.)
  --------------------------------------------------------
      1 Br                   -0.247982       0.729960
      2 Br                   -0.095555       0.802202
      3 C                     0.022306       0.463128
      4 C                    -0.250683       0.010904
      5 C                    -0.361847      -0.032437
      6 H                     0.142155      -0.020349
      7 H                     0.161033      -0.000012
      8 H                     0.192322       0.001774
      9 H                     0.135291       0.000487
     10 H                     0.158130       0.025469
     11 H                     0.144828       0.018875
  --------------------------------------------------------
  Sum of atomic charges =     0.000000

                    Cartesian Multipole Moments
 -----------------------------------------------------------------
    Charge (ESU x 10^10)
                -0.0000
    Dipole Moment (Debye)
         X      -3.6289      Y      -5.4612      Z      -0.2076
       Tot       6.5602
    Quadrupole Moments (Debye-Ang)
        XX     -59.1974     XY      -4.5607     YY     -63.7131
        XZ       1.0008     YZ       0.4280     ZZ     -56.0758

 Final energy is   -5265.63529981720
 **  OPTIMIZATION CONVERGED  **
 Total job time:  44.20s(wall), 511.81s(cpu)
        *  Thank you very much for using Q-Chem.  Have a nice day.  *
