 Q-Chem 5.1, Q-Chem, Inc., Pleasanton, CA (2018)
 Q-Chem 5.1.1 for Intel X86 EM64T Linux

User input:
--------------------------------------------------------------

$comment
potential surface scanner
$end

$rem
JOBTYPE  PES_SCAN
UNRESTRICTED TRUE
SYM_IGNORE  TRUE
GEOM_OPT_MAX_CYCLES 400
SCF_MAX_CYCLES 400
METHOD   B3LYP
BASIS   6-31G**
PDB_PRINT 2
SCF_CONVERGENCE 6
THRESH 14
SCF_PRINT 1
$end
$molecule
0 3
Br 1.513737 2.655817 -1.208858
Br 0.200321 1.597368 1.203537
C -0.602635 -0.881923 -0.405511
C 0.517602 -0.773978 0.387586
C -1.916400 -1.412123 0.047107
H -0.539026 -0.509473 -1.426376
H 0.531471 -1.209665 1.381999
H 1.472929 -0.501040 -0.044791
H -1.891956 -1.752988 1.084775
H -2.693383 -0.643699 -0.054669
H -2.227865 -2.247302 -0.593992
$end
$scan
stre 1 3 4.100000 4.101000 0.100000
$end
--------------------------------------------------------------

   14   -5265.6355644794      4.91e-07  Convergence criterion met
 Total energy in the final basis set =    -5265.6355644794
   14   -5265.6355677883      4.57e-07  Convergence criterion met
 Total energy in the final basis set =    -5265.6355677883
   14   -5265.6355919767      4.67e-07  Convergence criterion met
 Total energy in the final basis set =    -5265.6355919767
   14   -5265.6355992957      4.78e-07  Convergence criterion met
 Total energy in the final basis set =    -5265.6355992957
   14   -5265.6356021985      4.84e-07  Convergence criterion met
 Total energy in the final basis set =    -5265.6356021985
   14   -5265.6356072346      4.94e-07  Convergence criterion met
 Total energy in the final basis set =    -5265.6356072346
   14   -5265.6356122947      5.00e-07  Convergence criterion met
 Total energy in the final basis set =    -5265.6356122947
   14   -5265.6356170461      4.97e-07  Convergence criterion met
 Total energy in the final basis set =    -5265.6356170461
   14   -5265.6356204882      4.87e-07  Convergence criterion met
 Total energy in the final basis set =    -5265.6356204882
   14   -5265.6356226752      4.80e-07  Convergence criterion met
 Total energy in the final basis set =    -5265.6356226752

             Standard Nuclear Orientation (Angstroms)
    I     Atom           X                Y                Z
 ----------------------------------------------------------------
    1      Br      1.4129143996     2.6043257275    -1.2637387465
    2      Br      0.2278112607     1.5919940872     1.2280405884
    3      C      -0.5900594388    -0.8661083985    -0.3953015146
    4      C       0.5255649410    -0.7871287348     0.4064274534
    5      C      -1.9103838620    -1.3976172770     0.0360971245
    6      H      -0.5159317007    -0.4699644182    -1.4063960116
    7      H       0.5273499699    -1.2357037833     1.3952094135
    8      H       1.4861658185    -0.5153449236    -0.0144009214
    9      H      -1.8983510035    -1.7523483970     1.0693583962
   10      H      -2.6846397609    -0.6266633594    -0.0655643944
   11      H      -2.2156456239    -2.2244465228    -0.6189243876
 ----------------------------------------------------------------

   14   -5265.6356231491      4.81e-07  Convergence criterion met
 Total energy in the final basis set =    -5265.6356231491

                    Orbital Energies (a.u.)
 --------------------------------------------------------------

 Alpha MOs
 -- Occupied --
*******-482.829 -62.529 -62.486 -56.350 -56.348 -56.346 -56.309
-56.304 -56.304 -10.264 -10.256 -10.223  -8.716  -8.673  -6.544
 -6.538  -6.532  -6.506  -6.490  -6.490  -2.638  -2.637  -2.633
 -2.628  -2.627  -2.598  -2.594  -2.594  -2.583  -2.582  -0.849
 -0.780  -0.734  -0.726  -0.610  -0.518  -0.474  -0.459  -0.417
 -0.401  -0.374  -0.352  -0.306  -0.272  -0.261  -0.260  -0.252

 Beta MOs
 -- Occupied --
*******-482.827 -62.527 -62.485 -56.347 -56.345 -56.345 -56.305
-56.303 -56.303 -10.258 -10.255 -10.224  -8.712  -8.670  -6.537
 -6.533  -6.530  -6.497  -6.489  -6.488  -2.632  -2.632  -2.629
 -2.625  -2.625  -2.592  -2.589  -2.589  -2.582  -2.582  -0.836
 -0.752  -0.724  -0.694  -0.602  -0.514  -0.471  -0.448  -0.415
 -0.399  -0.337  -0.308  -0.294  -0.255  -0.250

          Ground-State Mulliken Net Atomic Charges

     Atom                 Charge (a.u.)    Spin (a.u.)
  --------------------------------------------------------
      1 Br                   -0.257769       0.724864
      2 Br                   -0.091417       0.810564
      3 C                     0.026167       0.450345
      4 C                    -0.251737       0.021862
      5 C                    -0.362981      -0.031539
      6 H                     0.156394      -0.019803
      7 H                     0.155292      -0.001084
      8 H                     0.187292       0.001272
      9 H                     0.132551       0.000357
     10 H                     0.160235       0.023975
     11 H                     0.145973       0.019187
  --------------------------------------------------------
  Sum of atomic charges =     0.000000

                    Cartesian Multipole Moments
 -----------------------------------------------------------------
    Charge (ESU x 10^10)
                -0.0000
    Dipole Moment (Debye)
         X      -2.5363      Y      -5.5755      Z       0.7533
       Tot       6.1714
    Quadrupole Moments (Debye-Ang)
        XX     -55.9412     XY      -2.8184     YY     -64.0556
        XZ       2.0897     YZ       2.2939     ZZ     -57.1215

 Final energy is   -5265.63562314912
 **  OPTIMIZATION CONVERGED  **
 Total job time:  70.00s(wall), 813.78s(cpu)
        *  Thank you very much for using Q-Chem.  Have a nice day.  *
