 Q-Chem 5.1, Q-Chem, Inc., Pleasanton, CA (2018)
 Q-Chem 5.1.1 for Intel X86 EM64T Linux

User input:
--------------------------------------------------------------

$comment
potential surface scanner
$end

$rem
JOBTYPE  PES_SCAN
UNRESTRICTED TRUE
SYM_IGNORE  TRUE
GEOM_OPT_MAX_CYCLES 400
SCF_MAX_CYCLES 400
METHOD   B3LYP
BASIS   6-31G**
PDB_PRINT 2
SCF_CONVERGENCE 6
THRESH 14
SCF_PRINT 1
$end
$molecule
0 1
Br -0.689709 1.865993 0.184224
Br 2.404372 -0.155731 -0.237429
C -0.528005 -0.158659 -0.349287
C 0.646572 -0.780848 0.373470
C -1.843752 -0.839486 -0.011731
H -0.357271 -0.088440 -1.422344
H 0.604667 -0.601966 1.447031
H 0.646373 -1.857430 0.185640
H -2.025829 -0.846174 1.066208
H -2.680094 -0.337568 -0.501335
H -1.812525 -1.878692 -0.363648
$end
$scan
stre 1 3 2.200000 2.201000 0.100000
$end
--------------------------------------------------------------

   10   -5265.7115586398      4.57e-07  Convergence criterion met
 Total energy in the final basis set =    -5265.7115586398
   10   -5265.7066272073      6.61e-07  Convergence criterion met
 Total energy in the final basis set =    -5265.7066272073
   10   -5265.7067423237      6.68e-07  Convergence criterion met
 Total energy in the final basis set =    -5265.7067423237
   10   -5265.7068366224      6.71e-07  Convergence criterion met
 Total energy in the final basis set =    -5265.7068366224
   10   -5265.7068414708      6.73e-07  Convergence criterion met
 Total energy in the final basis set =    -5265.7068414708
   10   -5265.7068442250      6.74e-07  Convergence criterion met
 Total energy in the final basis set =    -5265.7068442250
   10   -5265.7068462890      6.75e-07  Convergence criterion met
 Total energy in the final basis set =    -5265.7068462890
   10   -5265.7068478548      6.74e-07  Convergence criterion met
 Total energy in the final basis set =    -5265.7068478548

             Standard Nuclear Orientation (Angstroms)
    I     Atom           X                Y                Z
 ----------------------------------------------------------------
    1      Br     -0.6934854965     1.9252157664     0.2094126779
    2      Br      2.4019045979    -0.1630984080    -0.2519036118
    3      C      -0.5256494428    -0.1934220732    -0.3590978144
    4      C       0.6508870375    -0.7858304626     0.3746528558
    5      C      -1.8463197866    -0.8477601652    -0.0166396857
    6      H      -0.3548619109    -0.0834637754    -1.4278438414
    7      H       0.6066783856    -0.5850146874     1.4440200036
    8      H       0.6557338143    -1.8674024412     0.2114155154
    9      H      -2.0236971628    -0.8565025076     1.0617728552
   10      H      -2.6770568529    -0.3344641229    -0.5032530671
   11      H      -1.8293341827    -1.8872581229    -0.3717368873
 ----------------------------------------------------------------

   10   -5265.7068483079      6.74e-07  Convergence criterion met
 Total energy in the final basis set =    -5265.7068483079

                    Orbital Energies (a.u.)
 --------------------------------------------------------------

 Alpha MOs
 -- Occupied --
*******-482.843 -62.519 -62.501 -56.341 -56.337 -56.337 -56.322
-56.318 -56.318 -10.282 -10.267 -10.215  -8.706  -8.687  -6.537
 -6.524  -6.523  -6.517  -6.505  -6.504  -2.630  -2.627  -2.626
 -2.616  -2.616  -2.610  -2.607  -2.607  -2.597  -2.597  -0.856
 -0.790  -0.737  -0.695  -0.609  -0.496  -0.471  -0.451  -0.434
 -0.395  -0.378  -0.334  -0.290  -0.287  -0.275  -0.270

 Beta MOs
 -- Occupied --
*******-482.843 -62.519 -62.501 -56.341 -56.337 -56.337 -56.322
-56.318 -56.318 -10.282 -10.267 -10.215  -8.706  -8.687  -6.537
 -6.524  -6.523  -6.517  -6.505  -6.504  -2.630  -2.627  -2.626
 -2.616  -2.616  -2.610  -2.607  -2.607  -2.597  -2.597  -0.856
 -0.790  -0.737  -0.695  -0.609  -0.496  -0.471  -0.451  -0.434
 -0.395  -0.378  -0.334  -0.290  -0.287  -0.275  -0.270

          Ground-State Mulliken Net Atomic Charges

     Atom                 Charge (a.u.)    Spin (a.u.)
  --------------------------------------------------------
      1 Br                   -0.176881      -0.000000
      2 Br                   -0.073749      -0.000000
      3 C                    -0.110976       0.000000
      4 C                    -0.247559      -0.000000
      5 C                    -0.323411       0.000000
      6 H                     0.176590       0.000000
      7 H                     0.179553      -0.000000
      8 H                     0.161612      -0.000000
      9 H                     0.139535      -0.000000
     10 H                     0.151056       0.000000
     11 H                     0.124231      -0.000000
  --------------------------------------------------------
  Sum of atomic charges =     0.000000

                    Cartesian Multipole Moments
 -----------------------------------------------------------------
    Charge (ESU x 10^10)
                 0.0000
    Dipole Moment (Debye)
         X      -1.6879      Y      -3.3319      Z      -0.0344
       Tot       3.7352
    Quadrupole Moments (Debye-Ang)
        XX     -58.5947     XY       2.5826     YY     -58.0129
        XZ       0.8509     YZ      -0.5802     ZZ     -55.3730

 Final energy is   -5265.70684830792
 **  OPTIMIZATION CONVERGED  **
 Total job time:  49.48s(wall), 574.13s(cpu)
        *  Thank you very much for using Q-Chem.  Have a nice day.  *
