 Q-Chem 5.1, Q-Chem, Inc., Pleasanton, CA (2018)
 Q-Chem 5.1.1 for Intel X86 EM64T Linux

User input:
--------------------------------------------------------------

$comment
potential surface scanner
$end

$rem
JOBTYPE  PES_SCAN
UNRESTRICTED TRUE
SYM_IGNORE  TRUE
GEOM_OPT_MAX_CYCLES 400
SCF_MAX_CYCLES 400
METHOD   B3LYP
BASIS   6-31G**
PDB_PRINT 2
SCF_CONVERGENCE 6
THRESH 14
SCF_PRINT 1
$end
$molecule
0 3
Br 1.278002 2.460218 -1.343032
Br 0.244789 1.582520 1.279056
C -0.572492 -0.835857 -0.383052
C 0.536130 -0.784995 0.431854
C -1.897263 -1.377936 0.019513
H -0.487246 -0.404132 -1.378415
H 0.524863 -1.261501 1.407526
H 1.501317 -0.507190 0.026033
H -1.894189 -1.771634 1.038689
H -2.667787 -0.600435 -0.058887
H -2.201331 -2.178061 -0.668479
$end
$scan
stre 1 3 3.800000 3.801000 0.100000
$end
--------------------------------------------------------------

   14   -5265.6356744558      5.29e-07  Convergence criterion met
 Total energy in the final basis set =    -5265.6356744558
   14   -5265.6355758935      4.89e-07  Convergence criterion met
 Total energy in the final basis set =    -5265.6355758935
   14   -5265.6355913460      4.85e-07  Convergence criterion met
 Total energy in the final basis set =    -5265.6355913460
   14   -5265.6355966183      4.94e-07  Convergence criterion met
 Total energy in the final basis set =    -5265.6355966183
   14   -5265.6355993680      5.07e-07  Convergence criterion met
 Total energy in the final basis set =    -5265.6355993680
   14   -5265.6356020698      5.21e-07  Convergence criterion met
 Total energy in the final basis set =    -5265.6356020698
   14   -5265.6356048160      5.31e-07  Convergence criterion met
 Total energy in the final basis set =    -5265.6356048160
   14   -5265.6356076153      5.36e-07  Convergence criterion met
   14   -5265.6356124516      5.36e-07  Convergence criterion met
 Total energy in the final basis set =    -5265.6356124516
   14   -5265.6356167447      5.39e-07  Convergence criterion met
 Total energy in the final basis set =    -5265.6356167447
   13   -5265.6355823648      9.59e-07  Convergence criterion met
 Total energy in the final basis set =    -5265.6355823648
   14   -5265.6356224336      5.44e-07  Convergence criterion met
 Total energy in the final basis set =    -5265.6356224336
   14   -5265.6356244327      5.46e-07  Convergence criterion met
 Total energy in the final basis set =    -5265.6356244327
   14   -5265.6356264744      5.53e-07  Convergence criterion met
 Total energy in the final basis set =    -5265.6356264744

             Standard Nuclear Orientation (Angstroms)
    I     Atom           X                Y                Z
 ----------------------------------------------------------------
    1      Br      1.0404935866     2.4535729814    -1.4105587287
    2      Br      0.3050695027     1.5533190070     1.3070508883
    3      C      -0.5354868916    -0.8456895855    -0.3755937978
    4      C       0.5541036123    -0.8140685607     0.4670680494
    5      C      -1.8850586132    -1.3436249331    -0.0005412117
    6      H      -0.4137450559    -0.4219214074    -1.3704363704
    7      H       0.5090370878    -1.2842592192     1.4448023782
    8      H       1.5366399372    -0.5707131313     0.0803272720
    9      H      -1.9146609855    -1.7475498464     1.0141976573
   10      H      -2.6231249354    -0.5352051747    -0.0823465675
   11      H      -2.2084742449    -2.1228631300    -0.7031635690
 ----------------------------------------------------------------

   14   -5265.6356269814      5.54e-07  Convergence criterion met
 Total energy in the final basis set =    -5265.6356269814

                    Orbital Energies (a.u.)
 --------------------------------------------------------------

 Alpha MOs
 -- Occupied --
*******-482.830 -62.528 -62.487 -56.350 -56.348 -56.345 -56.310
-56.305 -56.305 -10.263 -10.257 -10.223  -8.716  -8.674  -6.544
 -6.538  -6.531  -6.506  -6.491  -6.491  -2.638  -2.637  -2.632
 -2.628  -2.627  -2.598  -2.595  -2.594  -2.583  -2.583  -0.848
 -0.779  -0.734  -0.727  -0.609  -0.517  -0.473  -0.458  -0.417
 -0.400  -0.374  -0.352  -0.305  -0.270  -0.262  -0.262  -0.254

 Beta MOs
 -- Occupied --
*******-482.828 -62.527 -62.486 -56.346 -56.345 -56.344 -56.306
-56.304 -56.304 -10.257 -10.256 -10.223  -8.712  -8.671  -6.537
 -6.533  -6.529  -6.498  -6.490  -6.489  -2.632  -2.631  -2.628
 -2.625  -2.624  -2.593  -2.590  -2.590  -2.582  -2.582  -0.835
 -0.752  -0.723  -0.695  -0.601  -0.514  -0.470  -0.447  -0.414
 -0.398  -0.337  -0.307  -0.293  -0.256  -0.252

          Ground-State Mulliken Net Atomic Charges

     Atom                 Charge (a.u.)    Spin (a.u.)
  --------------------------------------------------------
      1 Br                   -0.263425       0.716825
      2 Br                   -0.092723       0.804407
      3 C                     0.028725       0.462163
      4 C                    -0.252186       0.024836
      5 C                    -0.363926      -0.032465
      6 H                     0.162623      -0.020430
      7 H                     0.154745      -0.001338
      8 H                     0.185913       0.001034
      9 H                     0.131495       0.000394
     10 H                     0.162953       0.025643
     11 H                     0.145805       0.018932
  --------------------------------------------------------
  Sum of atomic charges =    -0.000000

                    Cartesian Multipole Moments
 -----------------------------------------------------------------
    Charge (ESU x 10^10)
                -0.0000
    Dipole Moment (Debye)
         X      -2.1041      Y      -5.4239      Z       0.9191
       Tot       5.8899
    Quadrupole Moments (Debye-Ang)
        XX     -55.1042     XY      -1.8716     YY     -63.3054
        XZ       1.9362     YZ       2.4313     ZZ     -57.5202

 Final energy is   -5265.63562698145
 **  OPTIMIZATION CONVERGED  **
 Total job time:  101.57s(wall), 1184.35s(cpu)
        *  Thank you very much for using Q-Chem.  Have a nice day.  *
