 Q-Chem 5.1, Q-Chem, Inc., Pleasanton, CA (2018)
 Q-Chem 5.1.1 for Intel X86 EM64T Linux

User input:
--------------------------------------------------------------

$comment
potential surface scanner
$end

$rem
JOBTYPE  PES_SCAN
UNRESTRICTED TRUE
SYM_IGNORE  TRUE
GEOM_OPT_MAX_CYCLES 400
SCF_MAX_CYCLES 400
METHOD   B3LYP
BASIS   6-31G**
PDB_PRINT 2
SCF_CONVERGENCE 6
THRESH 14
SCF_PRINT 1
$end
$molecule
0 1
Br -0.621000 1.744900 0.138600
Br 2.339300 0.022500 -0.135100
C -0.519000 -0.151000 -0.364100
C 0.644500 -0.814800 0.353000
C -1.843800 -0.801500 0.007700
H -0.380000 -0.157800 -1.450100
H 0.570800 -0.733000 1.441800
H 0.738000 -1.869500 0.078300
H -2.034600 -0.746700 1.085500
H -2.681600 -0.314200 -0.503400
H -1.847800 -1.857900 -0.281400
$end
$scan
stre 1 3 1.800000 1.801000 0.100000
$end
--------------------------------------------------------------

    9   -5265.7112865010      6.36e-07  Convergence criterion met
 Total energy in the final basis set =    -5265.7112865010
   10   -5265.7006859870      3.75e-07  Convergence criterion met
 Total energy in the final basis set =    -5265.7006859870
   10   -5265.6999233882      3.73e-07  Convergence criterion met
 Total energy in the final basis set =    -5265.6999233882
   10   -5265.7009673786      3.75e-07  Convergence criterion met
 Total energy in the final basis set =    -5265.7009673786
   10   -5265.7010403268      3.76e-07  Convergence criterion met
 Total energy in the final basis set =    -5265.7010403268
   10   -5265.7011218188      3.79e-07  Convergence criterion met
 Total energy in the final basis set =    -5265.7011218188
   10   -5265.7011396179      3.79e-07  Convergence criterion met
 Total energy in the final basis set =    -5265.7011396179
   10   -5265.7011908834      3.79e-07  Convergence criterion met
 Total energy in the final basis set =    -5265.7011908834
   10   -5265.7012237463      3.78e-07  Convergence criterion met
 Total energy in the final basis set =    -5265.7012237463
   10   -5265.7012500807      3.78e-07  Convergence criterion met
 Total energy in the final basis set =    -5265.7012500807
   10   -5265.7012588434      3.77e-07  Convergence criterion met
 Total energy in the final basis set =    -5265.7012588434
   10   -5265.7012611370      3.78e-07  Convergence criterion met
 Total energy in the final basis set =    -5265.7012611370

             Standard Nuclear Orientation (Angstroms)
    I     Atom           X                Y                Z
 ----------------------------------------------------------------
    1      Br     -0.6744608570     1.6885500556     0.1350878948
    2      Br      2.4079588213    -0.1535532289    -0.2188440991
    3      C      -0.5371699610    -0.0482242121    -0.3174235058
    4      C       0.6310623408    -0.7635816836     0.3698123815
    5      C      -1.8337586318    -0.8197871104    -0.0030261965
    6      H      -0.3668602608    -0.0947478057    -1.3969734603
    7      H       0.6064124499    -0.6257433390     1.4508980766
    8      H       0.6053091817    -1.8274849600     0.1334718109
    9      H      -2.0398491242    -0.8174936439     1.0716718290
   10      H      -2.6835655630    -0.3589870717    -0.5121726700
   11      H      -1.7502783962    -1.8579470002    -0.3417020612
 ----------------------------------------------------------------

   10   -5265.7012619016      3.78e-07  Convergence criterion met
 Total energy in the final basis set =    -5265.7012619016

                    Orbital Energies (a.u.)
 --------------------------------------------------------------

 Alpha MOs
 -- Occupied --
*******-482.855 -62.519 -62.513 -56.339 -56.336 -56.336 -56.334
-56.331 -56.331 -10.258 -10.257 -10.205  -8.707  -8.700  -6.537
 -6.531  -6.524  -6.524  -6.518  -6.517  -2.631  -2.627  -2.627
 -2.624  -2.620  -2.620  -2.617  -2.617  -2.610  -2.610  -0.878
 -0.800  -0.746  -0.684  -0.599  -0.498  -0.462  -0.449  -0.425
 -0.390  -0.377  -0.367  -0.288  -0.287  -0.279  -0.274

 Beta MOs
 -- Occupied --
*******-482.855 -62.519 -62.513 -56.339 -56.336 -56.336 -56.334
-56.331 -56.331 -10.258 -10.257 -10.205  -8.707  -8.700  -6.537
 -6.531  -6.524  -6.524  -6.518  -6.517  -2.631  -2.627  -2.627
 -2.624  -2.620  -2.620  -2.617  -2.617  -2.610  -2.610  -0.878
 -0.800  -0.746  -0.684  -0.599  -0.498  -0.462  -0.449  -0.425
 -0.390  -0.377  -0.367  -0.288  -0.287  -0.279  -0.274

          Ground-State Mulliken Net Atomic Charges

     Atom                 Charge (a.u.)    Spin (a.u.)
  --------------------------------------------------------
      1 Br                   -0.053679      -0.000000
      2 Br                   -0.095597      -0.000000
      3 C                    -0.133026       0.000000
      4 C                    -0.248268      -0.000000
      5 C                    -0.325130      -0.000000
      6 H                     0.158420      -0.000000
      7 H                     0.164726      -0.000000
      8 H                     0.154395       0.000000
      9 H                     0.128132       0.000000
     10 H                     0.135652       0.000000
     11 H                     0.114375       0.000000
  --------------------------------------------------------
  Sum of atomic charges =    -0.000000

                    Cartesian Multipole Moments
 -----------------------------------------------------------------
    Charge (ESU x 10^10)
                -0.0000
    Dipole Moment (Debye)
         X      -1.9275      Y      -2.0823      Z       0.1228
       Tot       2.8401
    Quadrupole Moments (Debye-Ang)
        XX     -59.4122     XY       1.5726     YY     -56.2231
        XZ       0.6832     YZ      -0.3285     ZZ     -55.4369

 Final energy is   -5265.70126190160
 **  OPTIMIZATION CONVERGED  **
 Total job time:  75.79s(wall), 844.56s(cpu)
        *  Thank you very much for using Q-Chem.  Have a nice day.  *
