 Q-Chem 5.1, Q-Chem, Inc., Pleasanton, CA (2018)
 Q-Chem 5.1.1 for Intel X86 EM64T Linux

User input:
--------------------------------------------------------------

$comment
potential surface scanner
$end

$rem
JOBTYPE  PES_SCAN
UNRESTRICTED TRUE
SYM_IGNORE  TRUE
GEOM_OPT_MAX_CYCLES 400
SCF_MAX_CYCLES 400
METHOD   B3LYP
BASIS   6-31G**
PDB_PRINT 2
SCF_CONVERGENCE 6
THRESH 14
SCF_PRINT 1
$end
$molecule
0 1
Br -0.621000 1.744900 0.138600
Br 2.339300 0.022500 -0.135100
C -0.519000 -0.151000 -0.364100
C 0.644500 -0.814800 0.353000
C -1.843800 -0.801500 0.007700
H -0.380000 -0.157800 -1.450100
H 0.570800 -0.733000 1.441800
H 0.738000 -1.869500 0.078300
H -2.034600 -0.746700 1.085500
H -2.681600 -0.314200 -0.503400
H -1.847800 -1.857900 -0.281400
$end
$scan
stre 1 3 2.700000 2.701000 0.100000
$end
--------------------------------------------------------------

    9   -5265.7112865010      6.36e-07  Convergence criterion met
 Total energy in the final basis set =    -5265.7112865010
   10   -5265.7095385165      4.95e-07  Convergence criterion met
 Total energy in the final basis set =    -5265.7095385165
   10   -5265.7003179073      9.96e-07  Convergence criterion met
 Total energy in the final basis set =    -5265.7003179073
   11   -5265.6894114580      2.66e-07  Convergence criterion met
 Total energy in the final basis set =    -5265.6894114580
   11   -5265.6788893217      4.50e-07  Convergence criterion met
 Total energy in the final basis set =    -5265.6788893217
   11   -5265.6693567957      6.45e-07  Convergence criterion met
 Total energy in the final basis set =    -5265.6693567957
   11   -5265.6696481435      6.50e-07  Convergence criterion met
 Total energy in the final basis set =    -5265.6696481435
   11   -5265.6704135554      6.42e-07  Convergence criterion met
   11   -5265.6711765574      6.71e-07  Convergence criterion met
 Total energy in the final basis set =    -5265.6711765574
   11   -5265.6712064714      6.70e-07  Convergence criterion met
 Total energy in the final basis set =    -5265.6712064714
   11   -5265.6712146813      6.70e-07  Convergence criterion met
 Total energy in the final basis set =    -5265.6712146813
   11   -5265.6712204715      6.70e-07  Convergence criterion met
 Total energy in the final basis set =    -5265.6712204715
   11   -5265.6712235736      6.70e-07  Convergence criterion met
 Total energy in the final basis set =    -5265.6712235736
   11   -5265.6712251441      6.70e-07  Convergence criterion met
 Total energy in the final basis set =    -5265.6712251441

             Standard Nuclear Orientation (Angstroms)
    I     Atom           X                Y                Z
 ----------------------------------------------------------------
    1      Br     -0.7269303468     2.2387908477     0.3077878626
    2      Br      2.3936069084    -0.1986859993    -0.3105194599
    3      C      -0.5116447259    -0.3557426374    -0.4077872360
    4      C       0.6702158115    -0.8173489562     0.3691285249
    5      C      -1.8508086118    -0.8869977709    -0.0307199331
    6      H      -0.3505278028    -0.0782652114    -1.4452186260
    7      H       0.6024664480    -0.5255102820     1.4166321545
    8      H       0.7050686954    -1.9137212181     0.3169561728
    9      H      -1.9991506351    -0.8998885062     1.0511861025
   10      H      -2.6505973348    -0.3152030175    -0.5018363028
   11      H      -1.9168984061    -1.9264272486    -0.3948092594
 ----------------------------------------------------------------

   11   -5265.6712257615      6.70e-07  Convergence criterion met
 Total energy in the final basis set =    -5265.6712257615

                    Orbital Energies (a.u.)
 --------------------------------------------------------------

 Alpha MOs
 -- Occupied --
*******-482.816 -62.529 -62.473 -56.351 -56.347 -56.346 -56.294
-56.291 -56.291 -10.309 -10.281 -10.231  -8.716  -8.659  -6.547
 -6.533  -6.533  -6.487  -6.477  -6.477  -2.641  -2.637  -2.636
 -2.625  -2.625  -2.581  -2.578  -2.578  -2.570  -2.570  -0.868
 -0.800  -0.713  -0.704  -0.625  -0.505  -0.490  -0.471  -0.448
 -0.412  -0.394  -0.298  -0.295  -0.282  -0.252  -0.249

 Beta MOs
 -- Occupied --
*******-482.816 -62.529 -62.473 -56.351 -56.347 -56.346 -56.294
-56.291 -56.291 -10.309 -10.281 -10.231  -8.716  -8.659  -6.547
 -6.533  -6.533  -6.487  -6.477  -6.477  -2.641  -2.637  -2.636
 -2.625  -2.625  -2.581  -2.578  -2.578  -2.570  -2.570  -0.868
 -0.800  -0.713  -0.704  -0.625  -0.505  -0.490  -0.471  -0.448
 -0.412  -0.394  -0.298  -0.295  -0.282  -0.252  -0.249

          Ground-State Mulliken Net Atomic Charges

     Atom                 Charge (a.u.)    Spin (a.u.)
  --------------------------------------------------------
      1 Br                   -0.370608       0.000000
      2 Br                   -0.046696      -0.000000
      3 C                    -0.010705      -0.000000
      4 C                    -0.268713       0.000000
      5 C                    -0.342343       0.000000
      6 H                     0.193596      -0.000000
      7 H                     0.203091      -0.000000
      8 H                     0.172749       0.000000
      9 H                     0.156232      -0.000000
     10 H                     0.173530      -0.000000
     11 H                     0.139867       0.000000
  --------------------------------------------------------
  Sum of atomic charges =     0.000000

                    Cartesian Multipole Moments
 -----------------------------------------------------------------
    Charge (ESU x 10^10)
                -0.0000
    Dipole Moment (Debye)
         X      -1.3544      Y      -5.5080      Z      -0.3826
       Tot       5.6850
    Quadrupole Moments (Debye-Ang)
        XX     -57.3114     XY       4.4164     YY     -62.1400
        XZ       1.2286     YZ      -1.3789     ZZ     -55.2024

 Final energy is   -5265.67122576153
 **  OPTIMIZATION CONVERGED  **
 Total job time:  117.07s(wall), 1368.41s(cpu)
        *  Thank you very much for using Q-Chem.  Have a nice day.  *
