 Q-Chem 5.1, Q-Chem, Inc., Pleasanton, CA (2018)
 Q-Chem 5.1.1 for Intel X86 EM64T Linux

User input:
--------------------------------------------------------------

$comment
potential surface scanner
$end

$rem
JOBTYPE  PES_SCAN
UNRESTRICTED TRUE
SYM_IGNORE  TRUE
GEOM_OPT_MAX_CYCLES 400
SCF_MAX_CYCLES 400
METHOD   B3LYP
BASIS   6-31G**
PDB_PRINT 2
SCF_CONVERGENCE 6
THRESH 14
SCF_PRINT 1
$end
$molecule
0 1
Br -0.621000 1.744900 0.138600
Br 2.339300 0.022500 -0.135100
C -0.519000 -0.151000 -0.364100
C 0.644500 -0.814800 0.353000
C -1.843800 -0.801500 0.007700
H -0.380000 -0.157800 -1.450100
H 0.570800 -0.733000 1.441800
H 0.738000 -1.869500 0.078300
H -2.034600 -0.746700 1.085500
H -2.681600 -0.314200 -0.503400
H -1.847800 -1.857900 -0.281400
$end
$scan
stre 1 3 1.100000 1.101000 0.100000
$end
--------------------------------------------------------------

    9   -5265.7112865010      6.36e-07  Convergence criterion met
 Total energy in the final basis set =    -5265.7112865010
   10   -5265.7006859870      3.75e-07  Convergence criterion met
 Total energy in the final basis set =    -5265.7006859870
   10   -5265.6667426268      3.76e-07  Convergence criterion met
 Total energy in the final basis set =    -5265.6667426268
   10   -5265.6053072919      3.81e-07  Convergence criterion met
 Total energy in the final basis set =    -5265.6053072919
   10   -5265.5129903249      3.90e-07  Convergence criterion met
 Total energy in the final basis set =    -5265.5129903249
   10   -5265.3634268607      4.32e-07  Convergence criterion met
 Total energy in the final basis set =    -5265.3634268607
   10   -5265.1475084369      5.54e-07  Convergence criterion met
 Total energy in the final basis set =    -5265.1475084369
   10   -5264.8456540145      7.90e-07  Convergence criterion met
   11   -5264.5768936134      3.13e-07  Convergence criterion met
 Total energy in the final basis set =    -5264.5768936134
   11   -5264.5768966800      3.12e-07  Convergence criterion met
 Total energy in the final basis set =    -5264.5768966800
   11   -5264.5768991803      3.12e-07  Convergence criterion met
 Total energy in the final basis set =    -5264.5768991803
   11   -5264.5769018039      3.12e-07  Convergence criterion met
 Total energy in the final basis set =    -5264.5769018039
   11   -5264.5769041596      3.12e-07  Convergence criterion met
 Total energy in the final basis set =    -5264.5769041596
   11   -5264.5769054355      3.13e-07  Convergence criterion met
 Total energy in the final basis set =    -5264.5769054355

             Standard Nuclear Orientation (Angstroms)
    I     Atom           X                Y                Z
 ----------------------------------------------------------------
    1      Br     -0.6024806451     1.3340389271    -0.1185208440
    2      Br      2.4285675996    -0.0134851629     0.0536932278
    3      C      -0.5691147085     0.2558533918    -0.3339346533
    4      C       0.6359633935    -0.7838870843     0.3324111660
    5      C      -1.8331820072    -0.7730999933     0.0631886441
    6      H      -0.4356349787    -0.2073022570    -1.3714236030
    7      H       0.4962535994    -0.8381734985     1.4161451501
    8      H       0.6325691448    -1.7687451770    -0.1301301991
    9      H      -1.9956617429    -0.7038215114     1.1464734844
   10      H      -2.7144266053    -0.3694923798    -0.4489951015
   11      H      -1.6780530495    -1.8108852547    -0.2381072715
 ----------------------------------------------------------------

   11   -5264.5769059628      3.13e-07  Convergence criterion met
 Total energy in the final basis set =    -5264.5769059628

                    Orbital Energies (a.u.)
 --------------------------------------------------------------

 Alpha MOs
 -- Occupied --
*******-482.849 -62.572 -62.507 -56.389 -56.388 -56.387 -56.328
-56.325 -56.325 -10.305 -10.238 -10.195  -8.792  -8.694  -6.637
 -6.603  -6.602  -6.524  -6.512  -6.512  -2.744  -2.717  -2.717
 -2.693  -2.693  -2.617  -2.614  -2.614  -2.604  -2.604  -1.067
 -0.799  -0.731  -0.668  -0.601  -0.541  -0.534  -0.456  -0.432
 -0.415  -0.406  -0.368  -0.289  -0.276  -0.227  -0.226

 Beta MOs
 -- Occupied --
*******-482.849 -62.572 -62.507 -56.389 -56.388 -56.387 -56.328
-56.325 -56.325 -10.305 -10.238 -10.195  -8.792  -8.694  -6.637
 -6.603  -6.602  -6.524  -6.512  -6.512  -2.744  -2.717  -2.717
 -2.693  -2.693  -2.617  -2.614  -2.614  -2.604  -2.604  -1.067
 -0.799  -0.731  -0.668  -0.601  -0.541  -0.534  -0.456  -0.432
 -0.415  -0.406  -0.368  -0.289  -0.276  -0.227  -0.226

          Ground-State Mulliken Net Atomic Charges

     Atom                 Charge (a.u.)    Spin (a.u.)
  --------------------------------------------------------
      1 Br                    0.457901       0.000000
      2 Br                   -0.133082       0.000000
      3 C                    -0.306846      -0.000000
      4 C                    -0.321784       0.000000
      5 C                    -0.386045      -0.000000
      6 H                     0.059988       0.000000
      7 H                     0.143799      -0.000000
      8 H                     0.148416       0.000000
      9 H                     0.113309       0.000000
     10 H                     0.111337       0.000000
     11 H                     0.113007       0.000000
  --------------------------------------------------------
  Sum of atomic charges =     0.000000

                    Cartesian Multipole Moments
 -----------------------------------------------------------------
    Charge (ESU x 10^10)
                 0.0000
    Dipole Moment (Debye)
         X      -2.3599      Y      -0.9781      Z      -0.1331
       Tot       2.5580
    Quadrupole Moments (Debye-Ang)
        XX     -59.9229     XY       0.4274     YY     -55.7947
        XZ       0.2330     YZ      -0.5660     ZZ     -55.1848

 Final energy is   -5264.57690596280
 **  OPTIMIZATION CONVERGED  **
 Total job time:  228.27s(wall), 2612.15s(cpu)
        *  Thank you very much for using Q-Chem.  Have a nice day.  *
