 Q-Chem 5.1, Q-Chem, Inc., Pleasanton, CA (2018)
 Q-Chem 5.1.1 for Intel X86 EM64T Linux

User input:
--------------------------------------------------------------

$comment
potential surface scanner
$end

$rem
JOBTYPE  PES_SCAN
UNRESTRICTED TRUE
SYM_IGNORE  TRUE
GEOM_OPT_MAX_CYCLES 400
SCF_MAX_CYCLES 400
METHOD   B3LYP
BASIS   6-31G**
PDB_PRINT 2
SCF_CONVERGENCE 6
THRESH 14
SCF_PRINT 1
$end
$molecule
0 1
Br -0.683454 1.805567 0.171279
Br 2.405186 -0.157411 -0.235218
C -0.531409 -0.122356 -0.338617
C 0.641483 -0.774501 0.373030
C -1.841098 -0.833135 -0.009916
H -0.359800 -0.089440 -1.414658
H 0.607917 -0.605091 1.448653
H 0.631188 -1.847809 0.172944
H -2.031097 -0.838913 1.067020
H -2.682688 -0.344363 -0.504590
H -1.791429 -1.871549 -0.359129
$end
$scan
stre 1 3 2.100000 2.101000 0.100000
$end
--------------------------------------------------------------

    9   -5265.7134880806      7.60e-07  Convergence criterion met
 Total energy in the final basis set =    -5265.7134880806
   10   -5265.7112538945      4.57e-07  Convergence criterion met
 Total energy in the final basis set =    -5265.7112538945
   10   -5265.7114603662      4.57e-07  Convergence criterion met
 Total energy in the final basis set =    -5265.7114603662
   10   -5265.7115531634      4.56e-07  Convergence criterion met
 Total energy in the final basis set =    -5265.7115531634
   10   -5265.7115565082      4.57e-07  Convergence criterion met
 Total energy in the final basis set =    -5265.7115565082
   10   -5265.7115576562      4.57e-07  Convergence criterion met
 Total energy in the final basis set =    -5265.7115576562

             Standard Nuclear Orientation (Angstroms)
    I     Atom           X                Y                Z
 ----------------------------------------------------------------
    1      Br     -0.6897091177     1.8659929772     0.1842238970
    2      Br      2.4043721056    -0.1557307581    -0.2374293139
    3      C      -0.5280048369    -0.1586594627    -0.3492867958
    4      C       0.6465720633    -0.7808481295     0.3734701089
    5      C      -1.8437515125    -0.8394864434    -0.0117314169
    6      H      -0.3572714259    -0.0884398603    -1.4223444560
    7      H       0.6046666321    -0.6019657161     1.4470313014
    8      H       0.6463729082    -1.8574295452     0.1856395236
    9      H      -2.0258289950    -0.8461736782     1.0662076959
   10      H      -2.6800939501    -0.3375684541    -0.5013345651
   11      H      -1.8125248711    -1.8786919295    -0.3636479791
 ----------------------------------------------------------------

   10   -5265.7115586270      4.57e-07  Convergence criterion met
 Total energy in the final basis set =    -5265.7115586270

                    Orbital Energies (a.u.)
 --------------------------------------------------------------

 Alpha MOs
 -- Occupied --
*******-482.848 -62.518 -62.506 -56.339 -56.335 -56.335 -56.327
-56.324 -56.323 -10.276 -10.264 -10.212  -8.705  -8.693  -6.535
 -6.522  -6.522  -6.521  -6.510  -6.510  -2.629  -2.625  -2.624
 -2.616  -2.614  -2.614  -2.613  -2.612  -2.603  -2.603  -0.856
 -0.791  -0.742  -0.692  -0.606  -0.495  -0.467  -0.449  -0.432
 -0.392  -0.374  -0.346  -0.289  -0.286  -0.279  -0.273

 Beta MOs
 -- Occupied --
*******-482.848 -62.518 -62.506 -56.339 -56.335 -56.335 -56.327
-56.324 -56.323 -10.276 -10.264 -10.212  -8.705  -8.693  -6.535
 -6.522  -6.522  -6.521  -6.510  -6.510  -2.629  -2.625  -2.624
 -2.616  -2.614  -2.614  -2.613  -2.612  -2.603  -2.603  -0.856
 -0.791  -0.742  -0.692  -0.606  -0.495  -0.467  -0.449  -0.432
 -0.392  -0.374  -0.346  -0.289  -0.286  -0.279  -0.273

          Ground-State Mulliken Net Atomic Charges

     Atom                 Charge (a.u.)    Spin (a.u.)
  --------------------------------------------------------
      1 Br                   -0.138008      -0.000000
      2 Br                   -0.079379       0.000000
      3 C                    -0.126129      -0.000000
      4 C                    -0.245844       0.000000
      5 C                    -0.321894       0.000000
      6 H                     0.172378       0.000000
      7 H                     0.175043      -0.000000
      8 H                     0.159666      -0.000000
      9 H                     0.136156       0.000000
     10 H                     0.146751       0.000000
     11 H                     0.121260      -0.000000
  --------------------------------------------------------
  Sum of atomic charges =     0.000000

                    Cartesian Multipole Moments
 -----------------------------------------------------------------
    Charge (ESU x 10^10)
                -0.0000
    Dipole Moment (Debye)
         X      -1.7501      Y      -2.9572      Z       0.0199
       Tot       3.4363
    Quadrupole Moments (Debye-Ang)
        XX     -58.8436     XY       2.2623     YY     -57.4037
        XZ       0.7792     YZ      -0.4715     ZZ     -55.4066

 Final energy is   -5265.71155862701
 **  OPTIMIZATION CONVERGED  **
 Total job time:  38.80s(wall), 447.45s(cpu)
        *  Thank you very much for using Q-Chem.  Have a nice day.  *
