 Q-Chem 5.1, Q-Chem, Inc., Pleasanton, CA (2018)
 Q-Chem 5.1.1 for Intel X86 EM64T Linux

User input:
--------------------------------------------------------------

$comment
potential surface scanner
$end

$rem
JOBTYPE  PES_SCAN
UNRESTRICTED TRUE
SYM_IGNORE  TRUE
GEOM_OPT_MAX_CYCLES 400
SCF_MAX_CYCLES 400
METHOD   B3LYP
BASIS   6-31G**
PDB_PRINT 2
SCF_CONVERGENCE 6
THRESH 14
SCF_PRINT 1
$end
$molecule
0 1
Br -0.621000 1.744900 0.138600
Br 2.339300 0.022500 -0.135100
C -0.519000 -0.151000 -0.364100
C 0.644500 -0.814800 0.353000
C -1.843800 -0.801500 0.007700
H -0.380000 -0.157800 -1.450100
H 0.570800 -0.733000 1.441800
H 0.738000 -1.869500 0.078300
H -2.034600 -0.746700 1.085500
H -2.681600 -0.314200 -0.503400
H -1.847800 -1.857900 -0.281400
$end
$scan
stre 1 3 1.500000 1.501000 0.100000
$end
--------------------------------------------------------------

    9   -5265.7112865010      6.36e-07  Convergence criterion met
 Total energy in the final basis set =    -5265.7112865010
   10   -5265.7006859870      3.75e-07  Convergence criterion met
 Total energy in the final basis set =    -5265.7006859870
   10   -5265.6667426267      3.76e-07  Convergence criterion met
 Total energy in the final basis set =    -5265.6667426267
   10   -5265.6053072919      3.81e-07  Convergence criterion met
 Total energy in the final basis set =    -5265.6053072919
   10   -5265.5729641796      3.93e-07  Convergence criterion met
 Total energy in the final basis set =    -5265.5729641796
   10   -5265.5726479275      4.04e-07  Convergence criterion met
 Total energy in the final basis set =    -5265.5726479275
   10   -5265.5730020119      4.13e-07  Convergence criterion met
 Total energy in the final basis set =    -5265.5730020119
   10   -5265.5730286728      4.13e-07  Convergence criterion met
   10   -5265.5730465659      4.13e-07  Convergence criterion met
 Total energy in the final basis set =    -5265.5730465659
   10   -5265.5730564790      4.13e-07  Convergence criterion met
 Total energy in the final basis set =    -5265.5730564790
   10   -5265.5730627033      4.13e-07  Convergence criterion met
 Total energy in the final basis set =    -5265.5730627033
   10   -5265.5730702325      4.13e-07  Convergence criterion met
 Total energy in the final basis set =    -5265.5730702325
   10   -5265.5730746421      4.13e-07  Convergence criterion met
 Total energy in the final basis set =    -5265.5730746421
   10   -5265.5730766197      4.13e-07  Convergence criterion met
 Total energy in the final basis set =    -5265.5730766197

             Standard Nuclear Orientation (Angstroms)
    I     Atom           X                Y                Z
 ----------------------------------------------------------------
    1      Br     -0.6547175014     1.5196496710     0.0637296851
    2      Br      2.4102657799    -0.1422533879    -0.1809184097
    3      C      -0.5464845719     0.0671560203    -0.2948059727
    4      C       0.6149425064    -0.7488099905     0.3662009769
    5      C      -1.8222816085    -0.8033332787     0.0074622635
    6      H      -0.3770265918    -0.1184788753    -1.3715415745
    7      H       0.5872484811    -0.6489726100     1.4530501884
    8      H       0.5695222307    -1.7981751372     0.0816024207
    9      H      -2.0283782086    -0.8081035290     1.0835275033
   10      H      -2.6873253523    -0.3643973114    -0.4981238404
   11      H      -1.7009651637    -1.8332815713    -0.3393832405
 ----------------------------------------------------------------

   10   -5265.5730771279      4.13e-07  Convergence criterion met
 Total energy in the final basis set =    -5265.5730771279

                    Orbital Energies (a.u.)
 --------------------------------------------------------------

 Alpha MOs
 -- Occupied --
*******-482.852 -62.527 -62.511 -56.347 -56.344 -56.344 -56.332
-56.328 -56.328 -10.252 -10.245 -10.202  -8.720  -8.698  -6.551
 -6.537  -6.537  -6.528  -6.515  -6.515  -2.647  -2.641  -2.640
 -2.630  -2.630  -2.622  -2.618  -2.618  -2.608  -2.608  -0.951
 -0.806  -0.743  -0.679  -0.593  -0.510  -0.472  -0.457  -0.426
 -0.407  -0.393  -0.365  -0.288  -0.281  -0.268  -0.266

 Beta MOs
 -- Occupied --
*******-482.852 -62.527 -62.511 -56.347 -56.344 -56.344 -56.332
-56.328 -56.328 -10.252 -10.245 -10.202  -8.720  -8.698  -6.551
 -6.537  -6.537  -6.528  -6.515  -6.515  -2.647  -2.641  -2.640
 -2.630  -2.630  -2.622  -2.618  -2.618  -2.608  -2.608  -0.951
 -0.806  -0.743  -0.679  -0.593  -0.510  -0.472  -0.457  -0.426
 -0.407  -0.393  -0.365  -0.288  -0.281  -0.268  -0.266

          Ground-State Mulliken Net Atomic Charges

     Atom                 Charge (a.u.)    Spin (a.u.)
  --------------------------------------------------------
      1 Br                   -0.001421      -0.000000
      2 Br                   -0.108543       0.000000
      3 C                    -0.091627      -0.000000
      4 C                    -0.262586       0.000000
      5 C                    -0.339821       0.000000
      6 H                     0.134299      -0.000000
      7 H                     0.156700      -0.000000
      8 H                     0.151419       0.000000
      9 H                     0.122309       0.000000
     10 H                     0.127850      -0.000000
     11 H                     0.111422      -0.000000
  --------------------------------------------------------
  Sum of atomic charges =     0.000000

                    Cartesian Multipole Moments
 -----------------------------------------------------------------
    Charge (ESU x 10^10)
                -0.0000
    Dipole Moment (Debye)
         X      -2.0711      Y      -1.6294      Z       0.1329
       Tot       2.6385
    Quadrupole Moments (Debye-Ang)
        XX     -59.6182     XY       1.2236     YY     -55.8871
        XZ       0.6084     YZ      -0.3758     ZZ     -55.3638

 Final energy is   -5265.57307712791
 **  OPTIMIZATION CONVERGED  **
 Total job time:  90.25s(wall), 1051.92s(cpu)
        *  Thank you very much for using Q-Chem.  Have a nice day.  *
