 Q-Chem 5.1, Q-Chem, Inc., Pleasanton, CA (2018)
 Q-Chem 5.1.1 for Intel X86 EM64T Linux

User input:
--------------------------------------------------------------

$comment
potential surface scanner
$end

$rem
JOBTYPE  PES_SCAN
UNRESTRICTED TRUE
SYM_IGNORE  TRUE
GEOM_OPT_MAX_CYCLES 400
SCF_MAX_CYCLES 400
METHOD   B3LYP
BASIS   6-31G**
PDB_PRINT 2
SCF_CONVERGENCE 6
THRESH 14
SCF_PRINT 1
$end
$molecule
0 1
Br -0.621000 1.744900 0.138600
Br 2.339300 0.022500 -0.135100
C -0.519000 -0.151000 -0.364100
C 0.644500 -0.814800 0.353000
C -1.843800 -0.801500 0.007700
H -0.380000 -0.157800 -1.450100
H 0.570800 -0.733000 1.441800
H 0.738000 -1.869500 0.078300
H -2.034600 -0.746700 1.085500
H -2.681600 -0.314200 -0.503400
H -1.847800 -1.857900 -0.281400
$end
$scan
stre 1 3 1.600000 1.601000 0.100000
$end
--------------------------------------------------------------

    9   -5265.7112865010      6.36e-07  Convergence criterion met
 Total energy in the final basis set =    -5265.7112865010
   10   -5265.7006859870      3.75e-07  Convergence criterion met
 Total energy in the final basis set =    -5265.7006859870
   10   -5265.6667426268      3.76e-07  Convergence criterion met
 Total energy in the final basis set =    -5265.6667426268
   10   -5265.6392185505      3.83e-07  Convergence criterion met
 Total energy in the final basis set =    -5265.6392185505
   10   -5265.6398246566      3.88e-07  Convergence criterion met
 Total energy in the final basis set =    -5265.6398246566
   10   -5265.6404869748      3.93e-07  Convergence criterion met
 Total energy in the final basis set =    -5265.6404869748
   10   -5265.6405257785      3.93e-07  Convergence criterion met
 Total energy in the final basis set =    -5265.6405257785
   10   -5265.6405553222      3.93e-07  Convergence criterion met
   10   -5265.6405613437      3.93e-07  Convergence criterion met
 Total energy in the final basis set =    -5265.6405613437
   10   -5265.6405872759      3.93e-07  Convergence criterion met
 Total energy in the final basis set =    -5265.6405872759
   10   -5265.6405987877      3.93e-07  Convergence criterion met
 Total energy in the final basis set =    -5265.6405987877
   10   -5265.6406075525      3.92e-07  Convergence criterion met
 Total energy in the final basis set =    -5265.6406075525
   10   -5265.6406103356      3.93e-07  Convergence criterion met
 Total energy in the final basis set =    -5265.6406103356
   10   -5265.6406114052      3.93e-07  Convergence criterion met
 Total energy in the final basis set =    -5265.6406114052

             Standard Nuclear Orientation (Angstroms)
    I     Atom           X                Y                Z
 ----------------------------------------------------------------
    1      Br     -0.6614612054     1.5744473334     0.0902028853
    2      Br      2.4094850865    -0.1477225922    -0.1964440974
    3      C      -0.5433108409     0.0274812996    -0.3008681561
    4      C       0.6197857223    -0.7528512050     0.3674448629
    5      C      -1.8258991514    -0.8082867784     0.0032808462
    6      H      -0.3737175635    -0.1082099616    -1.3797680857
    7      H       0.5958959638    -0.6401045981     1.4525607457
    8      H       0.5803257139    -1.8076192567     0.1004013842
    9      H      -2.0350223064    -0.8100442729     1.0783481662
   10      H      -2.6860437515    -0.3645952387    -0.5056065992
   11      H      -1.7152376674    -1.8414947294    -0.3387519522
 ----------------------------------------------------------------

   10   -5265.6406118884      3.93e-07  Convergence criterion met
 Total energy in the final basis set =    -5265.6406118884

                    Orbital Energies (a.u.)
 --------------------------------------------------------------

 Alpha MOs
 -- Occupied --
*******-482.853 -62.524 -62.511 -56.344 -56.341 -56.341 -56.333
-56.329 -56.329 -10.254 -10.248 -10.203  -8.715  -8.698  -6.545
 -6.532  -6.532  -6.529  -6.516  -6.516  -2.640  -2.636  -2.635
 -2.625  -2.625  -2.622  -2.618  -2.618  -2.608  -2.608  -0.921
 -0.805  -0.745  -0.680  -0.595  -0.505  -0.465  -0.454  -0.424
 -0.402  -0.388  -0.365  -0.288  -0.283  -0.273  -0.271

 Beta MOs
 -- Occupied --
*******-482.853 -62.524 -62.511 -56.344 -56.341 -56.341 -56.333
-56.329 -56.329 -10.254 -10.248 -10.203  -8.715  -8.698  -6.545
 -6.532  -6.532  -6.529  -6.516  -6.516  -2.640  -2.636  -2.635
 -2.625  -2.625  -2.622  -2.618  -2.618  -2.608  -2.608  -0.921
 -0.805  -0.745  -0.680  -0.595  -0.505  -0.465  -0.454  -0.424
 -0.402  -0.388  -0.365  -0.288  -0.283  -0.273  -0.271

          Ground-State Mulliken Net Atomic Charges

     Atom                 Charge (a.u.)    Spin (a.u.)
  --------------------------------------------------------
      1 Br                   -0.023040      -0.000000
      2 Br                   -0.104363       0.000000
      3 C                    -0.104957       0.000000
      4 C                    -0.256449      -0.000000
      5 C                    -0.333560       0.000000
      6 H                     0.144570      -0.000000
      7 H                     0.159299       0.000000
      8 H                     0.152150      -0.000000
      9 H                     0.124056      -0.000000
     10 H                     0.130338      -0.000000
     11 H                     0.111955      -0.000000
  --------------------------------------------------------
  Sum of atomic charges =     0.000000

                    Cartesian Multipole Moments
 -----------------------------------------------------------------
    Charge (ESU x 10^10)
                 0.0000
    Dipole Moment (Debye)
         X      -2.0254      Y      -1.7480      Z       0.1378
       Tot       2.6789
    Quadrupole Moments (Debye-Ang)
        XX     -59.5811     XY       1.3163     YY     -55.9289
        XZ       0.6350     YZ      -0.3406     ZZ     -55.3976

 Final energy is   -5265.64061188839
 **  OPTIMIZATION CONVERGED  **
 Total job time:  84.23s(wall), 979.33s(cpu)
        *  Thank you very much for using Q-Chem.  Have a nice day.  *
