 Q-Chem 5.1, Q-Chem, Inc., Pleasanton, CA (2018)
 Q-Chem 5.1.1 for Intel X86 EM64T Linux

User input:
--------------------------------------------------------------

$comment
potential surface scanner
$end

$rem
JOBTYPE  PES_SCAN
UNRESTRICTED TRUE
SYM_IGNORE  TRUE
GEOM_OPT_MAX_CYCLES 400
SCF_MAX_CYCLES 400
METHOD   B3LYP
BASIS   6-31G**
PDB_PRINT 2
SCF_CONVERGENCE 6
THRESH 14
SCF_PRINT 1
$end
$molecule
0 3
Br 2.665397 2.662754 1.070085
Br -0.064013 1.922458 0.142401
C -0.873085 -1.046627 -0.626864
C 0.378782 -0.599736 -0.278073
C -1.896535 -1.538987 0.333618
H -1.161533 -0.997288 -1.675903
H 0.749402 -0.721962 0.734333
H 1.110133 -0.352691 -1.038801
H -1.525418 -1.556250 1.360703
H -2.790541 -0.902663 0.293831
H -2.227791 -2.548010 0.055474
$end
$scan
stre 1 3 5.300000 5.301000 0.100000
$end
--------------------------------------------------------------

   15   -5265.6329794029      6.50e-07  Convergence criterion met
 Total energy in the final basis set =    -5265.6329794029
   14   -5265.6330873307      7.52e-07  Convergence criterion met
 Total energy in the final basis set =    -5265.6330873307
   14   -5265.6333432225      7.42e-07  Convergence criterion met
 Total energy in the final basis set =    -5265.6333432225
   14   -5265.6334110704      7.66e-07  Convergence criterion met
 Total energy in the final basis set =    -5265.6334110704
   14   -5265.6334133213      7.79e-07  Convergence criterion met
 Total energy in the final basis set =    -5265.6334133213
   14   -5265.6334162471      8.15e-07  Convergence criterion met
 Total energy in the final basis set =    -5265.6334162471
   14   -5265.6334179079      8.39e-07  Convergence criterion met
 Total energy in the final basis set =    -5265.6334179079
   14   -5265.6334198392      8.60e-07  Convergence criterion met
   14   -5265.6334240627      8.66e-07  Convergence criterion met
 Total energy in the final basis set =    -5265.6334240627
   14   -5265.6334261941      8.58e-07  Convergence criterion met
 Total energy in the final basis set =    -5265.6334261941
   14   -5265.6334279064      8.49e-07  Convergence criterion met
 Total energy in the final basis set =    -5265.6334279064
   14   -5265.6334292042      8.42e-07  Convergence criterion met
 Total energy in the final basis set =    -5265.6334292042
   14   -5265.6334304805      8.38e-07  Convergence criterion met
 Total energy in the final basis set =    -5265.6334304805
   14   -5265.6334317217      8.35e-07  Convergence criterion met
 Total energy in the final basis set =    -5265.6334317217

             Standard Nuclear Orientation (Angstroms)
    I     Atom           X                Y                Z
 ----------------------------------------------------------------
    1      Br      2.6819568129     2.5842798622     0.9458390582
    2      Br     -0.1031799730     1.9176017134     0.1971567139
    3      C      -0.8628856093    -1.0322670011    -0.6177095049
    4      C       0.3772344727    -0.5696734360    -0.2426841281
    5      C      -1.8966321754    -1.5446277762     0.3209130002
    6      H      -1.1334602407    -0.9772306650    -1.6711848582
    7      H       0.7335955573    -0.7033845083     0.7732716227
    8      H       1.1198450780    -0.3124826237    -0.9888712809
    9      H      -1.5447070693    -1.5621540044     1.3547424065
   10      H      -2.7995696208    -0.9219430638     0.2676426978
   11      H      -2.2073992325    -2.5571204970     0.0316882728
 ----------------------------------------------------------------

   14   -5265.6334326899      8.34e-07  Convergence criterion met
 Total energy in the final basis set =    -5265.6334326899

                    Orbital Energies (a.u.)
 --------------------------------------------------------------

 Alpha MOs
 -- Occupied --
*******-482.831 -62.527 -62.488 -56.349 -56.346 -56.344 -56.311
-56.306 -56.305 -10.266 -10.255 -10.225  -8.714  -8.675  -6.543
 -6.536  -6.529  -6.507  -6.492  -6.491  -2.637  -2.636  -2.631
 -2.626  -2.625  -2.599  -2.596  -2.595  -2.584  -2.584  -0.849
 -0.778  -0.735  -0.726  -0.611  -0.519  -0.474  -0.460  -0.418
 -0.402  -0.371  -0.349  -0.302  -0.277  -0.264  -0.261  -0.251

 Beta MOs
 -- Occupied --
*******-482.829 -62.526 -62.487 -56.345 -56.344 -56.343 -56.306
-56.304 -56.304 -10.260 -10.254 -10.225  -8.711  -8.672  -6.536
 -6.531  -6.528  -6.499  -6.490  -6.490  -2.631  -2.630  -2.627
 -2.623  -2.623  -2.593  -2.591  -2.590  -2.583  -2.583  -0.836
 -0.750  -0.725  -0.693  -0.604  -0.515  -0.471  -0.450  -0.416
 -0.400  -0.334  -0.306  -0.290  -0.254  -0.250

          Ground-State Mulliken Net Atomic Charges

     Atom                 Charge (a.u.)    Spin (a.u.)
  --------------------------------------------------------
      1 Br                   -0.231063       0.755667
      2 Br                   -0.104646       0.805476
      3 C                     0.021818       0.449715
      4 C                    -0.248399      -0.006334
      5 C                    -0.361201      -0.030786
      6 H                     0.136181      -0.019826
      7 H                     0.171225       0.001268
      8 H                     0.176170       0.001198
      9 H                     0.139519       0.000399
     10 H                     0.155945       0.024283
     11 H                     0.144452       0.018938
  --------------------------------------------------------
  Sum of atomic charges =    -0.000000

                    Cartesian Multipole Moments
 -----------------------------------------------------------------
    Charge (ESU x 10^10)
                -0.0000
    Dipole Moment (Debye)
         X      -3.8552      Y      -5.5454      Z      -1.6029
       Tot       6.9414
    Quadrupole Moments (Debye-Ang)
        XX     -59.7993     XY      -4.7776     YY     -63.7919
        XZ      -2.0443     YZ      -2.2792     ZZ     -56.6045

 Final energy is   -5265.63343268989
 **  OPTIMIZATION CONVERGED  **
 Total job time:  98.27s(wall), 1141.63s(cpu)
        *  Thank you very much for using Q-Chem.  Have a nice day.  *
