 Q-Chem 5.1, Q-Chem, Inc., Pleasanton, CA (2018)
 Q-Chem 5.1.1 for Intel X86 EM64T Linux

User input:
--------------------------------------------------------------

$comment
potential surface scanner
$end

$rem
JOBTYPE  PES_SCAN
UNRESTRICTED TRUE
SYM_IGNORE  TRUE
GEOM_OPT_MAX_CYCLES 400
SCF_MAX_CYCLES 400
METHOD   B3LYP
BASIS   6-31G**
PDB_PRINT 2
SCF_CONVERGENCE 6
THRESH 14
SCF_PRINT 1
$end
$molecule
0 1
Br -0.702802 1.986043 0.227992
Br 2.400720 -0.168601 -0.261300
C -0.522140 -0.227851 -0.368697
C 0.655586 -0.791952 0.375056
C -1.847783 -0.855311 -0.020126
H -0.352274 -0.079823 -1.432193
H 0.606220 -0.574961 1.440938
H 0.666763 -1.877294 0.231295
H -2.019286 -0.865452 1.058983
H -2.672184 -0.328873 -0.502881
H -1.848020 -1.894925 -0.378269
$end
$scan
stre 1 3 2.400000 2.401000 0.100000
$end
--------------------------------------------------------------

   11   -5265.7003623386      1.64e-07  Convergence criterion met
 Total energy in the final basis set =    -5265.7003623386
   11   -5265.6931685841      2.55e-07  Convergence criterion met
 Total energy in the final basis set =    -5265.6931685841
   11   -5265.6931588371      2.59e-07  Convergence criterion met
 Total energy in the final basis set =    -5265.6931588371
   11   -5265.6932625182      2.63e-07  Convergence criterion met
 Total energy in the final basis set =    -5265.6932625182
   11   -5265.6932665336      2.63e-07  Convergence criterion met
 Total energy in the final basis set =    -5265.6932665336
   11   -5265.6932684616      2.64e-07  Convergence criterion met
 Total energy in the final basis set =    -5265.6932684616
   11   -5265.6932694662      2.64e-07  Convergence criterion met
 Total energy in the final basis set =    -5265.6932694662
   11   -5265.6932705385      2.64e-07  Convergence criterion met
 Total energy in the final basis set =    -5265.6932705385

             Standard Nuclear Orientation (Angstroms)
    I     Atom           X                Y                Z
 ----------------------------------------------------------------
    1      Br     -0.7126864579     2.0484945482     0.2444120807
    2      Br      2.3995341527    -0.1739837131    -0.2698737832
    3      C      -0.5186120320    -0.2612960642    -0.3778433372
    4      C       0.6599692506    -0.7983614002     0.3752221616
    5      C      -1.8487432745    -0.8628990907    -0.0233091377
    6      H      -0.3499126371    -0.0774541727    -1.4353473328
    7      H       0.6051366480    -0.5660058278     1.4376031309
    8      H       0.6775811913    -1.8870066481     0.2505538776
    9      H      -2.0141115975    -0.8760487606     1.0565317992
   10      H      -2.6666590274    -0.3225941390    -0.5012731480
   11      H      -1.8666962162    -1.9018447319    -0.3858783112
 ----------------------------------------------------------------

   11   -5265.6932710560      2.64e-07  Convergence criterion met
 Total energy in the final basis set =    -5265.6932710560

                    Orbital Energies (a.u.)
 --------------------------------------------------------------

 Alpha MOs
 -- Occupied --
*******-482.832 -62.523 -62.490 -56.345 -56.341 -56.341 -56.311
-56.307 -56.307 -10.294 -10.273 -10.221  -8.710  -8.675  -6.541
 -6.527  -6.527  -6.505  -6.493  -6.493  -2.635  -2.631  -2.630
 -2.620  -2.620  -2.598  -2.595  -2.595  -2.586  -2.586  -0.859
 -0.792  -0.724  -0.702  -0.615  -0.499  -0.479  -0.458  -0.440
 -0.402  -0.385  -0.312  -0.293  -0.289  -0.266  -0.263

 Beta MOs
 -- Occupied --
*******-482.832 -62.523 -62.490 -56.345 -56.341 -56.341 -56.311
-56.307 -56.307 -10.294 -10.273 -10.221  -8.710  -8.675  -6.541
 -6.527  -6.527  -6.505  -6.493  -6.493  -2.635  -2.631  -2.630
 -2.620  -2.620  -2.598  -2.595  -2.595  -2.586  -2.586  -0.859
 -0.792  -0.724  -0.702  -0.615  -0.499  -0.479  -0.458  -0.440
 -0.402  -0.385  -0.312  -0.293  -0.289  -0.266  -0.263

          Ground-State Mulliken Net Atomic Charges

     Atom                 Charge (a.u.)    Spin (a.u.)
  --------------------------------------------------------
      1 Br                   -0.259395      -0.000000
      2 Br                   -0.062059      -0.000000
      3 C                    -0.071067       0.000000
      4 C                    -0.254363      -0.000000
      5 C                    -0.329526       0.000000
      6 H                     0.184277      -0.000000
      7 H                     0.188709       0.000000
      8 H                     0.166269      -0.000000
      9 H                     0.146328      -0.000000
     10 H                     0.160451       0.000000
     11 H                     0.130377      -0.000000
  --------------------------------------------------------
  Sum of atomic charges =    -0.000000

                    Cartesian Multipole Moments
 -----------------------------------------------------------------
    Charge (ESU x 10^10)
                 0.0000
    Dipole Moment (Debye)
         X      -1.5404      Y      -4.1800      Z      -0.1620
       Tot       4.4577
    Quadrupole Moments (Debye-Ang)
        XX     -58.0759     XY       3.2848     YY     -59.4806
        XZ       0.9787     YZ      -0.8464     ZZ     -55.3018

 Final energy is   -5265.69327105596
 **  OPTIMIZATION CONVERGED  **
 Total job time:  52.21s(wall), 607.75s(cpu)
        *  Thank you very much for using Q-Chem.  Have a nice day.  *
