 Q-Chem 5.1, Q-Chem, Inc., Pleasanton, CA (2018)
 Q-Chem 5.1.1 for Intel X86 EM64T Linux

User input:
--------------------------------------------------------------

$comment
potential surface scanner
$end

$rem
JOBTYPE  PES_SCAN
UNRESTRICTED TRUE
SYM_IGNORE  TRUE
GEOM_OPT_MAX_CYCLES 400
SCF_MAX_CYCLES 400
METHOD   B3LYP
BASIS   6-31G**
PDB_PRINT 2
SCF_CONVERGENCE 6
THRESH 14
SCF_PRINT 1
$end
$molecule
0 3
Br -0.449023 2.029140 -1.047474
Br 0.814628 1.387766 1.506626
C -0.357847 -0.804743 -0.438543
C 0.641841 -0.887498 0.528128
C -1.795997 -1.067629 -0.151889
H -0.064747 -0.679552 -1.473742
H 0.408694 -1.301588 1.503273
H 1.682569 -0.906818 0.227248
H -2.008099 -1.071271 0.919947
H -2.435273 -0.326947 -0.639613
H -2.071951 -2.049863 -0.563154
$end
$scan
stre 1 3 2.800000 2.801000 0.100000
$end
--------------------------------------------------------------

   13   -5265.6299505816      7.73e-07  Convergence criterion met
 Total energy in the final basis set =    -5265.6299505816
   13   -5265.6280872622      6.99e-07  Convergence criterion met
 Total energy in the final basis set =    -5265.6280872622
   13   -5265.6282414807      7.00e-07  Convergence criterion met
 Total energy in the final basis set =    -5265.6282414807
   13   -5265.6283792430      6.95e-07  Convergence criterion met
 Total energy in the final basis set =    -5265.6283792430
   13   -5265.6283977776      6.83e-07  Convergence criterion met
 Total energy in the final basis set =    -5265.6283977776
   13   -5265.6284089961      6.56e-07  Convergence criterion met
 Total energy in the final basis set =    -5265.6284089961
   13   -5265.6284172916      6.19e-07  Convergence criterion met
 Total energy in the final basis set =    -5265.6284172916
   13   -5265.6284347427      4.97e-07  Convergence criterion met
   13   -5265.6284553362      3.49e-07  Convergence criterion met
 Total energy in the final basis set =    -5265.6284553362
   13   -5265.6284798650      3.17e-07  Convergence criterion met
 Total energy in the final basis set =    -5265.6284798650
   13   -5265.6285010633      3.20e-07  Convergence criterion met
 Total energy in the final basis set =    -5265.6285010633
   13   -5265.6285198742      4.83e-07  Convergence criterion met
 Total energy in the final basis set =    -5265.6285198742
   13   -5265.6285303538      6.31e-07  Convergence criterion met
 Total energy in the final basis set =    -5265.6285303538
   13   -5265.6285338166      6.62e-07  Convergence criterion met
 Total energy in the final basis set =    -5265.6285338166

             Standard Nuclear Orientation (Angstroms)
    I     Atom           X                Y                Z
 ----------------------------------------------------------------
    1      Br     -0.5329835074     2.0005209949    -0.8758909426
    2      Br      0.9300386246     1.3647530102     1.5560436162
    3      C      -0.3616232547    -0.7639445674    -0.4655638835
    4      C       0.6359046000    -0.8887457750     0.5024535481
    5      C      -1.7990593790    -1.0495137938    -0.1809912786
    6      H      -0.0587348270    -0.6662722402    -1.5016217665
    7      H       0.3877979747    -1.3049024990     1.4727571868
    8      H       1.6757677877    -0.9359714905     0.2032077686
    9      H      -2.0558812763    -0.8434093574     0.8613732842
   10      H      -2.4622895199    -0.4753736400    -0.8302382207
   11      H      -1.9941422226    -2.1161436417    -0.3707223121
 ----------------------------------------------------------------

   13   -5265.6285346485      6.60e-07  Convergence criterion met
 Total energy in the final basis set =    -5265.6285346485

                    Orbital Energies (a.u.)
 --------------------------------------------------------------

 Alpha MOs
 -- Occupied --
*******-482.839 -62.519 -62.496 -56.339 -56.339 -56.336 -56.318
-56.315 -56.314 -10.263 -10.254 -10.212  -8.706  -8.683  -6.532
 -6.530  -6.521  -6.514  -6.503  -6.500  -2.627  -2.627  -2.621
 -2.619  -2.618  -2.606  -2.604  -2.602  -2.594  -2.594  -0.842
 -0.773  -0.740  -0.721  -0.605  -0.511  -0.467  -0.452  -0.407
 -0.396  -0.373  -0.348  -0.300  -0.285  -0.268  -0.253  -0.245

 Beta MOs
 -- Occupied --
*******-482.837 -62.517 -62.495 -56.336 -56.336 -56.335 -56.314
-56.313 -56.313 -10.257 -10.251 -10.212  -8.702  -8.680  -6.526
 -6.525  -6.520  -6.506  -6.500  -6.498  -2.622  -2.622  -2.618
 -2.616  -2.615  -2.601  -2.600  -2.598  -2.593  -2.593  -0.827
 -0.746  -0.718  -0.702  -0.596  -0.507  -0.462  -0.441  -0.404
 -0.393  -0.336  -0.305  -0.289  -0.262  -0.258

          Ground-State Mulliken Net Atomic Charges

     Atom                 Charge (a.u.)    Spin (a.u.)
  --------------------------------------------------------
      1 Br                   -0.227180       0.695773
      2 Br                   -0.116795       0.752513
      3 C                     0.002691       0.416193
      4 C                    -0.233311       0.155281
      5 C                    -0.348418      -0.026602
      6 H                     0.159183      -0.016794
      7 H                     0.161952      -0.004596
      8 H                     0.166976      -0.007064
      9 H                     0.143205       0.002861
     10 H                     0.154571       0.011589
     11 H                     0.137126       0.020845
  --------------------------------------------------------
  Sum of atomic charges =     0.000000

                    Cartesian Multipole Moments
 -----------------------------------------------------------------
    Charge (ESU x 10^10)
                 0.0000
    Dipole Moment (Debye)
         X      -0.4989      Y      -4.8416      Z      -0.2719
       Tot       4.8748
    Quadrupole Moments (Debye-Ang)
        XX     -54.7468     XY       0.6697     YY     -60.7681
        XZ      -0.0036     YZ       0.2000     ZZ     -56.6830

 Final energy is   -5265.62853464848
 **  OPTIMIZATION CONVERGED  **
 Total job time:  102.01s(wall), 1131.02s(cpu)
        *  Thank you very much for using Q-Chem.  Have a nice day.  *
