 Q-Chem 5.1, Q-Chem, Inc., Pleasanton, CA (2018)
 Q-Chem 5.1.1 for Intel X86 EM64T Linux

User input:
--------------------------------------------------------------

$comment
potential surface scanner
$end

$rem
JOBTYPE  PES_SCAN
UNRESTRICTED TRUE
SYM_IGNORE  TRUE
GEOM_OPT_MAX_CYCLES 400
SCF_MAX_CYCLES 400
METHOD   B3LYP
BASIS   6-31G**
PDB_PRINT 2
SCF_CONVERGENCE 6
THRESH 14
SCF_PRINT 1
$end
$molecule
0 1
Br -0.621000 1.744900 0.138600
Br 2.339300 0.022500 -0.135100
C -0.519000 -0.151000 -0.364100
C 0.644500 -0.814800 0.353000
C -1.843800 -0.801500 0.007700
H -0.380000 -0.157800 -1.450100
H 0.570800 -0.733000 1.441800
H 0.738000 -1.869500 0.078300
H -2.034600 -0.746700 1.085500
H -2.681600 -0.314200 -0.503400
H -1.847800 -1.857900 -0.281400
$end
$scan
stre 1 3 1.700000 1.701000 0.100000
$end
--------------------------------------------------------------

    9   -5265.7112865010      6.36e-07  Convergence criterion met
 Total energy in the final basis set =    -5265.7112865010
   10   -5265.7006859870      3.75e-07  Convergence criterion met
 Total energy in the final basis set =    -5265.7006859870
   10   -5265.6780025492      3.73e-07  Convergence criterion met
 Total energy in the final basis set =    -5265.6780025492
   10   -5265.6786081005      3.74e-07  Convergence criterion met
 Total energy in the final basis set =    -5265.6786081005
   10   -5265.6796876236      3.78e-07  Convergence criterion met
 Total energy in the final basis set =    -5265.6796876236
   10   -5265.6797341733      3.78e-07  Convergence criterion met
 Total energy in the final basis set =    -5265.6797341733
   10   -5265.6797854112      3.79e-07  Convergence criterion met
 Total energy in the final basis set =    -5265.6797854112
   10   -5265.6797956240      3.79e-07  Convergence criterion met
 Total energy in the final basis set =    -5265.6797956240
   10   -5265.6798462524      3.79e-07  Convergence criterion met
 Total energy in the final basis set =    -5265.6798462524
   10   -5265.6798622476      3.78e-07  Convergence criterion met
 Total energy in the final basis set =    -5265.6798622476
   10   -5265.6798715171      3.78e-07  Convergence criterion met
 Total energy in the final basis set =    -5265.6798715171
   10   -5265.6798731428      3.78e-07  Convergence criterion met
 Total energy in the final basis set =    -5265.6798731428

             Standard Nuclear Orientation (Angstroms)
    I     Atom           X                Y                Z
 ----------------------------------------------------------------
    1      Br     -0.6667495440     1.6308113001     0.1144063896
    2      Br      2.4086955371    -0.1507730679    -0.2086082915
    3      C      -0.5404271246    -0.0108530324    -0.3086549411
    4      C       0.6252108518    -0.7580619605     0.3684948182
    5      C      -1.8300038705    -0.8139071640     0.0000112840
    6      H      -0.3707555938    -0.1002192196    -1.3884613837
    7      H       0.6019608040    -0.6326289992     1.4516365904
    8      H       0.5928183501    -1.8175372197     0.1170059817
    9      H      -2.0393239585    -0.8124094381     1.0745243983
   10      H      -2.6849260412    -0.3633983761    -0.5107634042
   11      H      -1.7316994105    -1.8500228227    -0.3387914417
 ----------------------------------------------------------------

   10   -5265.6798740512      3.78e-07  Convergence criterion met
 Total energy in the final basis set =    -5265.6798740512

                    Orbital Energies (a.u.)
 --------------------------------------------------------------

 Alpha MOs
 -- Occupied --
*******-482.854 -62.521 -62.512 -56.342 -56.339 -56.339 -56.333
-56.330 -56.330 -10.255 -10.253 -10.204  -8.711  -8.699  -6.541
 -6.530  -6.528  -6.528  -6.517  -6.516  -2.635  -2.631  -2.631
 -2.623  -2.621  -2.621  -2.619  -2.619  -2.609  -2.609  -0.897
 -0.803  -0.746  -0.682  -0.597  -0.501  -0.462  -0.451  -0.424
 -0.395  -0.384  -0.366  -0.288  -0.285  -0.277  -0.273

 Beta MOs
 -- Occupied --
*******-482.854 -62.521 -62.512 -56.342 -56.339 -56.339 -56.333
-56.330 -56.330 -10.255 -10.253 -10.204  -8.711  -8.699  -6.541
 -6.530  -6.528  -6.528  -6.517  -6.516  -2.635  -2.631  -2.631
 -2.623  -2.621  -2.621  -2.619  -2.619  -2.609  -2.609  -0.897
 -0.803  -0.746  -0.682  -0.597  -0.501  -0.462  -0.451  -0.424
 -0.395  -0.384  -0.366  -0.288  -0.285  -0.277  -0.273

          Ground-State Mulliken Net Atomic Charges

     Atom                 Charge (a.u.)    Spin (a.u.)
  --------------------------------------------------------
      1 Br                   -0.037661       0.000000
      2 Br                   -0.100173      -0.000000
      3 C                    -0.120945       0.000000
      4 C                    -0.251727      -0.000000
      5 C                    -0.328667       0.000000
      6 H                     0.152322      -0.000000
      7 H                     0.161938      -0.000000
      8 H                     0.153125      -0.000000
      9 H                     0.125983       0.000000
     10 H                     0.132840      -0.000000
     11 H                     0.112964      -0.000000
  --------------------------------------------------------
  Sum of atomic charges =    -0.000000

                    Cartesian Multipole Moments
 -----------------------------------------------------------------
    Charge (ESU x 10^10)
                -0.0000
    Dipole Moment (Debye)
         X      -1.9795      Y      -1.8940      Z       0.1345
       Tot       2.7429
    Quadrupole Moments (Debye-Ang)
        XX     -59.5168     XY       1.4296     YY     -56.0328
        XZ       0.6594     YZ      -0.3229     ZZ     -55.4226

 Final energy is   -5265.67987405121
 **  OPTIMIZATION CONVERGED  **
 Total job time:  74.88s(wall), 848.79s(cpu)
        *  Thank you very much for using Q-Chem.  Have a nice day.  *
