 Q-Chem 5.1, Q-Chem, Inc., Pleasanton, CA (2018)
 Q-Chem 5.1.1 for Intel X86 EM64T Linux

User input:
--------------------------------------------------------------

$comment
potential surface scanner
$end

$rem
JOBTYPE  PES_SCAN
UNRESTRICTED TRUE
SYM_IGNORE  TRUE
GEOM_OPT_MAX_CYCLES 400
SCF_MAX_CYCLES 400
METHOD   B3LYP
BASIS   6-31G**
PDB_PRINT 2
SCF_CONVERGENCE 6
THRESH 14
SCF_PRINT 1
$end
$molecule
0 3
Br 2.370779 2.483777 -0.457747
Br -0.145375 1.763917 0.873364
C -0.733567 -0.910603 -0.492708
C 0.444400 -0.609301 0.149498
C -1.923474 -1.525731 0.155829
H -0.826086 -0.638842 -1.542957
H 0.622618 -0.949730 1.164460
H 1.300315 -0.236630 -0.402526
H -1.749567 -1.754029 1.210004
H -2.787672 -0.853107 0.079616
H -2.207574 -2.448725 -0.366026
$end
$scan
stre 1 3 4.500000 4.501000 0.100000
$end
--------------------------------------------------------------

   14   -5265.6354148144      6.67e-07  Convergence criterion met
 Total energy in the final basis set =    -5265.6354148144
   14   -5265.6349513569      5.96e-07  Convergence criterion met
 Total energy in the final basis set =    -5265.6349513569
   14   -5265.6351180944      6.03e-07  Convergence criterion met
 Total energy in the final basis set =    -5265.6351180944
   14   -5265.6351774282      5.96e-07  Convergence criterion met
 Total energy in the final basis set =    -5265.6351774282
   14   -5265.6351821730      6.02e-07  Convergence criterion met
 Total energy in the final basis set =    -5265.6351821730
   14   -5265.6351858317      6.10e-07  Convergence criterion met
 Total energy in the final basis set =    -5265.6351858317
   14   -5265.6351870380      6.12e-07  Convergence criterion met
 Total energy in the final basis set =    -5265.6351870380
   14   -5265.6351891010      6.14e-07  Convergence criterion met
 Total energy in the final basis set =    -5265.6351891010
   14   -5265.6351903635      6.12e-07  Convergence criterion met
 Total energy in the final basis set =    -5265.6351903635
   14   -5265.6351914824      6.08e-07  Convergence criterion met
 Total energy in the final basis set =    -5265.6351914824

             Standard Nuclear Orientation (Angstroms)
    I     Atom           X                Y                Z
 ----------------------------------------------------------------
    1      Br      2.2914610261     2.4512944318    -0.5320593727
    2      Br     -0.1537918060     1.7473053296     0.9142506229
    3      C      -0.7202118261    -0.8919688998    -0.4828808102
    4      C       0.4592727693    -0.6270696095     0.1679594553
    5      C      -1.9192842014    -1.5095630159     0.1471224183
    6      H      -0.8036608125    -0.5985481691    -1.5279333169
    7      H       0.6281209280    -0.9830868920     1.1792038760
    8      H       1.3178136068    -0.2518905703    -0.3769581991
    9      H      -1.7609815724    -1.7358723341     1.2042367124
   10      H      -2.7861468750    -0.8432454731     0.0546820927
   11      H      -2.1877942371    -2.4363587976    -0.3768164787
 ----------------------------------------------------------------

   14   -5265.6351921424      6.04e-07  Convergence criterion met
 Total energy in the final basis set =    -5265.6351921424

                    Orbital Energies (a.u.)
 --------------------------------------------------------------

 Alpha MOs
 -- Occupied --
*******-482.829 -62.529 -62.487 -56.351 -56.349 -56.346 -56.310
-56.304 -56.304 -10.265 -10.253 -10.224  -8.717  -8.674  -6.545
 -6.539  -6.532  -6.506  -6.491  -6.490  -2.639  -2.638  -2.633
 -2.628  -2.628  -2.598  -2.595  -2.594  -2.583  -2.583  -0.849
 -0.780  -0.734  -0.727  -0.610  -0.517  -0.474  -0.459  -0.417
 -0.401  -0.373  -0.353  -0.307  -0.273  -0.262  -0.261  -0.253

 Beta MOs
 -- Occupied --
*******-482.828 -62.528 -62.486 -56.347 -56.346 -56.345 -56.305
-56.304 -56.303 -10.259 -10.252 -10.224  -8.713  -8.671  -6.538
 -6.534  -6.530  -6.498  -6.489  -6.489  -2.633  -2.632  -2.629
 -2.626  -2.625  -2.592  -2.590  -2.589  -2.582  -2.582  -0.836
 -0.751  -0.724  -0.695  -0.603  -0.514  -0.471  -0.450  -0.415
 -0.399  -0.335  -0.309  -0.294  -0.256  -0.251

          Ground-State Mulliken Net Atomic Charges

     Atom                 Charge (a.u.)    Spin (a.u.)
  --------------------------------------------------------
      1 Br                   -0.253233       0.723161
      2 Br                   -0.092682       0.821674
      3 C                     0.020959       0.426707
      4 C                    -0.244112       0.037318
      5 C                    -0.361079      -0.029518
      6 H                     0.143848      -0.018813
      7 H                     0.158695      -0.001052
      8 H                     0.190813      -0.000096
      9 H                     0.135116       0.000353
     10 H                     0.156308       0.021341
     11 H                     0.145367       0.018925
  --------------------------------------------------------
  Sum of atomic charges =    -0.000000

                    Cartesian Multipole Moments
 -----------------------------------------------------------------
    Charge (ESU x 10^10)
                 0.0000
    Dipole Moment (Debye)
         X      -3.4461      Y      -5.3657      Z      -0.0786
       Tot       6.3775
    Quadrupole Moments (Debye-Ang)
        XX     -58.7096     XY      -4.2401     YY     -63.3354
        XZ       1.2577     YZ       0.6708     ZZ     -56.1426

 Final energy is   -5265.63519214237
 **  OPTIMIZATION CONVERGED  **
 Total job time:  69.32s(wall), 808.95s(cpu)
        *  Thank you very much for using Q-Chem.  Have a nice day.  *
