 Q-Chem 5.1, Q-Chem, Inc., Pleasanton, CA (2018)
 Q-Chem 5.1.1 for Intel X86 EM64T Linux

User input:
--------------------------------------------------------------

$comment
potential surface scanner
$end

$rem
JOBTYPE  PES_SCAN
UNRESTRICTED TRUE
SYM_IGNORE  TRUE
GEOM_OPT_MAX_CYCLES 400
SCF_MAX_CYCLES 400
METHOD   B3LYP
BASIS   6-31G**
PDB_PRINT 2
SCF_CONVERGENCE 6
THRESH 14
SCF_PRINT 1
$end
$molecule
0 1
Br -0.621000 1.744900 0.138600
Br 2.339300 0.022500 -0.135100
C -0.519000 -0.151000 -0.364100
C 0.644500 -0.814800 0.353000
C -1.843800 -0.801500 0.007700
H -0.380000 -0.157800 -1.450100
H 0.570800 -0.733000 1.441800
H 0.738000 -1.869500 0.078300
H -2.034600 -0.746700 1.085500
H -2.681600 -0.314200 -0.503400
H -1.847800 -1.857900 -0.281400
$end
$scan
stre 1 3 0.900000 0.901000 0.100000
$end
--------------------------------------------------------------

    9   -5265.7112865010      6.36e-07  Convergence criterion met
 Total energy in the final basis set =    -5265.7112865010
   10   -5265.7006859870      3.75e-07  Convergence criterion met
 Total energy in the final basis set =    -5265.7006859870
   10   -5265.6667426267      3.76e-07  Convergence criterion met
 Total energy in the final basis set =    -5265.6667426267
   10   -5265.6053072919      3.81e-07  Convergence criterion met
 Total energy in the final basis set =    -5265.6053072919
   10   -5265.5129903249      3.90e-07  Convergence criterion met
 Total energy in the final basis set =    -5265.5129903249
   10   -5265.3634268608      4.32e-07  Convergence criterion met
 Total energy in the final basis set =    -5265.3634268608
   10   -5265.1475084369      5.54e-07  Convergence criterion met
 Total energy in the final basis set =    -5265.1475084369
   10   -5264.8505104653      7.87e-07  Convergence criterion met
   12   -5262.8836533851      3.89e-07  Convergence criterion met
 Total energy in the final basis set =    -5262.8836533851
   12   -5262.8836540724      3.89e-07  Convergence criterion met
 Total energy in the final basis set =    -5262.8836540724
   12   -5262.8836552986      3.90e-07  Convergence criterion met
 Total energy in the final basis set =    -5262.8836552986
   12   -5262.8836571768      3.91e-07  Convergence criterion met
 Total energy in the final basis set =    -5262.8836571768
   12   -5262.8836590448      3.92e-07  Convergence criterion met
 Total energy in the final basis set =    -5262.8836590448
   12   -5262.8836600284      3.92e-07  Convergence criterion met
 Total energy in the final basis set =    -5262.8836600284

             Standard Nuclear Orientation (Angstroms)
    I     Atom           X                Y                Z
 ----------------------------------------------------------------
    1      Br     -0.5048659721     1.1681955414    -0.6424923486
    2      Br      1.8410059385     0.4433708229     0.9435059640
    3      C      -0.8276390843     0.3324589581    -0.7282949281
    4      C       0.9721802676    -1.2211906037     0.2780382942
    5      C      -2.0343750385    -0.4852480733     0.1274762138
    6      H      -0.7422616882    -0.5411563070    -1.4085147579
    7      H       0.7765316772    -1.8045953232     1.1827333470
    8      H       1.7494021887    -1.7106495194    -0.3178463999
    9      H      -1.9218955779    -0.1810179145     1.1753558386
   10      H      -2.9918866328    -0.1143486710    -0.2630840394
   11      H      -1.9513960782    -1.5648189102     0.0239228164
 ----------------------------------------------------------------

   12   -5262.8836604443      3.92e-07  Convergence criterion met
 Total energy in the final basis set =    -5262.8836604443

                    Orbital Energies (a.u.)
 --------------------------------------------------------------

 Alpha MOs
 -- Occupied --
*******-482.837 -62.711 -62.495 -56.527 -56.522 -56.520 -56.315
-56.313 -56.313 -10.543 -10.197 -10.166  -8.970  -8.682  -6.845
 -6.762  -6.754  -6.509  -6.503  -6.500  -2.947  -2.905  -2.899
 -2.838  -2.838  -2.603  -2.602  -2.600  -2.595  -2.594  -1.081
 -0.770  -0.736  -0.669  -0.646  -0.596  -0.563  -0.436  -0.415
 -0.397  -0.380  -0.343  -0.289  -0.262  -0.220  -0.170

 Beta MOs
 -- Occupied --
*******-482.837 -62.711 -62.495 -56.527 -56.522 -56.520 -56.315
-56.313 -56.313 -10.543 -10.197 -10.166  -8.970  -8.682  -6.845
 -6.762  -6.754  -6.509  -6.503  -6.500  -2.947  -2.905  -2.899
 -2.838  -2.838  -2.603  -2.602  -2.600  -2.595  -2.594  -1.081
 -0.770  -0.736  -0.669  -0.646  -0.596  -0.563  -0.436  -0.415
 -0.397  -0.380  -0.343  -0.289  -0.262  -0.220  -0.170

          Ground-State Mulliken Net Atomic Charges

     Atom                 Charge (a.u.)    Spin (a.u.)
  --------------------------------------------------------
      1 Br                    1.126154       0.000000
      2 Br                   -0.165088      -0.000000
      3 C                    -0.679908      -0.000000
      4 C                    -0.536546      -0.000000
      5 C                    -0.408770       0.000000
      6 H                     0.093769       0.000000
      7 H                     0.104700       0.000000
      8 H                     0.103787       0.000000
      9 H                     0.122851      -0.000000
     10 H                     0.097618       0.000000
     11 H                     0.141434       0.000000
  --------------------------------------------------------
  Sum of atomic charges =     0.000000

                    Cartesian Multipole Moments
 -----------------------------------------------------------------
    Charge (ESU x 10^10)
                 0.0000
    Dipole Moment (Debye)
         X      -3.5286      Y       0.7765      Z      -2.2235
       Tot       4.2424
    Quadrupole Moments (Debye-Ang)
        XX     -56.7815     XY      -1.7525     YY     -55.5383
        XZ      -0.0016     YZ      -1.4636     ZZ     -54.2512

 Final energy is   -5262.88366044426
 **  OPTIMIZATION CONVERGED  **
 Total job time:  482.41s(wall), 5640.64s(cpu)
        *  Thank you very much for using Q-Chem.  Have a nice day.  *
