 Q-Chem 5.1, Q-Chem, Inc., Pleasanton, CA (2018)
 Q-Chem 5.1.1 for Intel X86 EM64T Linux

User input:
--------------------------------------------------------------

$comment
potential surface scanner
$end

$rem
JOBTYPE  PES_SCAN
UNRESTRICTED TRUE
SYM_IGNORE  TRUE
GEOM_OPT_MAX_CYCLES 400
SCF_MAX_CYCLES 400
METHOD   B3LYP
BASIS   6-31G**
PDB_PRINT 2
SCF_CONVERGENCE 6
THRESH 14
SCF_PRINT 1
$end
$molecule
0 3
Br -0.532984 2.000521 -0.875891
Br 0.930039 1.364753 1.556044
C -0.361623 -0.763945 -0.465564
C 0.635905 -0.888746 0.502454
C -1.799059 -1.049514 -0.180991
H -0.058735 -0.666272 -1.501622
H 0.387798 -1.304902 1.472757
H 1.675768 -0.935971 0.203208
H -2.055881 -0.843409 0.861373
H -2.462290 -0.475374 -0.830238
H -1.994142 -2.116144 -0.370722
$end
$scan
stre 1 3 2.700000 2.701000 0.100000
$end
--------------------------------------------------------------

   13   -5265.6285346546      6.60e-07  Convergence criterion met
 Total energy in the final basis set =    -5265.6285346546
   13   -5265.6268656139      4.34e-07  Convergence criterion met
 Total energy in the final basis set =    -5265.6268656139
   13   -5265.6270495134      4.18e-07  Convergence criterion met
 Total energy in the final basis set =    -5265.6270495134
   13   -5265.6272049812      4.60e-07  Convergence criterion met
 Total energy in the final basis set =    -5265.6272049812
   13   -5265.6272366690      4.96e-07  Convergence criterion met
 Total energy in the final basis set =    -5265.6272366690
   13   -5265.6272709480      5.23e-07  Convergence criterion met
 Total energy in the final basis set =    -5265.6272709480
   13   -5265.6272877000      5.29e-07  Convergence criterion met
 Total energy in the final basis set =    -5265.6272877000
   13   -5265.6272992826      5.38e-07  Convergence criterion met
 Total energy in the final basis set =    -5265.6272992826
   13   -5265.6273019780      5.43e-07  Convergence criterion met
 Total energy in the final basis set =    -5265.6273019780

             Standard Nuclear Orientation (Angstroms)
    I     Atom           X                Y                Z
 ----------------------------------------------------------------
    1      Br     -0.5278729715     1.9318743755    -0.8132131133
    2      Br      0.9902979183     1.4107959030     1.6063679569
    3      C      -0.3707737818    -0.7428575835    -0.4798509428
    4      C       0.6273778868    -0.8927188584     0.4834167911
    5      C      -1.8066889585    -1.0473095916    -0.1927087051
    6      H      -0.0657840114    -0.6846410138    -1.5188211548
    7      H       0.3764063123    -1.2848057665     1.4624828603
    8      H       1.6692451168    -0.9259817992     0.1908763054
    9      H      -2.0719100900    -0.8087238451     0.8404554908
   10      H      -2.4789527937    -0.5107180273    -0.8639677038
   11      H      -1.9765486273    -2.1239167931    -0.3442297847
 ----------------------------------------------------------------

   13   -5265.6273026296      5.45e-07  Convergence criterion met
 Total energy in the final basis set =    -5265.6273026296

                    Orbital Energies (a.u.)
 --------------------------------------------------------------

 Alpha MOs
 -- Occupied --
*******-482.845 -62.513 -62.502 -56.334 -56.333 -56.330 -56.324
-56.321 -56.320 -10.265 -10.253 -10.212  -8.700  -8.690  -6.527
 -6.523  -6.518  -6.516  -6.510  -6.506  -2.622  -2.621  -2.616
 -2.613  -2.612  -2.612  -2.610  -2.607  -2.601  -2.601  -0.842
 -0.769  -0.743  -0.722  -0.605  -0.510  -0.466  -0.452  -0.407
 -0.396  -0.371  -0.345  -0.298  -0.290  -0.270  -0.253  -0.246

 Beta MOs
 -- Occupied --
*******-482.843 -62.512 -62.501 -56.331 -56.330 -56.329 -56.320
-56.319 -56.319 -10.260 -10.249 -10.213  -8.697  -8.686  -6.521
 -6.519  -6.514  -6.511  -6.507  -6.504  -2.616  -2.616  -2.612
 -2.611  -2.610  -2.606  -2.606  -2.603  -2.599  -2.599  -0.827
 -0.741  -0.720  -0.704  -0.596  -0.506  -0.461  -0.442  -0.404
 -0.393  -0.332  -0.303  -0.287  -0.264  -0.259

          Ground-State Mulliken Net Atomic Charges

     Atom                 Charge (a.u.)    Spin (a.u.)
  --------------------------------------------------------
      1 Br                   -0.198846       0.709214
      2 Br                   -0.145271       0.747359
      3 C                    -0.017892       0.322515
      4 C                    -0.211200       0.245905
      5 C                    -0.344112      -0.019157
      6 H                     0.159790      -0.012415
      7 H                     0.160460      -0.008588
      8 H                     0.165151      -0.010860
      9 H                     0.145149       0.002007
     10 H                     0.150535       0.009155
     11 H                     0.136234       0.014865
  --------------------------------------------------------
  Sum of atomic charges =     0.000000

                    Cartesian Multipole Moments
 -----------------------------------------------------------------
    Charge (ESU x 10^10)
                -0.0000
    Dipole Moment (Debye)
         X      -0.6839      Y      -4.7186      Z      -0.6146
       Tot       4.8074
    Quadrupole Moments (Debye-Ang)
        XX     -54.9052     XY       0.2681     YY     -60.3486
        XZ      -0.1874     YZ      -0.4858     ZZ     -56.9093

 Final energy is   -5265.62730262957
 **  OPTIMIZATION CONVERGED  **
 Total job time:  64.90s(wall), 755.06s(cpu)
        *  Thank you very much for using Q-Chem.  Have a nice day.  *
