 Q-Chem 5.1, Q-Chem, Inc., Pleasanton, CA (2018)
 Q-Chem 5.1.1 for Intel X86 EM64T Linux

User input:
--------------------------------------------------------------

$comment
potential surface scanner
$end

$rem
JOBTYPE  PES_SCAN
UNRESTRICTED TRUE
SYM_IGNORE  TRUE
GEOM_OPT_MAX_CYCLES 400
SCF_MAX_CYCLES 400
METHOD   B3LYP
BASIS   6-31G**
PDB_PRINT 2
SCF_CONVERGENCE 6
THRESH 14
SCF_PRINT 1
$end
$molecule
0 3
Br -0.726930 2.238791 0.307788
Br 2.393607 -0.198686 -0.310519
C -0.511645 -0.355743 -0.407787
C 0.670216 -0.817349 0.369129
C -1.850809 -0.886998 -0.030720
H -0.350528 -0.078265 -1.445219
H 0.602466 -0.525510 1.416632
H 0.705069 -1.913721 0.316956
H -1.999151 -0.899889 1.051186
H -2.650597 -0.315203 -0.501836
H -1.916898 -1.926427 -0.394809
$end
$scan
stre 1 3 5.700000 5.701000 0.100000
$end
--------------------------------------------------------------

   25   -5265.5909063876      6.91e-07  Convergence criterion met
 Total energy in the final basis set =    -5265.5909063876
   30   -5265.5975034772      7.75e-07  Convergence criterion met
 Total energy in the final basis set =    -5265.5975034772
   21   -5265.6018734094      6.02e-07  Convergence criterion met
 Total energy in the final basis set =    -5265.6018734094
   20   -5265.6047843561      5.77e-07  Convergence criterion met
 Total energy in the final basis set =    -5265.6047843561
   19   -5265.6069682222      4.26e-07  Convergence criterion met
 Total energy in the final basis set =    -5265.6069682222
   16   -5265.6087360688      5.89e-07  Convergence criterion met
 Total energy in the final basis set =    -5265.6087360688
   15   -5265.6103522837      5.69e-07  Convergence criterion met
 Total energy in the final basis set =    -5265.6103522837
   14   -5265.6119796906      7.65e-07  Convergence criterion met
   16   -5265.6310256136      5.42e-07  Convergence criterion met
 Total energy in the final basis set =    -5265.6310256136
   16   -5265.6310510616      5.00e-07  Convergence criterion met
 Total energy in the final basis set =    -5265.6310510616
   16   -5265.6310679395      4.98e-07  Convergence criterion met
 Total energy in the final basis set =    -5265.6310679395
   16   -5265.6310868316      4.69e-07  Convergence criterion met
 Total energy in the final basis set =    -5265.6310868316
   16   -5265.6310911520      4.46e-07  Convergence criterion met
 Total energy in the final basis set =    -5265.6310911520
   16   -5265.6310953275      4.11e-07  Convergence criterion met
 Total energy in the final basis set =    -5265.6310953275

             Standard Nuclear Orientation (Angstroms)
    I     Atom           X                Y                Z
 ----------------------------------------------------------------
    1      Br      2.6482121114     3.0248041912     1.1260211458
    2      Br      0.0794414890     1.9494508727     0.1740887277
    3      C      -0.8864170862    -1.0851326466    -0.6360271370
    4      C       0.3872354764    -0.7191812407    -0.3009985389
    5      C      -1.9209545300    -1.5458592778     0.3302607601
    6      H      -1.1897025758    -0.9995709199    -1.6790633978
    7      H       0.7600187666    -0.8564664216     0.7089341759
    8      H       1.1139303537    -0.4616061438    -1.0627118218
    9      H      -1.5204994279    -1.6607406097     1.3401970529
   10      H      -2.7497739809    -0.8258967021     0.3650211867
   11      H      -2.3566905961    -2.4988011017     0.0050788465
 ----------------------------------------------------------------

   16   -5265.6310961241      4.05e-07  Convergence criterion met
 Total energy in the final basis set =    -5265.6310961241

                    Orbital Energies (a.u.)
 --------------------------------------------------------------

 Alpha MOs
 -- Occupied --
*******-482.837 -62.528 -62.495 -56.350 -56.347 -56.345 -56.317
-56.313 -56.312 -10.261 -10.246 -10.222  -8.715  -8.682  -6.544
 -6.537  -6.530  -6.513  -6.500  -6.497  -2.637  -2.637  -2.632
 -2.627  -2.626  -2.605  -2.603  -2.601  -2.591  -2.591  -0.843
 -0.777  -0.735  -0.729  -0.606  -0.515  -0.469  -0.456  -0.415
 -0.398  -0.366  -0.346  -0.303  -0.286  -0.273  -0.265  -0.250

 Beta MOs
 -- Occupied --
*******-482.835 -62.526 -62.493 -56.346 -56.345 -56.344 -56.313
-56.311 -56.311 -10.256 -10.245 -10.222  -8.711  -8.678  -6.536
 -6.532  -6.528  -6.505  -6.497  -6.496  -2.631  -2.631  -2.627
 -2.624  -2.623  -2.599  -2.597  -2.596  -2.590  -2.590  -0.832
 -0.744  -0.725  -0.697  -0.600  -0.512  -0.467  -0.448  -0.413
 -0.396  -0.325  -0.303  -0.291  -0.257  -0.253

          Ground-State Mulliken Net Atomic Charges

     Atom                 Charge (a.u.)    Spin (a.u.)
  --------------------------------------------------------
      1 Br                   -0.198357       0.792387
      2 Br                   -0.108836       0.845542
      3 C                     0.018667       0.351126
      4 C                    -0.237814       0.013549
      5 C                    -0.361132      -0.023270
      6 H                     0.132216      -0.015401
      7 H                     0.157877       0.000073
      8 H                     0.163539       0.000234
      9 H                     0.136732       0.000436
     10 H                     0.155819       0.021309
     11 H                     0.141291       0.014015
  --------------------------------------------------------
  Sum of atomic charges =     0.000000

                    Cartesian Multipole Moments
 -----------------------------------------------------------------
    Charge (ESU x 10^10)
                 0.0000
    Dipole Moment (Debye)
         X      -3.5834      Y      -5.4989      Z      -1.6136
       Tot       6.7589
    Quadrupole Moments (Debye-Ang)
        XX     -58.8574     XY      -4.9958     YY     -64.8286
        XZ      -2.0526     YZ      -2.6982     ZZ     -56.7988

 Final energy is   -5265.63109612408
 **  OPTIMIZATION CONVERGED  **
 Total job time:  560.90s(wall), 6227.24s(cpu)
        *  Thank you very much for using Q-Chem.  Have a nice day.  *
