 Q-Chem 5.1, Q-Chem, Inc., Pleasanton, CA (2018)
 Q-Chem 5.1.1 for Intel X86 EM64T Linux

User input:
--------------------------------------------------------------

$comment
potential surface scanner
$end

$rem
JOBTYPE  PES_SCAN
UNRESTRICTED TRUE
SYM_IGNORE  TRUE
GEOM_OPT_MAX_CYCLES 400
SCF_MAX_CYCLES 400
METHOD   B3LYP
BASIS   6-31G**
PDB_PRINT 2
SCF_CONVERGENCE 6
THRESH 14
SCF_PRINT 1
$end
$molecule
0 3
Br 2.684926 2.495723 0.858102
Br -0.135210 1.921310 0.225055
C -0.854458 -1.019629 -0.609911
C 0.375360 -0.543371 -0.217070
C -1.893841 -1.549060 0.313103
H -1.113014 -0.962192 -1.666270
H 0.722932 -0.679380 0.801601
H 1.125142 -0.273173 -0.951181
H -1.556264 -1.564935 1.351755
H -2.804814 -0.939234 0.248839
H -2.185962 -2.565060 0.016781
$end
$scan
stre 1 3 5.100000 5.101000 0.100000
$end
--------------------------------------------------------------

   14   -5265.6337863081      7.13e-07  Convergence criterion met
 Total energy in the final basis set =    -5265.6337863081
   14   -5265.6337354538      5.60e-07  Convergence criterion met
 Total energy in the final basis set =    -5265.6337354538
   14   -5265.6339674514      5.52e-07  Convergence criterion met
 Total energy in the final basis set =    -5265.6339674514
   14   -5265.6340296758      5.59e-07  Convergence criterion met
 Total energy in the final basis set =    -5265.6340296758
   14   -5265.6340333289      5.68e-07  Convergence criterion met
 Total energy in the final basis set =    -5265.6340333289
   14   -5265.6340376822      6.02e-07  Convergence criterion met
 Total energy in the final basis set =    -5265.6340376822
   14   -5265.6340390292      6.25e-07  Convergence criterion met
 Total energy in the final basis set =    -5265.6340390292
   14   -5265.6340404864      6.56e-07  Convergence criterion met
   14   -5265.6340761826      6.51e-07  Convergence criterion met
 Total energy in the final basis set =    -5265.6340761826
   14   -5265.6340837889      6.60e-07  Convergence criterion met
 Total energy in the final basis set =    -5265.6340837889
   14   -5265.6340886950      6.69e-07  Convergence criterion met
 Total energy in the final basis set =    -5265.6340886950
   14   -5265.6340930254      6.80e-07  Convergence criterion met
 Total energy in the final basis set =    -5265.6340930254
   14   -5265.6340501775      7.44e-07  Convergence criterion met
 Total energy in the final basis set =    -5265.6340501775
   14   -5265.6340952460      6.85e-07  Convergence criterion met
 Total energy in the final basis set =    -5265.6340952460

             Standard Nuclear Orientation (Angstroms)
    I     Atom           X                Y                Z
 ----------------------------------------------------------------
    1      Br      2.7044474934     2.5453637784     0.4277960942
    2      Br     -0.1605672868     1.8704167553     0.4613447300
    3      C      -0.8254995744    -0.9949774891    -0.5799043686
    4      C       0.3866376666    -0.5517435877    -0.1009083245
    5      C      -1.9157203064    -1.5571415421     0.2618517203
    6      H      -1.0295524672    -0.8796148683    -1.6433914787
    7      H       0.6814575796    -0.7518919201     0.9236930989
    8      H       1.1745244887    -0.2433175826    -0.7780566694
    9      H      -1.6340291061    -1.6228447460     1.3151552594
   10      H      -2.8180851105    -0.9369916023     0.1777291690
   11      H      -2.1988163768    -2.5562581955    -0.0945052308
 ----------------------------------------------------------------

   14   -5265.6340957382      6.86e-07  Convergence criterion met
 Total energy in the final basis set =    -5265.6340957382

                    Orbital Energies (a.u.)
 --------------------------------------------------------------

 Alpha MOs
 -- Occupied --
*******-482.830 -62.528 -62.487 -56.349 -56.347 -56.345 -56.310
-56.305 -56.304 -10.266 -10.255 -10.225  -8.715  -8.674  -6.544
 -6.537  -6.530  -6.506  -6.491  -6.490  -2.637  -2.637  -2.632
 -2.627  -2.626  -2.598  -2.595  -2.594  -2.583  -2.583  -0.849
 -0.779  -0.735  -0.726  -0.611  -0.519  -0.474  -0.460  -0.418
 -0.402  -0.372  -0.351  -0.304  -0.275  -0.262  -0.261  -0.251

 Beta MOs
 -- Occupied --
*******-482.828 -62.526 -62.486 -56.346 -56.345 -56.344 -56.305
-56.304 -56.303 -10.260 -10.255 -10.225  -8.711  -8.671  -6.536
 -6.532  -6.528  -6.498  -6.489  -6.489  -2.632  -2.631  -2.628
 -2.624  -2.624  -2.592  -2.590  -2.589  -2.582  -2.582  -0.836
 -0.751  -0.725  -0.693  -0.604  -0.515  -0.471  -0.450  -0.416
 -0.400  -0.336  -0.308  -0.291  -0.255  -0.250

          Ground-State Mulliken Net Atomic Charges

     Atom                 Charge (a.u.)    Spin (a.u.)
  --------------------------------------------------------
      1 Br                   -0.240293       0.743765
      2 Br                   -0.099555       0.802530
      3 C                     0.021409       0.462330
      4 C                    -0.249639      -0.003370
      5 C                    -0.361383      -0.031835
      6 H                     0.137750      -0.020355
      7 H                     0.169070       0.001125
      8 H                     0.183402       0.001333
      9 H                     0.138435       0.000405
     10 H                     0.155822       0.024243
     11 H                     0.144981       0.019829
  --------------------------------------------------------
  Sum of atomic charges =     0.000000

                    Cartesian Multipole Moments
 -----------------------------------------------------------------
    Charge (ESU x 10^10)
                -0.0000
    Dipole Moment (Debye)
         X      -3.9045      Y      -5.5193      Z      -1.1142
       Tot       6.8520
    Quadrupole Moments (Debye-Ang)
        XX     -60.1269     XY      -4.9457     YY     -63.7529
        XZ      -0.9642     YZ      -1.2576     ZZ     -56.1046

 Final energy is   -5265.63409573817
 **  OPTIMIZATION CONVERGED  **
 Total job time:  170.84s(wall), 1879.83s(cpu)
        *  Thank you very much for using Q-Chem.  Have a nice day.  *
