 Q-Chem 5.1, Q-Chem, Inc., Pleasanton, CA (2018)
 Q-Chem 5.1.1 for Intel X86 EM64T Linux

User input:
--------------------------------------------------------------

$comment
potential surface scanner
$end

$rem
JOBTYPE  PES_SCAN
UNRESTRICTED TRUE
SYM_IGNORE  TRUE
GEOM_OPT_MAX_CYCLES 400
SCF_MAX_CYCLES 400
METHOD   B3LYP
BASIS   6-31G**
PDB_PRINT 2
SCF_CONVERGENCE 6
THRESH 14
SCF_PRINT 1
$end
$molecule
0 3
Br 2.648212 3.024804 1.126021
Br 0.079441 1.949451 0.174089
C -0.886417 -1.085133 -0.636027
C 0.387235 -0.719181 -0.300999
C -1.920955 -1.545859 0.330261
H -1.189703 -0.999571 -1.679063
H 0.760019 -0.856466 0.708934
H 1.113930 -0.461606 -1.062712
H -1.520499 -1.660741 1.340197
H -2.749774 -0.825897 0.365021
H -2.356691 -2.498801 0.005079
$end
$scan
stre 1 3 5.600000 5.601000 0.100000
$end
--------------------------------------------------------------

   16   -5265.6310961361      4.05e-07  Convergence criterion met
 Total energy in the final basis set =    -5265.6310961361
   15   -5265.6313596773      8.38e-07  Convergence criterion met
 Total energy in the final basis set =    -5265.6313596773
   15   -5265.6316607363      8.44e-07  Convergence criterion met
 Total energy in the final basis set =    -5265.6316607363
   15   -5265.6317433651      8.78e-07  Convergence criterion met
 Total energy in the final basis set =    -5265.6317433651
   15   -5265.6317518983      8.94e-07  Convergence criterion met
 Total energy in the final basis set =    -5265.6317518983
   15   -5265.6317770742      9.59e-07  Convergence criterion met
 Total energy in the final basis set =    -5265.6317770742
   16   -5265.6317930901      3.36e-07  Convergence criterion met
 Total energy in the final basis set =    -5265.6317930901
   15   -5265.6318054300      9.81e-07  Convergence criterion met
 Total energy in the final basis set =    -5265.6318054300
   16   -5265.6318133723      3.51e-07  Convergence criterion met
 Total energy in the final basis set =    -5265.6318133723
   16   -5265.6318209168      3.54e-07  Convergence criterion met
 Total energy in the final basis set =    -5265.6318209168
   16   -5265.6318265064      3.64e-07  Convergence criterion met
 Total energy in the final basis set =    -5265.6318265064
   16   -5265.6318296518      3.80e-07  Convergence criterion met
 Total energy in the final basis set =    -5265.6318296518
   16   -5265.6318307635      3.89e-07  Convergence criterion met
 Total energy in the final basis set =    -5265.6318307635

             Standard Nuclear Orientation (Angstroms)
    I     Atom           X                Y                Z
 ----------------------------------------------------------------
    1      Br      2.6907319387     2.8642791900     1.1287377071
    2      Br      0.0243201640     1.9162450755     0.1573047314
    3      C      -0.8895687015    -1.0639642106    -0.6348820781
    4      C       0.3754240824    -0.6507610752    -0.2972273967
    5      C      -1.9121940419    -1.5431425503     0.3332820175
    6      H      -1.1890353403    -0.9992105717    -1.6800134192
    7      H       0.7527150496    -0.7860598213     0.7110775851
    8      H       1.1026171834    -0.4084158595    -1.0634275109
    9      H      -1.5306674376    -1.5726106850     1.3562609032
   10      H      -2.7949727904    -0.8907708808     0.3061554591
   11      H      -2.2645721064    -2.5445886112     0.0535330014
 ----------------------------------------------------------------

   16   -5265.6318314943      3.94e-07  Convergence criterion met
 Total energy in the final basis set =    -5265.6318314943

                    Orbital Energies (a.u.)
 --------------------------------------------------------------

 Alpha MOs
 -- Occupied --
*******-482.834 -62.526 -62.491 -56.348 -56.345 -56.343 -56.314
-56.309 -56.308 -10.265 -10.252 -10.224  -8.713  -8.678  -6.542
 -6.535  -6.529  -6.510  -6.495  -6.494  -2.636  -2.635  -2.630
 -2.625  -2.624  -2.602  -2.599  -2.598  -2.587  -2.587  -0.847
 -0.776  -0.735  -0.728  -0.610  -0.518  -0.473  -0.459  -0.417
 -0.401  -0.368  -0.345  -0.301  -0.282  -0.268  -0.263  -0.251

 Beta MOs
 -- Occupied --
*******-482.832 -62.525 -62.490 -56.344 -56.343 -56.342 -56.309
-56.307 -56.307 -10.259 -10.251 -10.225  -8.710  -8.675  -6.535
 -6.530  -6.527  -6.502  -6.493  -6.492  -2.630  -2.629  -2.626
 -2.622  -2.622  -2.596  -2.594  -2.593  -2.586  -2.586  -0.835
 -0.746  -0.725  -0.695  -0.603  -0.515  -0.470  -0.449  -0.415
 -0.399  -0.330  -0.302  -0.289  -0.255  -0.251

          Ground-State Mulliken Net Atomic Charges

     Atom                 Charge (a.u.)    Spin (a.u.)
  --------------------------------------------------------
      1 Br                   -0.211759       0.777960
      2 Br                   -0.113318       0.814203
      3 C                     0.022414       0.415039
      4 C                    -0.245421      -0.003950
      5 C                    -0.361438      -0.028020
      6 H                     0.134845      -0.018243
      7 H                     0.165931       0.001077
      8 H                     0.170135       0.001033
      9 H                     0.139076       0.000347
     10 H                     0.155657       0.022816
     11 H                     0.143877       0.017738
  --------------------------------------------------------
  Sum of atomic charges =    -0.000000

                    Cartesian Multipole Moments
 -----------------------------------------------------------------
    Charge (ESU x 10^10)
                 0.0000
    Dipole Moment (Debye)
         X      -3.7715      Y      -5.6783      Z      -1.7178
       Tot       7.0298
    Quadrupole Moments (Debye-Ang)
        XX     -59.3688     XY      -5.0008     YY     -64.6030
        XZ      -2.2493     YZ      -2.7190     ZZ     -56.8219

 Final energy is   -5265.63183149432
 **  OPTIMIZATION CONVERGED  **
 Total job time:  91.01s(wall), 1060.39s(cpu)
        *  Thank you very much for using Q-Chem.  Have a nice day.  *
