 Q-Chem 5.1, Q-Chem, Inc., Pleasanton, CA (2018)
 Q-Chem 5.1.1 for Intel X86 EM64T Linux

User input:
--------------------------------------------------------------

$comment
potential surface scanner
$end

$rem
JOBTYPE  PES_SCAN
UNRESTRICTED TRUE
SYM_IGNORE  TRUE
GEOM_OPT_MAX_CYCLES 400
SCF_MAX_CYCLES 400
METHOD   B3LYP
BASIS   6-31G**
PDB_PRINT 2
SCF_CONVERGENCE 6
THRESH 14
SCF_PRINT 1
$end
$molecule
0 1
Br -0.712686 2.048495 0.244412
Br 2.399534 -0.173984 -0.269874
C -0.518612 -0.261296 -0.377843
C 0.659969 -0.798361 0.375222
C -1.848743 -0.862899 -0.023309
H -0.349913 -0.077454 -1.435347
H 0.605137 -0.566006 1.437603
H 0.677581 -1.887007 0.250554
H -2.014112 -0.876049 1.056532
H -2.666659 -0.322594 -0.501273
H -1.866696 -1.901845 -0.385878
$end
$scan
stre 1 3 2.500000 2.501000 0.100000
$end
--------------------------------------------------------------

   11   -5265.6932710393      2.64e-07  Convergence criterion met
 Total energy in the final basis set =    -5265.6932710393
   11   -5265.6858813359      3.85e-07  Convergence criterion met
 Total energy in the final basis set =    -5265.6858813359
   11   -5265.6858427162      3.89e-07  Convergence criterion met
 Total energy in the final basis set =    -5265.6858427162
   11   -5265.6859357963      3.92e-07  Convergence criterion met
 Total energy in the final basis set =    -5265.6859357963
   11   -5265.6859395410      3.93e-07  Convergence criterion met
 Total energy in the final basis set =    -5265.6859395410
   11   -5265.6859417890      3.93e-07  Convergence criterion met
 Total energy in the final basis set =    -5265.6859417890
   11   -5265.6859429876      3.93e-07  Convergence criterion met
 Total energy in the final basis set =    -5265.6859429876
   11   -5265.6859442274      3.93e-07  Convergence criterion met
 Total energy in the final basis set =    -5265.6859442274

             Standard Nuclear Orientation (Angstroms)
    I     Atom           X                Y                Z
 ----------------------------------------------------------------
    1      Br     -0.7153089498     2.1107521351     0.2662549276
    2      Br      2.3970937435    -0.1788285650    -0.2798286885
    3      C      -0.5163198298    -0.2939150047    -0.3879459172
    4      C       0.6631405174    -0.8042145730     0.3745975030
    5      C      -1.8499614883    -0.8713823939    -0.0272246991
    6      H      -0.3490259481    -0.0760426800    -1.4388376740
    7      H       0.6024798987    -0.5533962732     1.4325846936
    8      H       0.6881855241    -1.8959315210     0.2723333408
    9      H      -2.0099174082    -0.8863874221     1.0532446016
   10      H      -2.6618380177    -0.3195848013    -0.5019791998
   11      H      -1.8837280419    -1.9100689008    -0.3923998879
 ----------------------------------------------------------------

   11   -5265.6859448174      3.93e-07  Convergence criterion met
 Total energy in the final basis set =    -5265.6859448174

                    Orbital Energies (a.u.)
 --------------------------------------------------------------

 Alpha MOs
 -- Occupied --
*******-482.826 -62.525 -62.484 -56.347 -56.343 -56.342 -56.305
-56.301 -56.301 -10.299 -10.275 -10.225  -8.712  -8.670  -6.543
 -6.529  -6.529  -6.498  -6.488  -6.487  -2.637  -2.633  -2.632
 -2.622  -2.621  -2.592  -2.589  -2.589  -2.580  -2.580  -0.862
 -0.795  -0.717  -0.706  -0.619  -0.501  -0.483  -0.462  -0.442
 -0.405  -0.388  -0.302  -0.294  -0.290  -0.261  -0.258

 Beta MOs
 -- Occupied --
*******-482.826 -62.525 -62.484 -56.347 -56.343 -56.342 -56.305
-56.301 -56.301 -10.299 -10.275 -10.225  -8.712  -8.670  -6.543
 -6.529  -6.529  -6.498  -6.488  -6.487  -2.637  -2.633  -2.632
 -2.622  -2.621  -2.592  -2.589  -2.589  -2.580  -2.580  -0.862
 -0.795  -0.717  -0.706  -0.619  -0.501  -0.483  -0.462  -0.442
 -0.405  -0.388  -0.302  -0.294  -0.290  -0.261  -0.258

          Ground-State Mulliken Net Atomic Charges

     Atom                 Charge (a.u.)    Spin (a.u.)
  --------------------------------------------------------
      1 Br                   -0.299340       0.000000
      2 Br                   -0.056580       0.000000
      3 C                    -0.049615       0.000000
      4 C                    -0.258839       0.000000
      5 C                    -0.333654       0.000000
      6 H                     0.187648       0.000000
      7 H                     0.193500      -0.000000
      8 H                     0.168439      -0.000000
      9 H                     0.149734      -0.000000
     10 H                     0.165029      -0.000000
     11 H                     0.133676      -0.000000
  --------------------------------------------------------
  Sum of atomic charges =     0.000000

                    Cartesian Multipole Moments
 -----------------------------------------------------------------
    Charge (ESU x 10^10)
                 0.0000
    Dipole Moment (Debye)
         X      -1.4792      Y      -4.6247      Z      -0.2378
       Tot       4.8613
    Quadrupole Moments (Debye-Ang)
        XX     -57.8058     XY       3.6584     YY     -60.3135
        XZ       1.0575     YZ      -1.0094     ZZ     -55.2649

 Final energy is   -5265.68594481743
 **  OPTIMIZATION CONVERGED  **
 Total job time:  52.52s(wall), 601.55s(cpu)
        *  Thank you very much for using Q-Chem.  Have a nice day.  *
