 Q-Chem 5.1, Q-Chem, Inc., Pleasanton, CA (2018)
 Q-Chem 5.1.1 for Intel X86 EM64T Linux

User input:
--------------------------------------------------------------

$comment
potential surface scanner
$end

$rem
JOBTYPE  PES_SCAN
UNRESTRICTED TRUE
SYM_IGNORE  TRUE
GEOM_OPT_MAX_CYCLES 400
SCF_MAX_CYCLES 400
METHOD   B3LYP
BASIS   6-31G**
PDB_PRINT 2
SCF_CONVERGENCE 6
THRESH 14
SCF_PRINT 1
$end
$molecule
0 1
Br -0.621000 1.744900 0.138600
Br 2.339300 0.022500 -0.135100
C -0.519000 -0.151000 -0.364100
C 0.644500 -0.814800 0.353000
C -1.843800 -0.801500 0.007700
H -0.380000 -0.157800 -1.450100
H 0.570800 -0.733000 1.441800
H 0.738000 -1.869500 0.078300
H -2.034600 -0.746700 1.085500
H -2.681600 -0.314200 -0.503400
H -1.847800 -1.857900 -0.281400
$end
$scan
stre 1 3 1.200000 1.201000 0.100000
$end
--------------------------------------------------------------

    9   -5265.7112865010      6.36e-07  Convergence criterion met
 Total energy in the final basis set =    -5265.7112865010
   10   -5265.7006859870      3.75e-07  Convergence criterion met
 Total energy in the final basis set =    -5265.7006859870
   10   -5265.6667426268      3.76e-07  Convergence criterion met
 Total energy in the final basis set =    -5265.6667426268
   10   -5265.6053072919      3.81e-07  Convergence criterion met
 Total energy in the final basis set =    -5265.6053072919
   10   -5265.5129903249      3.90e-07  Convergence criterion met
 Total energy in the final basis set =    -5265.5129903249
   10   -5265.3634268607      4.32e-07  Convergence criterion met
 Total energy in the final basis set =    -5265.3634268607
   10   -5265.1461782074      5.55e-07  Convergence criterion met
 Total energy in the final basis set =    -5265.1461782074
   10   -5265.0367753946      6.47e-07  Convergence criterion met
   10   -5265.0101676251      7.38e-07  Convergence criterion met
 Total energy in the final basis set =    -5265.0101676251
   10   -5265.0101710474      7.40e-07  Convergence criterion met
 Total energy in the final basis set =    -5265.0101710474
   10   -5265.0101728867      7.40e-07  Convergence criterion met
 Total energy in the final basis set =    -5265.0101728867
   10   -5265.0101738484      7.41e-07  Convergence criterion met
 Total energy in the final basis set =    -5265.0101738484
   10   -5265.0101747977      7.41e-07  Convergence criterion met
 Total energy in the final basis set =    -5265.0101747977
   10   -5265.0101759075      7.42e-07  Convergence criterion met
 Total energy in the final basis set =    -5265.0101759075

             Standard Nuclear Orientation (Angstroms)
    I     Atom           X                Y                Z
 ----------------------------------------------------------------
    1      Br     -0.6205454150     1.3731768058    -0.0565446837
    2      Br      2.4243572724    -0.0692496871    -0.0447267361
    3      C      -0.5572315592     0.2012776980    -0.3068328426
    4      C       0.6166385659    -0.7599589777     0.3461118987
    5      C      -1.8233459282    -0.7859186831     0.0408628671
    6      H      -0.4077963022    -0.1777280485    -1.3656146953
    7      H       0.5270756880    -0.7502496733     1.4361015369
    8      H       0.5853363365    -1.7728320854    -0.0483923077
    9      H      -2.0006318030    -0.7586588915     1.1232317014
   10      H      -2.7003611767    -0.3631384626    -0.4611123400
   11      H      -1.6786956784    -1.8157199948    -0.2922843987
 ----------------------------------------------------------------

   10   -5265.0101768221      7.42e-07  Convergence criterion met
 Total energy in the final basis set =    -5265.0101768221

                    Orbital Energies (a.u.)
 --------------------------------------------------------------

 Alpha MOs
 -- Occupied --
*******-482.850 -62.550 -62.508 -56.367 -56.366 -56.366 -56.329
-56.326 -56.326 -10.268 -10.245 -10.198  -8.759  -8.695  -6.596
 -6.574  -6.573  -6.525  -6.513  -6.513  -2.700  -2.682  -2.682
 -2.665  -2.665  -2.619  -2.615  -2.615  -2.605  -2.605  -1.047
 -0.803  -0.736  -0.673  -0.592  -0.531  -0.514  -0.461  -0.433
 -0.415  -0.406  -0.367  -0.288  -0.277  -0.240  -0.238

 Beta MOs
 -- Occupied --
*******-482.850 -62.550 -62.508 -56.367 -56.366 -56.366 -56.329
-56.326 -56.326 -10.268 -10.245 -10.198  -8.759  -8.695  -6.596
 -6.574  -6.573  -6.525  -6.513  -6.513  -2.700  -2.682  -2.682
 -2.665  -2.665  -2.619  -2.615  -2.615  -2.605  -2.605  -1.047
 -0.803  -0.736  -0.673  -0.592  -0.531  -0.514  -0.461  -0.433
 -0.415  -0.406  -0.367  -0.288  -0.277  -0.240  -0.238

          Ground-State Mulliken Net Atomic Charges

     Atom                 Charge (a.u.)    Spin (a.u.)
  --------------------------------------------------------
      1 Br                    0.253971      -0.000000
      2 Br                   -0.125593      -0.000000
      3 C                    -0.186248       0.000000
      4 C                    -0.295680       0.000000
      5 C                    -0.370678       0.000000
      6 H                     0.080710       0.000000
      7 H                     0.147402      -0.000000
      8 H                     0.150176       0.000000
      9 H                     0.116291      -0.000000
     10 H                     0.117462       0.000000
     11 H                     0.112185      -0.000000
  --------------------------------------------------------
  Sum of atomic charges =    -0.000000

                    Cartesian Multipole Moments
 -----------------------------------------------------------------
    Charge (ESU x 10^10)
                -0.0000
    Dipole Moment (Debye)
         X      -2.2642      Y      -1.2244      Z       0.0133
       Tot       2.5741
    Quadrupole Moments (Debye-Ang)
        XX     -59.7972     XY       0.7596     YY     -55.8337
        XZ       0.3868     YZ      -0.5207     ZZ     -55.2694

 Final energy is   -5265.01017682208
 **  OPTIMIZATION CONVERGED  **
 Total job time:  176.52s(wall), 2055.63s(cpu)
        *  Thank you very much for using Q-Chem.  Have a nice day.  *
