 Q-Chem 5.1, Q-Chem, Inc., Pleasanton, CA (2018)
 Q-Chem 5.1.1 for Intel X86 EM64T Linux

User input:
--------------------------------------------------------------

$comment
potential surface scanner
$end

$rem
JOBTYPE  PES_SCAN
UNRESTRICTED TRUE
SYM_IGNORE  TRUE
GEOM_OPT_MAX_CYCLES 400
SCF_MAX_CYCLES 400
METHOD   B3LYP
BASIS   6-31G**
PDB_PRINT 2
SCF_CONVERGENCE 6
THRESH 14
SCF_PRINT 1
$end
$molecule
0 3
Br 0.849795 2.420425 -1.452098
Br 0.337679 1.538679 1.318021
C -0.505996 -0.847130 -0.368162
C 0.570849 -0.846166 0.490068
C -1.872781 -1.313139 -0.015528
H -0.358867 -0.412632 -1.355514
H 0.501221 -1.313357 1.467807
H 1.564191 -0.619727 0.120946
H -1.928214 -1.720312 0.996857
H -2.587622 -0.484973 -0.105046
H -2.205461 -2.080669 -0.726545
$end
$scan
stre 1 3 3.600000 3.601000 0.100000
$end
--------------------------------------------------------------

   14   -5265.6356480643      5.22e-07  Convergence criterion met
 Total energy in the final basis set =    -5265.6356480643
   14   -5265.6355882244      4.71e-07  Convergence criterion met
 Total energy in the final basis set =    -5265.6355882244
   14   -5265.6356049584      4.95e-07  Convergence criterion met
 Total energy in the final basis set =    -5265.6356049584
   14   -5265.6356153270      5.20e-07  Convergence criterion met
 Total energy in the final basis set =    -5265.6356153270
   14   -5265.6356193847      5.28e-07  Convergence criterion met
 Total energy in the final basis set =    -5265.6356193847
   14   -5265.6356243367      5.33e-07  Convergence criterion met
 Total energy in the final basis set =    -5265.6356243367
   14   -5265.6356273490      5.31e-07  Convergence criterion met
 Total energy in the final basis set =    -5265.6356273490
   14   -5265.6356293016      5.24e-07  Convergence criterion met
 Total energy in the final basis set =    -5265.6356293016

             Standard Nuclear Orientation (Angstroms)
    I     Atom           X                Y                Z
 ----------------------------------------------------------------
    1      Br      0.7679763764     2.3568699505    -1.4502828135
    2      Br      0.3623127242     1.5202527992     1.3515585241
    3      C      -0.4971942770    -0.8363937983    -0.3721315444
    4      C       0.5759470088    -0.8417161242     0.4932651934
    5      C      -1.8666959390    -1.2971148228    -0.0235631820
    6      H      -0.3450628478    -0.4017718100    -1.3587846459
    7      H       0.4993619444    -1.3161289019     1.4670208156
    8      H       1.5728841007    -0.6257558125     0.1276218265
    9      H      -1.9313635204    -1.6869668378     0.9951145265
   10      H      -2.5820013669    -0.4721897719    -0.1351161096
   11      H      -2.1913702033    -2.0780858704    -0.7238965908
 ----------------------------------------------------------------

   14   -5265.6356301141      5.19e-07  Convergence criterion met
 Total energy in the final basis set =    -5265.6356301141

                    Orbital Energies (a.u.)
 --------------------------------------------------------------

 Alpha MOs
 -- Occupied --
*******-482.830 -62.528 -62.487 -56.349 -56.347 -56.345 -56.310
-56.305 -56.305 -10.262 -10.257 -10.222  -8.715  -8.674  -6.543
 -6.537  -6.531  -6.506  -6.491  -6.491  -2.637  -2.637  -2.632
 -2.627  -2.627  -2.598  -2.595  -2.595  -2.583  -2.583  -0.848
 -0.779  -0.733  -0.727  -0.608  -0.517  -0.473  -0.457  -0.416
 -0.400  -0.374  -0.352  -0.305  -0.269  -0.264  -0.262  -0.254

 Beta MOs
 -- Occupied --
*******-482.828 -62.527 -62.486 -56.346 -56.345 -56.344 -56.306
-56.304 -56.304 -10.256 -10.255 -10.222  -8.711  -8.671  -6.536
 -6.532  -6.529  -6.498  -6.490  -6.489  -2.632  -2.631  -2.628
 -2.624  -2.624  -2.593  -2.590  -2.590  -2.583  -2.582  -0.834
 -0.751  -0.722  -0.696  -0.600  -0.513  -0.470  -0.446  -0.413
 -0.398  -0.337  -0.308  -0.293  -0.257  -0.252

          Ground-State Mulliken Net Atomic Charges

     Atom                 Charge (a.u.)    Spin (a.u.)
  --------------------------------------------------------
      1 Br                   -0.267833       0.708667
      2 Br                   -0.092281       0.804444
      3 C                     0.031168       0.465650
      4 C                    -0.251905       0.030364
      5 C                    -0.364689      -0.032612
      6 H                     0.165739      -0.020817
      7 H                     0.154939      -0.001545
      8 H                     0.183544       0.000556
      9 H                     0.131116       0.000396
     10 H                     0.164273       0.025268
     11 H                     0.145929       0.019628
  --------------------------------------------------------
  Sum of atomic charges =    -0.000000

                    Cartesian Multipole Moments
 -----------------------------------------------------------------
    Charge (ESU x 10^10)
                 0.0000
    Dipole Moment (Debye)
         X      -1.7836      Y      -5.3316      Z       0.9630
       Tot       5.7039
    Quadrupole Moments (Debye-Ang)
        XX     -54.6482     XY      -1.2551     YY     -62.8365
        XZ       1.6987     YZ       2.4132     ZZ     -57.6695

 Final energy is   -5265.63563011412
 **  OPTIMIZATION CONVERGED  **
 Total job time:  60.47s(wall), 686.11s(cpu)
        *  Thank you very much for using Q-Chem.  Have a nice day.  *
