 Q-Chem 5.1, Q-Chem, Inc., Pleasanton, CA (2018)
 Q-Chem 5.1.1 for Intel X86 EM64T Linux

User input:
--------------------------------------------------------------

$comment
potential surface scanner
$end

$rem
JOBTYPE  PES_SCAN
UNRESTRICTED TRUE
SYM_IGNORE  TRUE
GEOM_OPT_MAX_CYCLES 400
SCF_MAX_CYCLES 400
METHOD   B3LYP
BASIS   6-31G**
PDB_PRINT 2
SCF_CONVERGENCE 6
THRESH 14
SCF_PRINT 1
$end
$molecule
0 3
Br 2.690732 2.864279 1.128738
Br 0.024320 1.916245 0.157305
C -0.889569 -1.063964 -0.634882
C 0.375424 -0.650761 -0.297227
C -1.912194 -1.543143 0.333282
H -1.189035 -0.999211 -1.680013
H 0.752715 -0.786060 0.711078
H 1.102617 -0.408416 -1.063428
H -1.530667 -1.572611 1.356261
H -2.794973 -0.890771 0.306155
H -2.264572 -2.544589 0.053533
$end
$scan
stre 1 3 5.500000 5.501000 0.100000
$end
--------------------------------------------------------------

   16   -5265.6318314940      3.94e-07  Convergence criterion met
 Total energy in the final basis set =    -5265.6318314940
   15   -5265.6320739875      7.16e-07  Convergence criterion met
 Total energy in the final basis set =    -5265.6320739875
   15   -5265.6323577234      6.95e-07  Convergence criterion met
 Total energy in the final basis set =    -5265.6323577234
   15   -5265.6324328812      7.15e-07  Convergence criterion met
 Total energy in the final basis set =    -5265.6324328812
   15   -5265.6324365492      7.28e-07  Convergence criterion met
 Total energy in the final basis set =    -5265.6324365492
   15   -5265.6324424631      7.74e-07  Convergence criterion met
 Total energy in the final basis set =    -5265.6324424631
   15   -5265.6324448106      7.98e-07  Convergence criterion met
 Total energy in the final basis set =    -5265.6324448106
   15   -5265.6324464856      8.07e-07  Convergence criterion met
 Total energy in the final basis set =    -5265.6324464856
   15   -5265.6324476155      8.05e-07  Convergence criterion met
 Total energy in the final basis set =    -5265.6324476155
   15   -5265.6324490243      8.01e-07  Convergence criterion met
 Total energy in the final basis set =    -5265.6324490243
   15   -5265.6324502032      7.95e-07  Convergence criterion met
 Total energy in the final basis set =    -5265.6324502032

             Standard Nuclear Orientation (Angstroms)
    I     Atom           X                Y                Z
 ----------------------------------------------------------------
    1      Br      2.6857417675     2.7590569168     1.0959257526
    2      Br     -0.0252385283     1.9130481184     0.1497550162
    3      C      -0.8811842625    -1.0549226973    -0.6305161179
    4      C       0.3754653772    -0.6188275083    -0.2855791362
    5      C      -1.9044921106    -1.5419571303     0.3328946465
    6      H      -1.1739631056    -1.0003889778    -1.6781123327
    7      H       0.7499953877    -0.7485276805     0.7244698023
    8      H       1.1062532173    -0.3759464842    -1.0482500345
    9      H      -1.5291344208    -1.5654999283     1.3583192816
   10      H      -2.7931451905    -0.8978317599     0.2989447943
   11      H      -2.2455001314    -2.5472048685     0.0529503278
 ----------------------------------------------------------------

   15   -5265.6324509296      7.91e-07  Convergence criterion met
 Total energy in the final basis set =    -5265.6324509296

                    Orbital Energies (a.u.)
 --------------------------------------------------------------

 Alpha MOs
 -- Occupied --
*******-482.832 -62.526 -62.490 -56.348 -56.346 -56.343 -56.313
-56.307 -56.307 -10.266 -10.254 -10.225  -8.713  -8.677  -6.542
 -6.535  -6.529  -6.509  -6.494  -6.493  -2.636  -2.635  -2.630
 -2.625  -2.624  -2.601  -2.598  -2.597  -2.586  -2.586  -0.848
 -0.776  -0.735  -0.728  -0.611  -0.518  -0.473  -0.459  -0.418
 -0.402  -0.370  -0.346  -0.301  -0.280  -0.267  -0.262  -0.252

 Beta MOs
 -- Occupied --
*******-482.830 -62.525 -62.489 -56.344 -56.343 -56.342 -56.308
-56.306 -56.306 -10.260 -10.253 -10.225  -8.710  -8.673  -6.535
 -6.530  -6.527  -6.501  -6.492  -6.491  -2.630  -2.629  -2.626
 -2.622  -2.622  -2.595  -2.593  -2.592  -2.584  -2.584  -0.836
 -0.748  -0.724  -0.694  -0.604  -0.515  -0.470  -0.450  -0.415
 -0.400  -0.332  -0.303  -0.289  -0.255  -0.251

          Ground-State Mulliken Net Atomic Charges

     Atom                 Charge (a.u.)    Spin (a.u.)
  --------------------------------------------------------
      1 Br                   -0.218404       0.770467
      2 Br                   -0.111831       0.806418
      3 C                     0.022623       0.433798
      4 C                    -0.247443      -0.006923
      5 C                    -0.361301      -0.029492
      6 H                     0.135528      -0.019102
      7 H                     0.168702       0.001267
      8 H                     0.172530       0.001182
      9 H                     0.139400       0.000385
     10 H                     0.156137       0.023782
     11 H                     0.144058       0.018218
  --------------------------------------------------------
  Sum of atomic charges =    -0.000000

                    Cartesian Multipole Moments
 -----------------------------------------------------------------
    Charge (ESU x 10^10)
                -0.0000
    Dipole Moment (Debye)
         X      -3.7974      Y      -5.6544      Z      -1.7098
       Tot       7.0225
    Quadrupole Moments (Debye-Ang)
        XX     -59.4899     XY      -4.8934     YY     -64.3317
        XZ      -2.2403     YZ      -2.6173     ZZ     -56.7854

 Final energy is   -5265.63245092962
 **  OPTIMIZATION CONVERGED  **
 Total job time:  76.65s(wall), 893.97s(cpu)
        *  Thank you very much for using Q-Chem.  Have a nice day.  *
