 Q-Chem 5.1, Q-Chem, Inc., Pleasanton, CA (2018)
 Q-Chem 5.1.1 for Intel X86 EM64T Linux

User input:
--------------------------------------------------------------

$comment
potential surface scanner
$end

$rem
JOBTYPE  PES_SCAN
UNRESTRICTED TRUE
SYM_IGNORE  TRUE
GEOM_OPT_MAX_CYCLES 400
SCF_MAX_CYCLES 400
METHOD   B3LYP
BASIS   6-31G**
PDB_PRINT 2
SCF_CONVERGENCE 6
THRESH 14
SCF_PRINT 1
$end
$molecule
0 3
Br -0.283610 2.193310 -1.291733
Br 0.641496 1.428651 1.407517
C -0.357371 -0.877889 -0.396025
C 0.647372 -0.926243 0.555437
C -1.794941 -1.118427 -0.108260
H -0.090067 -0.644402 -1.420511
H 0.441639 -1.323375 1.544239
H 1.687199 -0.881822 0.252686
H -1.977090 -1.359536 0.941470
H -2.379988 -0.230885 -0.378727
H -2.169845 -1.938385 -0.735287
$end
$scan
stre 1 3 3.100000 3.101000 0.100000
$end
--------------------------------------------------------------

   13   -5265.6340339851      6.71e-07  Convergence criterion met
 Total energy in the final basis set =    -5265.6340339851
   13   -5265.6326935639      6.51e-07  Convergence criterion met
 Total energy in the final basis set =    -5265.6326935639
   13   -5265.6328082434      6.86e-07  Convergence criterion met
 Total energy in the final basis set =    -5265.6328082434
   13   -5265.6328640579      7.17e-07  Convergence criterion met
 Total energy in the final basis set =    -5265.6328640579
   13   -5265.6328732507      7.20e-07  Convergence criterion met
 Total energy in the final basis set =    -5265.6328732507
   13   -5265.6328773083      7.16e-07  Convergence criterion met
 Total energy in the final basis set =    -5265.6328773083
   13   -5265.6328784933      7.12e-07  Convergence criterion met
 Total energy in the final basis set =    -5265.6328784933

             Standard Nuclear Orientation (Angstroms)
    I     Atom           X                Y                Z
 ----------------------------------------------------------------
    1      Br     -0.3452822719     2.1226474604    -1.2397213623
    2      Br      0.6831732069     1.4215679043     1.4309882614
    3      C      -0.3538426086    -0.8630356347    -0.4056800435
    4      C       0.6473999159    -0.9116840699     0.5532079599
    5      C      -1.7927202599    -1.1019876990    -0.1196881184
    6      H      -0.0770290727    -0.6656442948    -1.4345150517
    7      H       0.4330337126    -1.3105021783     1.5393154709
    8      H       1.6884472596    -0.8853288896     0.2527319736
    9      H      -1.9781880759    -1.3147733476     0.9355910508
   10      H      -2.3825149855    -0.2270325495    -0.4171587419
   11      H      -2.1576828204    -1.9432297014    -0.7242653987
 ----------------------------------------------------------------

   13   -5265.6328794532      7.05e-07  Convergence criterion met
 Total energy in the final basis set =    -5265.6328794532

                    Orbital Energies (a.u.)
 --------------------------------------------------------------

 Alpha MOs
 -- Occupied --
*******-482.831 -62.525 -62.489 -56.346 -56.345 -56.342 -56.311
-56.306 -56.306 -10.263 -10.258 -10.215  -8.712  -8.676  -6.540
 -6.535  -6.528  -6.507  -6.493  -6.492  -2.634  -2.634  -2.628
 -2.625  -2.624  -2.600  -2.596  -2.596  -2.585  -2.585  -0.846
 -0.777  -0.734  -0.725  -0.607  -0.515  -0.471  -0.453  -0.411
 -0.399  -0.374  -0.351  -0.302  -0.272  -0.265  -0.257  -0.254

 Beta MOs
 -- Occupied --
*******-482.829 -62.524 -62.488 -56.343 -56.342 -56.341 -56.307
-56.305 -56.305 -10.256 -10.255 -10.215  -8.709  -8.673  -6.534
 -6.530  -6.526  -6.500  -6.492  -6.491  -2.629  -2.628  -2.625
 -2.622  -2.621  -2.594  -2.592  -2.591  -2.584  -2.584  -0.831
 -0.749  -0.720  -0.699  -0.598  -0.511  -0.467  -0.441  -0.408
 -0.397  -0.338  -0.307  -0.291  -0.258  -0.254

          Ground-State Mulliken Net Atomic Charges

     Atom                 Charge (a.u.)    Spin (a.u.)
  --------------------------------------------------------
      1 Br                   -0.267293       0.687169
      2 Br                   -0.096053       0.782831
      3 C                     0.034344       0.484415
      4 C                    -0.251621       0.056176
      5 C                    -0.362566      -0.034499
      6 H                     0.162604      -0.020558
      7 H                     0.161931      -0.000885
      8 H                     0.171036      -0.002560
      9 H                     0.129891       0.000500
     10 H                     0.177063       0.027048
     11 H                     0.140664       0.020362
  --------------------------------------------------------
  Sum of atomic charges =    -0.000000

                    Cartesian Multipole Moments
 -----------------------------------------------------------------
    Charge (ESU x 10^10)
                -0.0000
    Dipole Moment (Debye)
         X      -0.4840      Y      -5.1431      Z       0.5415
       Tot       5.1942
    Quadrupole Moments (Debye-Ang)
        XX     -54.2551     XY       0.7863     YY     -61.7888
        XZ       0.3682     YZ       1.7275     ZZ     -57.0345

 Final energy is   -5265.63287945322
 **  OPTIMIZATION CONVERGED  **
 Total job time:  51.25s(wall), 594.76s(cpu)
        *  Thank you very much for using Q-Chem.  Have a nice day.  *
