 Q-Chem 5.1, Q-Chem, Inc., Pleasanton, CA (2018)
 Q-Chem 5.1.1 for Intel X86 EM64T Linux

User input:
--------------------------------------------------------------

$comment
potential surface scanner
$end

$rem
JOBTYPE  PES_SCAN
UNRESTRICTED TRUE
SYM_IGNORE  TRUE
GEOM_OPT_MAX_CYCLES 400
SCF_MAX_CYCLES 400
METHOD   B3LYP
BASIS   6-31G**
PDB_PRINT 2
SCF_CONVERGENCE 6
THRESH 14
SCF_PRINT 1
$end
$molecule
0 3
Br -0.300530 1.613826 -0.605831
Br 1.108073 2.025049 1.988673
C -0.417667 -0.782864 -0.559407
C 0.607007 -1.023582 0.355196
C -1.856651 -1.065039 -0.224383
H -0.153801 -0.827360 -1.613444
H 0.395335 -1.145307 1.412232
H 1.647396 -1.001877 0.051464
H -2.078730 -0.832749 0.819629
H -2.538526 -0.504797 -0.865977
H -2.047111 -2.134306 -0.387344
$end
$scan
stre 1 3 2.300000 2.301000 0.100000
$end
--------------------------------------------------------------

   14   -5265.6287494693      3.73e-07  Convergence criterion met
 Total energy in the final basis set =    -5265.6287494693
   12   -5265.6271778135      8.51e-07  Convergence criterion met
 Total energy in the final basis set =    -5265.6271778135
   12   -5265.6275307093      9.01e-07  Convergence criterion met
 Total energy in the final basis set =    -5265.6275307093
   13   -5265.6278616847      3.03e-07  Convergence criterion met
 Total energy in the final basis set =    -5265.6278616847
   13   -5265.6278778775      3.07e-07  Convergence criterion met
 Total energy in the final basis set =    -5265.6278778775
   13   -5265.6278868299      3.06e-07  Convergence criterion met
 Total energy in the final basis set =    -5265.6278868299
   13   -5265.6278908993      3.06e-07  Convergence criterion met
 Total energy in the final basis set =    -5265.6278908993
   13   -5265.6278947050      3.09e-07  Convergence criterion met
 Total energy in the final basis set =    -5265.6278947050
   13   -5265.6278982805      3.14e-07  Convergence criterion met
 Total energy in the final basis set =    -5265.6278982805
   13   -5265.6279007804      3.19e-07  Convergence criterion met
 Total energy in the final basis set =    -5265.6279007804
   13   -5265.6279023093      3.20e-07  Convergence criterion met
 Total energy in the final basis set =    -5265.6279023093
   13   -5265.6279033493      3.18e-07  Convergence criterion met
 Total energy in the final basis set =    -5265.6279033493

             Standard Nuclear Orientation (Angstroms)
    I     Atom           X                Y                Z
 ----------------------------------------------------------------
    1      Br     -0.3309495440     1.5741102889    -0.6149308885
    2      Br      1.0668132176     1.9968186521     1.9834892168
    3      C      -0.4133297040    -0.7237325555    -0.5589684300
    4      C       0.6154680511    -1.0394001119     0.3510258576
    5      C      -1.8481688074    -1.0409138246    -0.2191017318
    6      H      -0.1539989726    -0.8056816171    -1.6123109922
    7      H       0.4001160272    -1.1867102757     1.4038093439
    8      H       1.6552716900    -1.0312938830     0.0450686136
    9      H      -2.0819498717    -0.7717412310     0.8135961435
   10      H      -2.5442607831    -0.5286738892    -0.8849917078
   11      H      -2.0002163032    -2.1217875531    -0.3358774250
 ----------------------------------------------------------------

   13   -5265.6279038484      3.14e-07  Convergence criterion met
 Total energy in the final basis set =    -5265.6279038484

                    Orbital Energies (a.u.)
 --------------------------------------------------------------

 Alpha MOs
 -- Occupied --
*******-482.833 -62.529 -62.490 -56.350 -56.348 -56.346 -56.313
-56.307 -56.307 -10.278 -10.248 -10.217  -8.716  -8.677  -6.544
 -6.538  -6.532  -6.510  -6.494  -6.493  -2.638  -2.638  -2.633
 -2.628  -2.628  -2.601  -2.598  -2.597  -2.586  -2.586  -0.851
 -0.773  -0.732  -0.728  -0.610  -0.512  -0.467  -0.459  -0.410
 -0.400  -0.376  -0.352  -0.305  -0.270  -0.264  -0.258  -0.256

 Beta MOs
 -- Occupied --
*******-482.831 -62.528 -62.489 -56.347 -56.346 -56.345 -56.308
-56.307 -56.306 -10.278 -10.238 -10.217  -8.713  -8.674  -6.539
 -6.534  -6.530  -6.501  -6.492  -6.492  -2.634  -2.633  -2.630
 -2.626  -2.625  -2.595  -2.593  -2.593  -2.585  -2.585  -0.840
 -0.747  -0.716  -0.699  -0.602  -0.507  -0.462  -0.453  -0.406
 -0.398  -0.347  -0.311  -0.295  -0.258  -0.254

          Ground-State Mulliken Net Atomic Charges

     Atom                 Charge (a.u.)    Spin (a.u.)
  --------------------------------------------------------
      1 Br                   -0.068595       0.645480
      2 Br                   -0.243048       0.731842
      3 C                    -0.125590      -0.064984
      4 C                    -0.140504       0.744807
      5 C                    -0.325804       0.004613
      6 H                     0.168008       0.005153
      7 H                     0.156603      -0.032038
      8 H                     0.152125      -0.032555
      9 H                     0.148009      -0.001240
     10 H                     0.142984       0.002304
     11 H                     0.135812      -0.003384
  --------------------------------------------------------
  Sum of atomic charges =     0.000000

                    Cartesian Multipole Moments
 -----------------------------------------------------------------
    Charge (ESU x 10^10)
                 0.0000
    Dipole Moment (Debye)
         X      -1.5167      Y      -4.7567      Z      -2.1873
       Tot       5.4508
    Quadrupole Moments (Debye-Ang)
        XX     -55.3818     XY      -1.6235     YY     -60.9942
        XZ      -1.1281     YZ      -3.7529     ZZ     -58.6835

 Final energy is   -5265.62790384843
 **  OPTIMIZATION CONVERGED  **
 Total job time:  81.63s(wall), 950.68s(cpu)
        *  Thank you very much for using Q-Chem.  Have a nice day.  *
