 Q-Chem 5.1, Q-Chem, Inc., Pleasanton, CA (2018)
 Q-Chem 5.1.1 for Intel X86 EM64T Linux

User input:
--------------------------------------------------------------

$comment
potential surface scanner
$end

$rem
JOBTYPE  PES_SCAN
UNRESTRICTED TRUE
SYM_IGNORE  TRUE
GEOM_OPT_MAX_CYCLES 400
SCF_MAX_CYCLES 400
METHOD   B3LYP
BASIS   6-31G**
PDB_PRINT 2
SCF_CONVERGENCE 6
THRESH 14
SCF_PRINT 1
$end
$molecule
0 1
Br -0.621000 1.744900 0.138600
Br 2.339300 0.022500 -0.135100
C -0.519000 -0.151000 -0.364100
C 0.644500 -0.814800 0.353000
C -1.843800 -0.801500 0.007700
H -0.380000 -0.157800 -1.450100
H 0.570800 -0.733000 1.441800
H 0.738000 -1.869500 0.078300
H -2.034600 -0.746700 1.085500
H -2.681600 -0.314200 -0.503400
H -1.847800 -1.857900 -0.281400
$end
$scan
stre 1 3 1.900000 1.901000 0.100000
$end
--------------------------------------------------------------

    9   -5265.7112865010      6.36e-07  Convergence criterion met
 Total energy in the final basis set =    -5265.7112865010
    9   -5265.7105690710      5.78e-07  Convergence criterion met
 Total energy in the final basis set =    -5265.7105690710
    9   -5265.7109333337      8.90e-07  Convergence criterion met
 Total energy in the final basis set =    -5265.7109333337
    9   -5265.7110427824      8.60e-07  Convergence criterion met
 Total energy in the final basis set =    -5265.7110427824
    9   -5265.7111043952      8.52e-07  Convergence criterion met
 Total energy in the final basis set =    -5265.7111043952
    9   -5265.7111808085      8.49e-07  Convergence criterion met
 Total energy in the final basis set =    -5265.7111808085
    9   -5265.7112226985      8.58e-07  Convergence criterion met
 Total energy in the final basis set =    -5265.7112226985
    9   -5265.7112380189      8.63e-07  Convergence criterion met
 Total energy in the final basis set =    -5265.7112380189
    9   -5265.7112394368      8.62e-07  Convergence criterion met
 Total energy in the final basis set =    -5265.7112394368

             Standard Nuclear Orientation (Angstroms)
    I     Atom           X                Y                Z
 ----------------------------------------------------------------
    1      Br     -0.6761185255     1.7462281744     0.1562551941
    2      Br      2.4064635319    -0.1544509233    -0.2272274678
    3      C      -0.5347854172    -0.0855703438    -0.3280385293
    4      C       0.6361699276    -0.7696515211     0.3704679164
    5      C      -1.8381023025    -0.8259840123    -0.0061735820
    6      H      -0.3642217190    -0.0904457761    -1.4063811784
    7      H       0.6075114736    -0.6171713318     1.4490914326
    8      H       0.6190283287    -1.8380921842     0.1508148009
    9      H      -2.0383268309    -0.8234920203     1.0692306346
   10      H      -2.6836219105    -0.3546096435    -0.5118014228
   11      H      -1.7691965561    -1.8657604181    -0.3454377982
 ----------------------------------------------------------------

    9   -5265.7112402227      8.60e-07  Convergence criterion met
 Total energy in the final basis set =    -5265.7112402227

                    Orbital Energies (a.u.)
 --------------------------------------------------------------

 Alpha MOs
 -- Occupied --
*******-482.856 -62.515 -62.514 -56.336 -56.336 -56.332 -56.332
-56.332 -56.332 -10.264 -10.259 -10.207  -8.703  -8.701  -6.533
 -6.532  -6.520  -6.520  -6.519  -6.518  -2.626  -2.625  -2.623
 -2.622  -2.622  -2.621  -2.612  -2.612  -2.611  -2.611  -0.866
 -0.797  -0.746  -0.686  -0.602  -0.496  -0.463  -0.448  -0.427
 -0.389  -0.369  -0.368  -0.288  -0.287  -0.281  -0.275

 Beta MOs
 -- Occupied --
*******-482.856 -62.515 -62.514 -56.336 -56.336 -56.332 -56.332
-56.332 -56.332 -10.264 -10.259 -10.207  -8.703  -8.701  -6.533
 -6.532  -6.520  -6.520  -6.519  -6.518  -2.626  -2.625  -2.623
 -2.622  -2.622  -2.621  -2.612  -2.612  -2.611  -2.611  -0.866
 -0.797  -0.746  -0.686  -0.602  -0.496  -0.463  -0.448  -0.427
 -0.389  -0.369  -0.368  -0.288  -0.287  -0.281  -0.275

          Ground-State Mulliken Net Atomic Charges

     Atom                 Charge (a.u.)    Spin (a.u.)
  --------------------------------------------------------
      1 Br                   -0.075296       0.000000
      2 Br                   -0.090603       0.000000
      3 C                    -0.138131       0.000000
      4 C                    -0.246322       0.000000
      5 C                    -0.322674      -0.000000
      6 H                     0.163550       0.000000
      7 H                     0.167893      -0.000000
      8 H                     0.155839      -0.000000
      9 H                     0.130596       0.000000
     10 H                     0.138836      -0.000000
     11 H                     0.116312      -0.000000
  --------------------------------------------------------
  Sum of atomic charges =     0.000000

                    Cartesian Multipole Moments
 -----------------------------------------------------------------
    Charge (ESU x 10^10)
                 0.0000
    Dipole Moment (Debye)
         X      -1.8756      Y      -2.3217      Z       0.0976
       Tot       2.9863
    Quadrupole Moments (Debye-Ang)
        XX     -59.2573     XY       1.7645     YY     -56.5119
        XZ       0.7140     YZ      -0.3551     ZZ     -55.4382

 Final energy is   -5265.71124022270
 **  OPTIMIZATION CONVERGED  **
 Total job time:  51.95s(wall), 604.53s(cpu)
        *  Thank you very much for using Q-Chem.  Have a nice day.  *
