 Q-Chem 5.1, Q-Chem, Inc., Pleasanton, CA (2018)
 Q-Chem 5.1.1 for Intel X86 EM64T Linux

User input:
--------------------------------------------------------------

$comment
potential surface scanner
$end

$rem
JOBTYPE  PES_SCAN
UNRESTRICTED TRUE
SYM_IGNORE  TRUE
GEOM_OPT_MAX_CYCLES 400
SCF_MAX_CYCLES 400
METHOD   B3LYP
BASIS   6-31G**
PDB_PRINT 2
SCF_CONVERGENCE 6
THRESH 14
SCF_PRINT 1
$end
$molecule
0 3
Br -0.345282 2.122647 -1.239721
Br 0.683173 1.421568 1.430988
C -0.353843 -0.863036 -0.405680
C 0.647400 -0.911684 0.553208
C -1.792720 -1.101988 -0.119688
H -0.077029 -0.665644 -1.434515
H 0.433034 -1.310502 1.539315
H 1.688447 -0.885329 0.252732
H -1.978188 -1.314773 0.935591
H -2.382515 -0.227033 -0.417159
H -2.157683 -1.943230 -0.724265
$end
$scan
stre 1 3 3.000000 3.001000 0.100000
$end
--------------------------------------------------------------

   13   -5265.6328794512      7.05e-07  Convergence criterion met
 Total energy in the final basis set =    -5265.6328794512
   13   -5265.6312964310      6.92e-07  Convergence criterion met
 Total energy in the final basis set =    -5265.6312964310
   13   -5265.6313920195      7.28e-07  Convergence criterion met
 Total energy in the final basis set =    -5265.6313920195
   13   -5265.6314606566      7.61e-07  Convergence criterion met
 Total energy in the final basis set =    -5265.6314606566
   13   -5265.6314705474      7.60e-07  Convergence criterion met
 Total energy in the final basis set =    -5265.6314705474
   13   -5265.6314741863      7.54e-07  Convergence criterion met
 Total energy in the final basis set =    -5265.6314741863
   13   -5265.6314757739      7.49e-07  Convergence criterion met
 Total energy in the final basis set =    -5265.6314757739
   13   -5265.6314785427      7.37e-07  Convergence criterion met
 Total energy in the final basis set =    -5265.6314785427
   13   -5265.6314813078      7.25e-07  Convergence criterion met
 Total energy in the final basis set =    -5265.6314813078
   13   -5265.6314841255      7.14e-07  Convergence criterion met
 Total energy in the final basis set =    -5265.6314841255
   13   -5265.6314861570      7.10e-07  Convergence criterion met
 Total energy in the final basis set =    -5265.6314861570
   13   -5265.6314877781      7.14e-07  Convergence criterion met
 Total energy in the final basis set =    -5265.6314877781
   13   -5265.6314890112      7.22e-07  Convergence criterion met
 Total energy in the final basis set =    -5265.6314890112

             Standard Nuclear Orientation (Angstroms)
    I     Atom           X                Y                Z
 ----------------------------------------------------------------
    1      Br     -0.4025599937     2.0690205929    -1.1569661347
    2      Br      0.7393983317     1.4065027185     1.4630303240
    3      C      -0.3535339356    -0.8386867379    -0.4201920768
    4      C       0.6459768299    -0.8994031569     0.5439362133
    5      C      -1.7926931912    -1.0841638095    -0.1339592730
    6      H      -0.0680040996    -0.6752132778    -1.4521889189
    7      H       0.4213979941    -1.3041876338     1.5251855160
    8      H       1.6875935182    -0.8961199589     0.2446968284
    9      H      -1.9862016105    -1.2144408827     0.9332681409
   10      H      -2.4022107563    -0.2557549494    -0.5095374786
   11      H      -2.1243690869    -1.9865569046    -0.6664671406
 ----------------------------------------------------------------

   13   -5265.6314897062      7.31e-07  Convergence criterion met
 Total energy in the final basis set =    -5265.6314897062

                    Orbital Energies (a.u.)
 --------------------------------------------------------------

 Alpha MOs
 -- Occupied --
*******-482.832 -62.524 -62.490 -56.345 -56.344 -56.341 -56.312
-56.308 -56.307 -10.262 -10.257 -10.214  -8.711  -8.677  -6.538
 -6.534  -6.527  -6.508  -6.495  -6.494  -2.633  -2.633  -2.627
 -2.624  -2.623  -2.601  -2.598  -2.597  -2.587  -2.587  -0.845
 -0.776  -0.735  -0.724  -0.607  -0.514  -0.469  -0.452  -0.410
 -0.399  -0.374  -0.350  -0.302  -0.275  -0.266  -0.254  -0.253

 Beta MOs
 -- Occupied --
*******-482.831 -62.523 -62.489 -56.342 -56.341 -56.340 -56.308
-56.307 -56.307 -10.256 -10.255 -10.214  -8.708  -8.674  -6.532
 -6.529  -6.525  -6.501  -6.493  -6.492  -2.628  -2.627  -2.623
 -2.621  -2.620  -2.595  -2.593  -2.592  -2.586  -2.586  -0.830
 -0.749  -0.719  -0.700  -0.598  -0.510  -0.465  -0.440  -0.406
 -0.396  -0.338  -0.307  -0.290  -0.258  -0.255

          Ground-State Mulliken Net Atomic Charges

     Atom                 Charge (a.u.)    Spin (a.u.)
  --------------------------------------------------------
      1 Br                   -0.261112       0.685444
      2 Br                   -0.097953       0.773696
      3 C                     0.029128       0.479539
      4 C                    -0.249575       0.073507
      5 C                    -0.359552      -0.034188
      6 H                     0.161992      -0.019937
      7 H                     0.162572      -0.001278
      8 H                     0.170044      -0.003483
      9 H                     0.131166       0.000464
     10 H                     0.173439       0.024639
     11 H                     0.139850       0.021597
  --------------------------------------------------------
  Sum of atomic charges =    -0.000000

                    Cartesian Multipole Moments
 -----------------------------------------------------------------
    Charge (ESU x 10^10)
                -0.0000
    Dipole Moment (Debye)
         X      -0.4476      Y      -5.0611      Z       0.3590
       Tot       5.0935
    Quadrupole Moments (Debye-Ang)
        XX     -54.3641     XY       0.8135     YY     -61.4851
        XZ       0.2945     YZ       1.4001     ZZ     -56.8964

 Final energy is   -5265.63148970625
 **  OPTIMIZATION CONVERGED  **
 Total job time:  90.55s(wall), 1051.34s(cpu)
        *  Thank you very much for using Q-Chem.  Have a nice day.  *
