 Q-Chem 5.1, Q-Chem, Inc., Pleasanton, CA (2018)
 Q-Chem 5.1.1 for Intel X86 EM64T Linux

User input:
--------------------------------------------------------------

$comment
potential surface scanner
$end

$rem
JOBTYPE  PES_SCAN
UNRESTRICTED TRUE
SYM_IGNORE  TRUE
GEOM_OPT_MAX_CYCLES 400
SCF_MAX_CYCLES 400
METHOD   B3LYP
BASIS   6-31G**
PDB_PRINT 2
SCF_CONVERGENCE 6
THRESH 14
SCF_PRINT 1
$end
$molecule
0 3
Br 2.685742 2.759057 1.095926
Br -0.025239 1.913048 0.149755
C -0.881184 -1.054923 -0.630516
C 0.375465 -0.618828 -0.285579
C -1.904492 -1.541957 0.332895
H -1.173963 -1.000389 -1.678112
H 0.749995 -0.748528 0.724470
H 1.106253 -0.375946 -1.048250
H -1.529134 -1.565500 1.358319
H -2.793145 -0.897832 0.298945
H -2.245500 -2.547205 0.052950
$end
$scan
stre 1 3 5.400000 5.401000 0.100000
$end
--------------------------------------------------------------

   15   -5265.6324509277      7.91e-07  Convergence criterion met
 Total energy in the final basis set =    -5265.6324509277
   14   -5265.6326274496      8.77e-07  Convergence criterion met
 Total energy in the final basis set =    -5265.6326274496
   14   -5265.6328981991      8.67e-07  Convergence criterion met
 Total energy in the final basis set =    -5265.6328981991
   14   -5265.6329720055      9.17e-07  Convergence criterion met
 Total energy in the final basis set =    -5265.6329720055
   14   -5265.6329745286      9.45e-07  Convergence criterion met
 Total energy in the final basis set =    -5265.6329745286
   15   -5265.6329776036      6.35e-07  Convergence criterion met
 Total energy in the final basis set =    -5265.6329776036
   15   -5265.6329786480      6.47e-07  Convergence criterion met
 Total energy in the final basis set =    -5265.6329786480

             Standard Nuclear Orientation (Angstroms)
    I     Atom           X                Y                Z
 ----------------------------------------------------------------
    1      Br      2.6653969424     2.6627536632     1.0700852945
    2      Br     -0.0640126810     1.9224577138     0.1424009939
    3      C      -0.8730853452    -1.0466274433    -0.6268643873
    4      C       0.3787820412    -0.5997359305    -0.2780726632
    5      C      -1.8965352963    -1.5389868679     0.3336176375
    6      H      -1.1615334734    -0.9972877754    -1.6759031927
    7      H       0.7494022720    -0.7219623958     0.7343331871
    8      H       1.1101331004    -0.3526909524    -1.0388011691
    9      H      -1.5254178855    -1.5562500069     1.3607026644
   10      H      -2.7905411205    -0.9026632271     0.2938305156
   11      H      -2.2277905540    -2.5480097778     0.0554741192
 ----------------------------------------------------------------

   15   -5265.6329794007      6.50e-07  Convergence criterion met
 Total energy in the final basis set =    -5265.6329794007

                    Orbital Energies (a.u.)
 --------------------------------------------------------------

 Alpha MOs
 -- Occupied --
*******-482.832 -62.527 -62.489 -56.348 -56.346 -56.344 -56.312
-56.307 -56.306 -10.266 -10.254 -10.225  -8.714  -8.676  -6.543
 -6.536  -6.529  -6.508  -6.493  -6.492  -2.636  -2.636  -2.631
 -2.626  -2.625  -2.600  -2.597  -2.596  -2.585  -2.585  -0.848
 -0.777  -0.735  -0.727  -0.611  -0.519  -0.473  -0.460  -0.418
 -0.402  -0.370  -0.347  -0.302  -0.279  -0.265  -0.262  -0.252

 Beta MOs
 -- Occupied --
*******-482.830 -62.525 -62.488 -56.345 -56.344 -56.343 -56.307
-56.305 -56.305 -10.260 -10.253 -10.225  -8.710  -8.673  -6.535
 -6.531  -6.527  -6.500  -6.491  -6.490  -2.630  -2.630  -2.627
 -2.623  -2.622  -2.594  -2.592  -2.591  -2.584  -2.584  -0.836
 -0.748  -0.725  -0.694  -0.604  -0.515  -0.470  -0.450  -0.415
 -0.400  -0.332  -0.304  -0.290  -0.255  -0.250

          Ground-State Mulliken Net Atomic Charges

     Atom                 Charge (a.u.)    Spin (a.u.)
  --------------------------------------------------------
      1 Br                   -0.224326       0.763631
      2 Br                   -0.108450       0.809651
      3 C                     0.022214       0.434625
      4 C                    -0.247076      -0.003711
      5 C                    -0.361181      -0.029604
      6 H                     0.135709      -0.019154
      7 H                     0.169873       0.001124
      8 H                     0.173489       0.001039
      9 H                     0.139525       0.000383
     10 H                     0.156096       0.023757
     11 H                     0.144128       0.018259
  --------------------------------------------------------
  Sum of atomic charges =    -0.000000

                    Cartesian Multipole Moments
 -----------------------------------------------------------------
    Charge (ESU x 10^10)
                 0.0000
    Dipole Moment (Debye)
         X      -3.8030      Y      -5.5858      Z      -1.6972
       Tot       6.9674
    Quadrupole Moments (Debye-Ang)
        XX     -59.5448     XY      -4.7690     YY     -64.0171
        XZ      -2.2247     YZ      -2.5339     ZZ     -56.7589

 Final energy is   -5265.63297940066
 **  OPTIMIZATION CONVERGED  **
 Total job time:  50.11s(wall), 582.87s(cpu)
        *  Thank you very much for using Q-Chem.  Have a nice day.  *
