 Q-Chem 5.1, Q-Chem, Inc., Pleasanton, CA (2018)
 Q-Chem 5.1.1 for Intel X86 EM64T Linux

User input:
--------------------------------------------------------------

$comment
potential surface scanner
$end

$rem
JOBTYPE  PES_SCAN
UNRESTRICTED TRUE
SYM_IGNORE  TRUE
GEOM_OPT_MAX_CYCLES 400
SCF_MAX_CYCLES 400
METHOD   B3LYP
BASIS   6-31G**
PDB_PRINT 2
SCF_CONVERGENCE 6
THRESH 14
SCF_PRINT 1
$end
$molecule
0 3
Br 2.547163 2.650059 -0.276095
Br -0.092021 1.796046 0.761503
C -0.769021 -0.949655 -0.510587
C 0.412277 -0.600354 0.105990
C -1.940234 -1.555377 0.178184
H -0.880037 -0.720199 -1.569209
H 0.607843 -0.905386 1.128675
H 1.263230 -0.259065 -0.471605
H -1.737491 -1.770657 1.229881
H -2.805226 -0.881236 0.118742
H -2.241685 -2.483179 -0.324673
$end
$scan
stre 1 3 4.800000 4.801000 0.100000
$end
--------------------------------------------------------------

   14   -5265.6346609720      7.14e-07  Convergence criterion met
 Total energy in the final basis set =    -5265.6346609720
   14   -5265.6348132385      6.73e-07  Convergence criterion met
 Total energy in the final basis set =    -5265.6348132385
   14   -5265.6349103310      6.87e-07  Convergence criterion met
 Total energy in the final basis set =    -5265.6349103310
   14   -5265.6349553056      7.05e-07  Convergence criterion met
 Total energy in the final basis set =    -5265.6349553056
   14   -5265.6349623652      7.08e-07  Convergence criterion met
 Total energy in the final basis set =    -5265.6349623652
   14   -5265.6349704836      7.11e-07  Convergence criterion met
 Total energy in the final basis set =    -5265.6349704836
   14   -5265.6349722847      7.09e-07  Convergence criterion met
 Total energy in the final basis set =    -5265.6349722847
   14   -5265.6349736461      7.06e-07  Convergence criterion met
 Total energy in the final basis set =    -5265.6349736461

             Standard Nuclear Orientation (Angstroms)
    I     Atom           X                Y                Z
 ----------------------------------------------------------------
    1      Br      2.5010587109     2.5843176704    -0.3584533218
    2      Br     -0.1018798631     1.7917967858     0.7971769666
    3      C      -0.7585303300    -0.9362437058    -0.5024261207
    4      C       0.4166099590    -0.5922806487     0.1296574029
    5      C      -1.9345908429    -1.5535976402     0.1676099537
    6      H      -0.8622908803    -0.6883842380    -1.5576210546
    7      H       0.6034238708    -0.9140944898     1.1490245424
    8      H       1.2725543228    -0.2346382328    -0.4317558369
    9      H      -1.7384735897    -1.7896936631     1.2161034754
   10      H      -2.7974458169    -0.8759051094     0.1167435982
   11      H      -2.2356375408    -2.4702797285    -0.3552536052
 ----------------------------------------------------------------

   14   -5265.6349740998      7.04e-07  Convergence criterion met
 Total energy in the final basis set =    -5265.6349740998

                    Orbital Energies (a.u.)
 --------------------------------------------------------------

 Alpha MOs
 -- Occupied --
*******-482.830 -62.528 -62.487 -56.350 -56.348 -56.345 -56.310
-56.305 -56.305 -10.266 -10.256 -10.225  -8.716  -8.674  -6.544
 -6.537  -6.531  -6.507  -6.491  -6.491  -2.638  -2.637  -2.632
 -2.627  -2.627  -2.599  -2.595  -2.594  -2.583  -2.583  -0.849
 -0.780  -0.734  -0.727  -0.611  -0.518  -0.474  -0.460  -0.419
 -0.402  -0.373  -0.351  -0.305  -0.274  -0.262  -0.261  -0.254

 Beta MOs
 -- Occupied --
*******-482.828 -62.527 -62.486 -56.346 -56.345 -56.344 -56.306
-56.304 -56.304 -10.259 -10.255 -10.226  -8.712  -8.671  -6.537
 -6.533  -6.529  -6.498  -6.490  -6.489  -2.632  -2.631  -2.628
 -2.625  -2.624  -2.593  -2.590  -2.590  -2.582  -2.582  -0.836
 -0.752  -0.724  -0.694  -0.604  -0.515  -0.471  -0.450  -0.416
 -0.400  -0.337  -0.307  -0.293  -0.256  -0.250

          Ground-State Mulliken Net Atomic Charges

     Atom                 Charge (a.u.)    Spin (a.u.)
  --------------------------------------------------------
      1 Br                   -0.245044       0.734561
      2 Br                   -0.096756       0.798590
      3 C                     0.022732       0.467898
      4 C                    -0.252463       0.004299
      5 C                    -0.362053      -0.032807
      6 H                     0.141650      -0.020565
      7 H                     0.161569       0.000147
      8 H                     0.191969       0.002351
      9 H                     0.135435       0.000500
     10 H                     0.157931       0.025919
     11 H                     0.145030       0.019108
  --------------------------------------------------------
  Sum of atomic charges =    -0.000000

                    Cartesian Multipole Moments
 -----------------------------------------------------------------
    Charge (ESU x 10^10)
                 0.0000
    Dipole Moment (Debye)
         X      -3.7010      Y      -5.5299      Z      -0.2617
       Tot       6.6592
    Quadrupole Moments (Debye-Ang)
        XX     -59.3971     XY      -4.7602     YY     -63.9708
        XZ       0.8915     YZ       0.3257     ZZ     -56.0510

 Final energy is   -5265.63497409981
 **  OPTIMIZATION CONVERGED  **
 Total job time:  61.69s(wall), 659.08s(cpu)
        *  Thank you very much for using Q-Chem.  Have a nice day.  *
