 Q-Chem 5.1, Q-Chem, Inc., Pleasanton, CA (2018)
 Q-Chem 5.1.1 for Intel X86 EM64T Linux

User input:
--------------------------------------------------------------

$comment
potential surface scanner
$end

$rem
JOBTYPE  PES_SCAN
UNRESTRICTED TRUE
SYM_IGNORE  TRUE
GEOM_OPT_MAX_CYCLES 400
SCF_MAX_CYCLES 400
METHOD   B3LYP
BASIS   6-31G**
PDB_PRINT 2
SCF_CONVERGENCE 6
THRESH 14
SCF_PRINT 1
$end
$molecule
0 3
Br -0.402560 2.069021 -1.156966
Br 0.739398 1.406503 1.463030
C -0.353534 -0.838687 -0.420192
C 0.645977 -0.899403 0.543936
C -1.792693 -1.084164 -0.133959
H -0.068004 -0.675213 -1.452189
H 0.421398 -1.304188 1.525186
H 1.687594 -0.896120 0.244697
H -1.986202 -1.214441 0.933268
H -2.402211 -0.255755 -0.509537
H -2.124369 -1.986557 -0.666467
$end
$scan
stre 1 3 2.900000 2.901000 0.100000
$end
--------------------------------------------------------------

   13   -5265.6314897154      7.31e-07  Convergence criterion met
 Total energy in the final basis set =    -5265.6314897154
   13   -5265.6296926001      7.25e-07  Convergence criterion met
 Total energy in the final basis set =    -5265.6296926001
   13   -5265.6298046726      7.58e-07  Convergence criterion met
 Total energy in the final basis set =    -5265.6298046726
   13   -5265.6299053989      7.91e-07  Convergence criterion met
 Total energy in the final basis set =    -5265.6299053989
   13   -5265.6299155981      7.93e-07  Convergence criterion met
 Total energy in the final basis set =    -5265.6299155981
   13   -5265.6299191583      7.91e-07  Convergence criterion met
 Total energy in the final basis set =    -5265.6299191583
   13   -5265.6299211111      7.89e-07  Convergence criterion met
 Total energy in the final basis set =    -5265.6299211111
   13   -5265.6299268576      7.83e-07  Convergence criterion met
 Total energy in the final basis set =    -5265.6299268576
   13   -5265.6299344231      7.76e-07  Convergence criterion met
 Total energy in the final basis set =    -5265.6299344231
   13   -5265.6299433787      7.69e-07  Convergence criterion met
 Total energy in the final basis set =    -5265.6299433787
   13   -5265.6299488895      7.68e-07  Convergence criterion met
 Total energy in the final basis set =    -5265.6299488895
   13   -5265.6299503696      7.71e-07  Convergence criterion met
 Total energy in the final basis set =    -5265.6299503696

             Standard Nuclear Orientation (Angstroms)
    I     Atom           X                Y                Z
 ----------------------------------------------------------------
    1      Br     -0.4490227357     2.0291396029    -1.0474739957
    2      Br      0.8146276685     1.3877655247     1.5066263705
    3      C      -0.3578471869    -0.8047431024    -0.4385425431
    4      C       0.6418408273    -0.8874980456     0.5281281030
    5      C      -1.7959972748    -1.0676292782    -0.1518894255
    6      H      -0.0647474860    -0.6795519602    -1.4737420245
    7      H       0.4086939005    -1.3015880904     1.5032726940
    8      H       1.6825694422    -0.9068175931     0.2272479440
    9      H      -2.0080994554    -1.0712705941     0.9199471885
   10      H      -2.4352729492    -0.3269474604    -0.6396128396
   11      H      -2.0719507506    -2.0498630033    -0.5631544716
 ----------------------------------------------------------------

   13   -5265.6299505783      7.73e-07  Convergence criterion met
 Total energy in the final basis set =    -5265.6299505783

                    Orbital Energies (a.u.)
 --------------------------------------------------------------

 Alpha MOs
 -- Occupied --
*******-482.835 -62.522 -62.492 -56.343 -56.342 -56.339 -56.315
-56.310 -56.310 -10.262 -10.256 -10.213  -8.709  -8.679  -6.536
 -6.533  -6.525  -6.510  -6.498  -6.496  -2.631  -2.631  -2.625
 -2.622  -2.621  -2.603  -2.600  -2.599  -2.589  -2.589  -0.844
 -0.775  -0.737  -0.723  -0.606  -0.513  -0.468  -0.452  -0.408
 -0.398  -0.374  -0.350  -0.301  -0.279  -0.267  -0.254  -0.249

 Beta MOs
 -- Occupied --
*******-482.833 -62.521 -62.491 -56.340 -56.339 -56.338 -56.311
-56.309 -56.309 -10.256 -10.254 -10.213  -8.706  -8.676  -6.530
 -6.527  -6.523  -6.503  -6.496  -6.495  -2.626  -2.625  -2.621
 -2.619  -2.618  -2.597  -2.595  -2.595  -2.588  -2.588  -0.829
 -0.748  -0.718  -0.701  -0.597  -0.509  -0.464  -0.440  -0.405
 -0.395  -0.338  -0.306  -0.290  -0.260  -0.256

          Ground-State Mulliken Net Atomic Charges

     Atom                 Charge (a.u.)    Spin (a.u.)
  --------------------------------------------------------
      1 Br                   -0.248507       0.688251
      2 Br                   -0.103595       0.762669
      3 C                     0.019659       0.460764
      4 C                    -0.244600       0.103178
      5 C                    -0.355087      -0.032123
      6 H                     0.160736      -0.018761
      7 H                     0.162747      -0.002241
      8 H                     0.168782      -0.004883
      9 H                     0.134666       0.000822
     10 H                     0.166285       0.019906
     11 H                     0.138915       0.022417
  --------------------------------------------------------
  Sum of atomic charges =     0.000000

                    Cartesian Multipole Moments
 -----------------------------------------------------------------
    Charge (ESU x 10^10)
                -0.0000
    Dipole Moment (Debye)
         X      -0.4605      Y      -4.9675      Z       0.1007
       Tot       4.9898
    Quadrupole Moments (Debye-Ang)
        XX     -54.5066     XY       0.7745     YY     -61.1560
        XZ       0.2007     YZ       0.9266     ZZ     -56.7650

 Final energy is   -5265.62995057835
 **  OPTIMIZATION CONVERGED  **
 Total job time:  89.01s(wall), 979.70s(cpu)
        *  Thank you very much for using Q-Chem.  Have a nice day.  *
