 Q-Chem 5.1, Q-Chem, Inc., Pleasanton, CA (2018)
 Q-Chem 5.1.1 for Intel X86 EM64T Linux

User input:
--------------------------------------------------------------

$comment
potential surface scanner
$end

$rem
JOBTYPE  PES_SCAN
UNRESTRICTED TRUE
SYM_IGNORE  TRUE
GEOM_OPT_MAX_CYCLES 400
SCF_MAX_CYCLES 400
METHOD   B3LYP
BASIS   6-31G**
PDB_PRINT 2
SCF_CONVERGENCE 6
THRESH 14
SCF_PRINT 1
$end
$molecule
0 3
Br 1.873260 2.664923 -0.980997
Br 0.047780 1.655388 1.089420
C -0.651032 -0.896835 -0.431602
C 0.496393 -0.733584 0.307863
C -1.927272 -1.457900 0.088093
H -0.644598 -0.547644 -1.462786
H 0.570315 -1.141530 1.311277
H 1.418378 -0.414982 -0.164678
H -1.851665 -1.761284 1.134814
H -2.734434 -0.720659 -0.008237
H -2.232328 -2.324898 -0.512360
$end
$scan
stre 1 3 4.300000 4.301000 0.100000
$end
--------------------------------------------------------------

   14   -5265.6353490256      5.04e-07  Convergence criterion met
 Total energy in the final basis set =    -5265.6353490256
   14   -5265.6353569079      4.75e-07  Convergence criterion met
 Total energy in the final basis set =    -5265.6353569079
   14   -5265.6354003750      4.88e-07  Convergence criterion met
 Total energy in the final basis set =    -5265.6354003750
   14   -5265.6354172903      5.02e-07  Convergence criterion met
 Total energy in the final basis set =    -5265.6354172903
   14   -5265.6354228226      5.08e-07  Convergence criterion met
 Total energy in the final basis set =    -5265.6354228226
   14   -5265.6354286133      5.10e-07  Convergence criterion met
 Total energy in the final basis set =    -5265.6354286133
   14   -5265.6354315298      5.06e-07  Convergence criterion met
 Total energy in the final basis set =    -5265.6354315298
   14   -5265.6354337265      4.97e-07  Convergence criterion met
 Total energy in the final basis set =    -5265.6354337265

             Standard Nuclear Orientation (Angstroms)
    I     Atom           X                Y                Z
 ----------------------------------------------------------------
    1      Br      1.7917304464     2.6096267418    -1.0486245069
    2      Br      0.0509539171     1.6503317105     1.1122463500
    3      C      -0.6373705826    -0.8826396838    -0.4212936117
    4      C       0.5050527773    -0.7413146284     0.3294428356
    5      C      -1.9203033501    -1.4472568730     0.0777646861
    6      H      -0.6214345730    -0.5116455261    -1.4447063863
    7      H       0.5670749106    -1.1651339140     1.3271749188
    8      H       1.4317701151    -0.4160419451    -0.1286766272
    9      H      -1.8514477113    -1.7804128320     1.1159206268
   10      H      -2.7204787338    -0.7002873860    -0.0005968651
   11      H      -2.2307502156    -2.2942306638    -0.5478444202
 ----------------------------------------------------------------

   14   -5265.6354345200      4.92e-07  Convergence criterion met
 Total energy in the final basis set =    -5265.6354345200

                    Orbital Energies (a.u.)
 --------------------------------------------------------------

 Alpha MOs
 -- Occupied --
*******-482.829 -62.529 -62.487 -56.351 -56.349 -56.346 -56.309
-56.304 -56.304 -10.265 -10.255 -10.224  -8.716  -8.674  -6.545
 -6.538  -6.532  -6.506  -6.491  -6.490  -2.639  -2.638  -2.633
 -2.628  -2.628  -2.598  -2.594  -2.594  -2.583  -2.583  -0.849
 -0.780  -0.734  -0.726  -0.610  -0.518  -0.474  -0.459  -0.418
 -0.401  -0.373  -0.353  -0.307  -0.273  -0.262  -0.260  -0.252

 Beta MOs
 -- Occupied --
*******-482.827 -62.528 -62.486 -56.347 -56.346 -56.345 -56.305
-56.303 -56.303 -10.259 -10.254 -10.224  -8.713  -8.671  -6.537
 -6.533  -6.530  -6.498  -6.489  -6.489  -2.633  -2.632  -2.629
 -2.626  -2.625  -2.592  -2.590  -2.589  -2.582  -2.582  -0.836
 -0.751  -0.724  -0.694  -0.603  -0.514  -0.471  -0.449  -0.415
 -0.399  -0.336  -0.308  -0.294  -0.255  -0.250

          Ground-State Mulliken Net Atomic Charges

     Atom                 Charge (a.u.)    Spin (a.u.)
  --------------------------------------------------------
      1 Br                   -0.253925       0.727626
      2 Br                   -0.092758       0.819748
      3 C                     0.022790       0.427831
      4 C                    -0.247442       0.033215
      5 C                    -0.361974      -0.029901
      6 H                     0.151041      -0.018808
      7 H                     0.155352      -0.001439
      8 H                     0.189081       0.000579
      9 H                     0.133148       0.000331
     10 H                     0.159357       0.022857
     11 H                     0.145331       0.017963
  --------------------------------------------------------
  Sum of atomic charges =     0.000000

                    Cartesian Multipole Moments
 -----------------------------------------------------------------
    Charge (ESU x 10^10)
                -0.0000
    Dipole Moment (Debye)
         X      -2.9104      Y      -5.5438      Z       0.5150
       Tot       6.2825
    Quadrupole Moments (Debye-Ang)
        XX     -56.9291     XY      -3.5750     YY     -64.0874
        XZ       2.0162     YZ       1.8218     ZZ     -56.7357

 Final energy is   -5265.63543452003
 **  OPTIMIZATION CONVERGED  **
 Total job time:  56.75s(wall), 660.17s(cpu)
        *  Thank you very much for using Q-Chem.  Have a nice day.  *
