 Q-Chem 5.1, Q-Chem, Inc., Pleasanton, CA (2018)
 Q-Chem 5.1.1 for Intel X86 EM64T Linux

User input:
--------------------------------------------------------------

$comment
potential surface scanner
$end

$rem
JOBTYPE  PES_SCAN
UNRESTRICTED TRUE
SYM_IGNORE  TRUE
GEOM_OPT_MAX_CYCLES 400
SCF_MAX_CYCLES 400
METHOD   B3LYP
BASIS   6-31G**
PDB_PRINT 2
SCF_CONVERGENCE 6
THRESH 14
SCF_PRINT 1
$end
$molecule
0 3
Br 1.329464 2.539507 -1.313171
Br 0.247825 1.587079 1.255297
C -0.579449 -0.851503 -0.387374
C 0.531095 -0.789520 0.423191
C -1.903864 -1.386628 0.025978
H -0.496873 -0.436047 -1.389962
H 0.523291 -1.251645 1.405737
H 1.495638 -0.517989 0.011674
H -1.899258 -1.762458 1.051842
H -2.674788 -0.610944 -0.064896
H -2.208288 -2.198856 -0.647509
$end
$scan
stre 1 3 3.900000 3.901000 0.100000
$end
--------------------------------------------------------------

   14   -5265.6356686364      5.12e-07  Convergence criterion met
 Total energy in the final basis set =    -5265.6356686364
   14   -5265.6356443198      4.73e-07  Convergence criterion met
 Total energy in the final basis set =    -5265.6356443198
   14   -5265.6356639519      4.69e-07  Convergence criterion met
 Total energy in the final basis set =    -5265.6356639519
   14   -5265.6356703923      4.90e-07  Convergence criterion met
 Total energy in the final basis set =    -5265.6356703923
   14   -5265.6356722987      5.08e-07  Convergence criterion met
 Total energy in the final basis set =    -5265.6356722987
   14   -5265.6356736427      5.23e-07  Convergence criterion met
 Total energy in the final basis set =    -5265.6356736427

             Standard Nuclear Orientation (Angstroms)
    I     Atom           X                Y                Z
 ----------------------------------------------------------------
    1      Br      1.2780019323     2.4602176655    -1.3430322226
    2      Br      0.2447893175     1.5825196032     1.2790561543
    3      C      -0.5724921713    -0.8358571930    -0.3830517697
    4      C       0.5361304670    -0.7849952015     0.4318540195
    5      C      -1.8972629066    -1.3779355152     0.0195125428
    6      H      -0.4872463380    -0.4041319608    -1.3784146239
    7      H       0.5248628808    -1.2615012365     1.4075263147
    8      H       1.5013165233    -0.5071896004     0.0260326063
    9      H      -1.8941888140    -1.7716338942     1.0386892673
   10      H      -2.6677873708    -0.6004352423    -0.0588865940
   11      H      -2.2013305200    -2.1780614247    -0.6684786948
 ----------------------------------------------------------------

   14   -5265.6356744556      5.29e-07  Convergence criterion met
 Total energy in the final basis set =    -5265.6356744556

                    Orbital Energies (a.u.)
 --------------------------------------------------------------

 Alpha MOs
 -- Occupied --
*******-482.830 -62.529 -62.487 -56.350 -56.348 -56.346 -56.310
-56.305 -56.305 -10.264 -10.256 -10.223  -8.716  -8.674  -6.544
 -6.538  -6.531  -6.506  -6.491  -6.491  -2.638  -2.637  -2.632
 -2.628  -2.627  -2.598  -2.595  -2.594  -2.583  -2.583  -0.849
 -0.780  -0.734  -0.727  -0.609  -0.518  -0.473  -0.458  -0.417
 -0.401  -0.374  -0.352  -0.306  -0.271  -0.262  -0.262  -0.253

 Beta MOs
 -- Occupied --
*******-482.828 -62.527 -62.486 -56.346 -56.345 -56.345 -56.306
-56.304 -56.304 -10.257 -10.255 -10.223  -8.712  -8.671  -6.537
 -6.533  -6.529  -6.498  -6.490  -6.489  -2.632  -2.631  -2.628
 -2.625  -2.625  -2.592  -2.590  -2.590  -2.582  -2.582  -0.835
 -0.752  -0.723  -0.695  -0.602  -0.514  -0.470  -0.448  -0.414
 -0.398  -0.337  -0.307  -0.294  -0.256  -0.252

          Ground-State Mulliken Net Atomic Charges

     Atom                 Charge (a.u.)    Spin (a.u.)
  --------------------------------------------------------
      1 Br                   -0.262094       0.718536
      2 Br                   -0.092657       0.808196
      3 C                     0.027371       0.454045
      4 C                    -0.250989       0.027343
      5 C                    -0.363568      -0.031936
      6 H                     0.160387      -0.019999
      7 H                     0.154139      -0.001492
      8 H                     0.188325       0.001130
      9 H                     0.131956       0.000371
     10 H                     0.160918       0.024531
     11 H                     0.146211       0.019275
  --------------------------------------------------------
  Sum of atomic charges =    -0.000000

                    Cartesian Multipole Moments
 -----------------------------------------------------------------
    Charge (ESU x 10^10)
                -0.0000
    Dipole Moment (Debye)
         X      -2.3831      Y      -5.4148      Z       0.8358
       Tot       5.9747
    Quadrupole Moments (Debye-Ang)
        XX     -55.6222     XY      -2.3520     YY     -63.3211
        XZ       2.1054     YZ       2.2822     ZZ     -57.3818

 Final energy is   -5265.63567445561
 **  OPTIMIZATION CONVERGED  **
 Total job time:  44.99s(wall), 522.25s(cpu)
        *  Thank you very much for using Q-Chem.  Have a nice day.  *
