 Q-Chem 5.1, Q-Chem, Inc., Pleasanton, CA (2018)
 Q-Chem 5.1.1 for Intel X86 EM64T Linux

User input:
--------------------------------------------------------------

$comment
potential surface scanner
$end

$rem
JOBTYPE  PES_SCAN
UNRESTRICTED TRUE
SYM_IGNORE  TRUE
GEOM_OPT_MAX_CYCLES 400
SCF_MAX_CYCLES 400
METHOD   B3LYP
BASIS   6-31G**
PDB_PRINT 2
SCF_CONVERGENCE 6
THRESH 14
SCF_PRINT 1
$end
$molecule
0 3
Br 0.594463 2.238230 -1.408341
Br 0.390288 1.470369 1.430331
C -0.474012 -0.824792 -0.390373
C 0.591045 -0.822795 0.491896
C -1.852029 -1.256119 -0.037618
H -0.312531 -0.451125 -1.396646
H 0.500851 -1.308325 1.458779
H 1.594380 -0.630291 0.130459
H -1.935700 -1.596877 0.997079
H -2.558169 -0.431422 -0.198427
H -2.173793 -2.065855 -0.706334
$end
$scan
stre 1 3 3.300000 3.301000 0.100000
$end
--------------------------------------------------------------

   13   -5265.6344572672      9.57e-07  Convergence criterion met
 Total energy in the final basis set =    -5265.6344572672
   13   -5265.6331727471      6.90e-07  Convergence criterion met
 Total energy in the final basis set =    -5265.6331727471
   13   -5265.6332346213      7.35e-07  Convergence criterion met
 Total energy in the final basis set =    -5265.6332346213
   13   -5265.6335712350      9.19e-07  Convergence criterion met
 Total energy in the final basis set =    -5265.6335712350
   13   -5265.6341876500      9.93e-07  Convergence criterion met
 Total energy in the final basis set =    -5265.6341876500
   13   -5265.6343613872      9.33e-07  Convergence criterion met
 Total energy in the final basis set =    -5265.6343613872
   13   -5265.6347421007      5.97e-07  Convergence criterion met
 Total energy in the final basis set =    -5265.6347421007
   13   -5265.6345864233      5.39e-07  Convergence criterion met
 Total energy in the final basis set =    -5265.6345864233
   13   -5265.6348995681      6.03e-07  Convergence criterion met
 Total energy in the final basis set =    -5265.6348995681
   13   -5265.6349105657      5.99e-07  Convergence criterion met
 Total energy in the final basis set =    -5265.6349105657

             Standard Nuclear Orientation (Angstroms)
    I     Atom           X                Y                Z
 ----------------------------------------------------------------
    1      Br     -0.2121422544     2.2665161268    -1.3373105885
    2      Br      0.6090155002     1.4355748043     1.3823015648
    3      C      -0.3634719183    -0.8902230879    -0.3875223868
    4      C       0.6447430791    -0.9353351396     0.5576636121
    5      C      -1.7990991914    -1.1379265733    -0.0978474070
    6      H      -0.1048675753    -0.6194757258    -1.4060659651
    7      H       0.4483365024    -1.3337703241     1.5479986357
    8      H       1.6829534396    -0.8768233738     0.2514503594
    9      H      -1.9768968615    -1.4027398158     0.9469408515
   10      H      -2.3841045891    -0.2430676188    -0.3449250795
   11      H      -2.1796731314    -1.9417312720    -0.7418785966
 ----------------------------------------------------------------

   13   -5265.6349161238      5.87e-07  Convergence criterion met
 Total energy in the final basis set =    -5265.6349161238

                    Orbital Energies (a.u.)
 --------------------------------------------------------------

 Alpha MOs
 -- Occupied --
*******-482.830 -62.527 -62.488 -56.348 -56.346 -56.344 -56.310
-56.305 -56.305 -10.263 -10.258 -10.217  -8.714  -8.675  -6.542
 -6.536  -6.529  -6.507  -6.492  -6.491  -2.636  -2.635  -2.630
 -2.626  -2.625  -2.599  -2.595  -2.595  -2.584  -2.584  -0.847
 -0.778  -0.733  -0.726  -0.608  -0.516  -0.472  -0.454  -0.413
 -0.399  -0.373  -0.351  -0.303  -0.268  -0.264  -0.262  -0.254

 Beta MOs
 -- Occupied --
*******-482.828 -62.525 -62.487 -56.344 -56.343 -56.343 -56.306
-56.304 -56.304 -10.257 -10.256 -10.217  -8.710  -8.672  -6.535
 -6.531  -6.527  -6.499  -6.490  -6.490  -2.630  -2.630  -2.626
 -2.623  -2.623  -2.593  -2.591  -2.590  -2.583  -2.583  -0.833
 -0.750  -0.721  -0.697  -0.599  -0.512  -0.468  -0.442  -0.410
 -0.397  -0.337  -0.307  -0.291  -0.257  -0.253

          Ground-State Mulliken Net Atomic Charges

     Atom                 Charge (a.u.)    Spin (a.u.)
  --------------------------------------------------------
      1 Br                   -0.269764       0.696135
      2 Br                   -0.094306       0.796194
      3 C                     0.037194       0.479790
      4 C                    -0.252745       0.037473
      5 C                    -0.365528      -0.033506
      6 H                     0.163018      -0.020987
      7 H                     0.160004      -0.000846
      8 H                     0.172332      -0.001340
      9 H                     0.130192       0.000429
     10 H                     0.177120       0.026789
     11 H                     0.142483       0.019869
  --------------------------------------------------------
  Sum of atomic charges =    -0.000000

                    Cartesian Multipole Moments
 -----------------------------------------------------------------
    Charge (ESU x 10^10)
                -0.0000
    Dipole Moment (Debye)
         X      -0.6172      Y      -5.3049      Z       0.7562
       Tot       5.3940
    Quadrupole Moments (Debye-Ang)
        XX     -54.1229     XY       0.6339     YY     -62.4152
        XZ       0.5300     YZ       2.1329     ZZ     -57.2237

 Final energy is   -5265.63491612378
 **  OPTIMIZATION CONVERGED  **
 Total job time:  69.08s(wall), 805.55s(cpu)
        *  Thank you very much for using Q-Chem.  Have a nice day.  *
