 Q-Chem 5.1, Q-Chem, Inc., Pleasanton, CA (2018)
 Q-Chem 5.1.1 for Intel X86 EM64T Linux

User input:
--------------------------------------------------------------

$comment
potential surface scanner
$end

$rem
JOBTYPE  PES_SCAN
UNRESTRICTED TRUE
SYM_IGNORE  TRUE
GEOM_OPT_MAX_CYCLES 400
SCF_MAX_CYCLES 400
METHOD   B3LYP
BASIS   6-31G**
PDB_PRINT 2
SCF_CONVERGENCE 6
THRESH 14
SCF_PRINT 1
$end
$molecule
0 1
Br -0.693485 1.925216 0.209413
Br 2.401905 -0.163098 -0.251904
C -0.525649 -0.193422 -0.359098
C 0.650887 -0.785830 0.374653
C -1.846320 -0.847760 -0.016640
H -0.354862 -0.083464 -1.427844
H 0.606678 -0.585015 1.444020
H 0.655734 -1.867402 0.211416
H -2.023697 -0.856503 1.061773
H -2.677057 -0.334464 -0.503253
H -1.829334 -1.887258 -0.371737
$end
$scan
stre 1 3 2.300000 2.301000 0.100000
$end
--------------------------------------------------------------

   10   -5265.7068482915      6.74e-07  Convergence criterion met
 Total energy in the final basis set =    -5265.7068482915
   11   -5265.7002082599      1.59e-07  Convergence criterion met
 Total energy in the final basis set =    -5265.7002082599
   11   -5265.7002533174      1.62e-07  Convergence criterion met
 Total energy in the final basis set =    -5265.7002533174
   11   -5265.7003535339      1.64e-07  Convergence criterion met
 Total energy in the final basis set =    -5265.7003535339
   11   -5265.7003576892      1.64e-07  Convergence criterion met
 Total energy in the final basis set =    -5265.7003576892
   11   -5265.7003595860      1.64e-07  Convergence criterion met
 Total energy in the final basis set =    -5265.7003595860
   11   -5265.7003607841      1.64e-07  Convergence criterion met
 Total energy in the final basis set =    -5265.7003607841
   11   -5265.7003619205      1.64e-07  Convergence criterion met
 Total energy in the final basis set =    -5265.7003619205

             Standard Nuclear Orientation (Angstroms)
    I     Atom           X                Y                Z
 ----------------------------------------------------------------
    1      Br     -0.7028020055     1.9860425688     0.2279924735
    2      Br      2.4007203303    -0.1686012058    -0.2613003683
    3      C      -0.5221401413    -0.2278505680    -0.3686965717
    4      C       0.6555861897    -0.7919520004     0.3750562500
    5      C      -1.8477830908    -0.8553107161    -0.0201258580
    6      H      -0.3522744402    -0.0798229086    -1.4321929341
    7      H       0.6062196586    -0.5749614742     1.4409379393
    8      H       0.6667634024    -1.8772943972     0.2312946981
    9      H      -2.0192862271    -0.8654515157     1.0589833567
   10      H      -2.6721837648    -0.3288732129    -0.5028810607
   11      H      -1.8480199113    -1.8949245699    -0.3782689248
 ----------------------------------------------------------------

   11   -5265.7003623960      1.64e-07  Convergence criterion met
 Total energy in the final basis set =    -5265.7003623960

                    Orbital Energies (a.u.)
 --------------------------------------------------------------

 Alpha MOs
 -- Occupied --
*******-482.837 -62.521 -62.495 -56.343 -56.339 -56.339 -56.316
-56.313 -56.313 -10.288 -10.269 -10.218  -8.708  -8.681  -6.539
 -6.525  -6.525  -6.511  -6.499  -6.499  -2.632  -2.629  -2.628
 -2.618  -2.618  -2.604  -2.601  -2.601  -2.592  -2.592  -0.857
 -0.791  -0.731  -0.699  -0.612  -0.497  -0.475  -0.455  -0.437
 -0.398  -0.381  -0.323  -0.291  -0.288  -0.271  -0.267

 Beta MOs
 -- Occupied --
*******-482.837 -62.521 -62.495 -56.343 -56.339 -56.339 -56.316
-56.313 -56.313 -10.288 -10.269 -10.218  -8.708  -8.681  -6.539
 -6.525  -6.525  -6.511  -6.499  -6.499  -2.632  -2.629  -2.628
 -2.618  -2.618  -2.604  -2.601  -2.601  -2.592  -2.592  -0.857
 -0.791  -0.731  -0.699  -0.612  -0.497  -0.475  -0.455  -0.437
 -0.398  -0.381  -0.323  -0.291  -0.288  -0.271  -0.267

          Ground-State Mulliken Net Atomic Charges

     Atom                 Charge (a.u.)    Spin (a.u.)
  --------------------------------------------------------
      1 Br                   -0.218024       0.000000
      2 Br                   -0.067874      -0.000000
      3 C                    -0.092072      -0.000000
      4 C                    -0.250441      -0.000000
      5 C                    -0.326029      -0.000000
      6 H                     0.180565       0.000000
      7 H                     0.184082       0.000000
      8 H                     0.163893       0.000000
      9 H                     0.142973       0.000000
     10 H                     0.155679      -0.000000
     11 H                     0.127247      -0.000000
  --------------------------------------------------------
  Sum of atomic charges =     0.000000

                    Cartesian Multipole Moments
 -----------------------------------------------------------------
    Charge (ESU x 10^10)
                 0.0000
    Dipole Moment (Debye)
         X      -1.6153      Y      -3.7441      Z      -0.0963
       Tot       4.0788
    Quadrupole Moments (Debye-Ang)
        XX     -58.3374     XY       2.9225     YY     -58.7081
        XZ       0.9135     YZ      -0.7058     ZZ     -55.3380

 Final energy is   -5265.70036239602
 **  OPTIMIZATION CONVERGED  **
 Total job time:  52.42s(wall), 608.35s(cpu)
        *  Thank you very much for using Q-Chem.  Have a nice day.  *
