 Q-Chem 5.1, Q-Chem, Inc., Pleasanton, CA (2018)
 Q-Chem 5.1.1 for Intel X86 EM64T Linux

User input:
--------------------------------------------------------------

$comment
potential surface scanner
$end

$rem
JOBTYPE  PES_SCAN
UNRESTRICTED TRUE
SYM_IGNORE  TRUE
GEOM_OPT_MAX_CYCLES 400
SCF_MAX_CYCLES 400
METHOD   B3LYP
BASIS   6-31G**
PDB_PRINT 2
SCF_CONVERGENCE 6
THRESH 14
SCF_PRINT 1
$end
$molecule
0 3
Br 2.681957 2.584280 0.945839
Br -0.103180 1.917602 0.197157
C -0.862886 -1.032267 -0.617710
C 0.377234 -0.569673 -0.242684
C -1.896632 -1.544628 0.320913
H -1.133460 -0.977231 -1.671185
H 0.733596 -0.703385 0.773272
H 1.119845 -0.312483 -0.988871
H -1.544707 -1.562154 1.354742
H -2.799570 -0.921943 0.267643
H -2.207399 -2.557120 0.031688
$end
$scan
stre 1 3 5.200000 5.201000 0.100000
$end
--------------------------------------------------------------

   14   -5265.6334326872      8.34e-07  Convergence criterion met
 Total energy in the final basis set =    -5265.6334326872
   14   -5265.6334643628      6.37e-07  Convergence criterion met
 Total energy in the final basis set =    -5265.6334643628
   14   -5265.6337089063      6.27e-07  Convergence criterion met
 Total energy in the final basis set =    -5265.6337089063
   14   -5265.6337732083      6.39e-07  Convergence criterion met
 Total energy in the final basis set =    -5265.6337732083
   14   -5265.6337756596      6.48e-07  Convergence criterion met
 Total energy in the final basis set =    -5265.6337756596
   14   -5265.6337784170      6.70e-07  Convergence criterion met
 Total energy in the final basis set =    -5265.6337784170
   14   -5265.6337794979      6.82e-07  Convergence criterion met
 Total energy in the final basis set =    -5265.6337794979
   14   -5265.6337807386      6.95e-07  Convergence criterion met
 Total energy in the final basis set =    -5265.6337807386
   14   -5265.6337821656      7.06e-07  Convergence criterion met
 Total energy in the final basis set =    -5265.6337821656
   14   -5265.6337841002      7.18e-07  Convergence criterion met
 Total energy in the final basis set =    -5265.6337841002
   14   -5265.6337855458      7.21e-07  Convergence criterion met
 Total energy in the final basis set =    -5265.6337855458

             Standard Nuclear Orientation (Angstroms)
    I     Atom           X                Y                Z
 ----------------------------------------------------------------
    1      Br      2.6849264017     2.4957225600     0.8581022247
    2      Br     -0.1352100009     1.9213102224     0.2250552542
    3      C      -0.8544576895    -1.0196294089    -0.6099112997
    4      C       0.3753598134    -0.5433707698    -0.2170700674
    5      C      -1.8938405519    -1.5490601635     0.3131030234
    6      H      -1.1130143247    -0.9621919823    -1.6662700477
    7      H       0.7229322321    -0.6793803010     0.8016013711
    8      H       1.1251420873    -0.2731730212    -0.9511813013
    9      H      -1.5562640813    -1.5649354024     1.3517551867
   10      H      -2.8048140521    -0.9392341772     0.2488386000
   11      H      -2.1859618342    -2.5650595562     0.0167810559
 ----------------------------------------------------------------

   14   -5265.6337863075      7.13e-07  Convergence criterion met
 Total energy in the final basis set =    -5265.6337863075

                    Orbital Energies (a.u.)
 --------------------------------------------------------------

 Alpha MOs
 -- Occupied --
*******-482.830 -62.528 -62.487 -56.349 -56.347 -56.345 -56.310
-56.305 -56.305 -10.266 -10.255 -10.225  -8.715  -8.674  -6.543
 -6.537  -6.530  -6.506  -6.491  -6.490  -2.637  -2.636  -2.631
 -2.626  -2.626  -2.599  -2.595  -2.594  -2.583  -2.583  -0.849
 -0.779  -0.735  -0.726  -0.611  -0.519  -0.474  -0.460  -0.418
 -0.402  -0.372  -0.351  -0.303  -0.276  -0.263  -0.261  -0.251

 Beta MOs
 -- Occupied --
*******-482.828 -62.526 -62.486 -56.345 -56.344 -56.344 -56.306
-56.304 -56.304 -10.260 -10.254 -10.225  -8.711  -8.671  -6.536
 -6.532  -6.528  -6.498  -6.490  -6.489  -2.631  -2.631  -2.627
 -2.624  -2.623  -2.592  -2.590  -2.590  -2.582  -2.582  -0.836
 -0.751  -0.725  -0.693  -0.604  -0.515  -0.471  -0.450  -0.416
 -0.400  -0.335  -0.307  -0.291  -0.254  -0.250

          Ground-State Mulliken Net Atomic Charges

     Atom                 Charge (a.u.)    Spin (a.u.)
  --------------------------------------------------------
      1 Br                   -0.236983       0.748456
      2 Br                   -0.101302       0.803977
      3 C                     0.021397       0.458820
      4 C                    -0.249314      -0.006452
      5 C                    -0.361191      -0.031505
      6 H                     0.136493      -0.020234
      7 H                     0.172328       0.001289
      8 H                     0.178666       0.001306
      9 H                     0.139509       0.000406
     10 H                     0.155712       0.024526
     11 H                     0.144683       0.019410
  --------------------------------------------------------
  Sum of atomic charges =    -0.000000

                    Cartesian Multipole Moments
 -----------------------------------------------------------------
    Charge (ESU x 10^10)
                -0.0000
    Dipole Moment (Debye)
         X      -3.8872      Y      -5.4734      Z      -1.5248
       Tot       6.8843
    Quadrupole Moments (Debye-Ang)
        XX     -59.9767     XY      -4.6913     YY     -63.4751
        XZ      -1.8949     YZ      -2.0735     ZZ     -56.5035

 Final energy is   -5265.63378630750
 **  OPTIMIZATION CONVERGED  **
 Total job time:  73.58s(wall), 856.52s(cpu)
        *  Thank you very much for using Q-Chem.  Have a nice day.  *
