 Q-Chem 5.1, Q-Chem, Inc., Pleasanton, CA (2018)
 Q-Chem 5.1.1 for Intel X86 EM64T Linux

User input:
--------------------------------------------------------------

$comment
potential surface scanner
$end

$rem
JOBTYPE  PES_SCAN
UNRESTRICTED TRUE
SYM_IGNORE  TRUE
GEOM_OPT_MAX_CYCLES 400
SCF_MAX_CYCLES 400
METHOD   B3LYP
BASIS   6-31G**
PDB_PRINT 2
SCF_CONVERGENCE 6
THRESH 14
SCF_PRINT 1
$end
$molecule
0 3
Br 0.767976 2.356870 -1.450283
Br 0.362313 1.520253 1.351559
C -0.497194 -0.836394 -0.372132
C 0.575947 -0.841716 0.493265
C -1.866696 -1.297115 -0.023563
H -0.345063 -0.401772 -1.358785
H 0.499362 -1.316129 1.467021
H 1.572884 -0.625756 0.127622
H -1.931364 -1.686967 0.995115
H -2.582001 -0.472190 -0.135116
H -2.191370 -2.078086 -0.723897
$end
$scan
stre 1 3 3.500000 3.501000 0.100000
$end
--------------------------------------------------------------

   14   -5265.6356301138      5.19e-07  Convergence criterion met
 Total energy in the final basis set =    -5265.6356301138
   14   -5265.6351909357      4.20e-07  Convergence criterion met
 Total energy in the final basis set =    -5265.6351909357
   14   -5265.6352493902      4.54e-07  Convergence criterion met
 Total energy in the final basis set =    -5265.6352493902
   14   -5265.6352779958      4.85e-07  Convergence criterion met
 Total energy in the final basis set =    -5265.6352779958
   14   -5265.6352831943      4.85e-07  Convergence criterion met
 Total energy in the final basis set =    -5265.6352831943
   14   -5265.6352877278      4.82e-07  Convergence criterion met
 Total energy in the final basis set =    -5265.6352877278
   14   -5265.6352890898      4.79e-07  Convergence criterion met
 Total energy in the final basis set =    -5265.6352890898
   14   -5265.6352907440      4.73e-07  Convergence criterion met
 Total energy in the final basis set =    -5265.6352907440

             Standard Nuclear Orientation (Angstroms)
    I     Atom           X                Y                Z
 ----------------------------------------------------------------
    1      Br      0.7127389801     2.2893553216    -1.4286980289
    2      Br      0.3678498146     1.4988493691     1.3915936219
    3      C      -0.4904731017    -0.8260160466    -0.3814432754
    4      C       0.5811549661    -0.8286043198     0.4889579330
    5      C      -1.8608682149    -1.2809452857    -0.0283348350
    6      H      -0.3385099003    -0.4151096803    -1.3765397214
    7      H       0.5015974445    -1.3114202594     1.4582527213
    8      H       1.5795229341    -0.6183647723     0.1237964639
    9      H      -1.9302717214    -1.6487306259     0.9981904137
   10      H      -2.5774445602    -0.4603994258    -0.1615580147
   11      H      -2.1805026409    -2.0776162748    -0.7134112784
 ----------------------------------------------------------------

   14   -5265.6352910722      4.70e-07  Convergence criterion met
 Total energy in the final basis set =    -5265.6352910722

                    Orbital Energies (a.u.)
 --------------------------------------------------------------

 Alpha MOs
 -- Occupied --
*******-482.830 -62.528 -62.487 -56.349 -56.347 -56.345 -56.310
-56.305 -56.305 -10.262 -10.257 -10.221  -8.715  -8.674  -6.543
 -6.537  -6.530  -6.506  -6.491  -6.491  -2.637  -2.636  -2.631
 -2.627  -2.626  -2.598  -2.595  -2.594  -2.583  -2.583  -0.848
 -0.779  -0.733  -0.727  -0.608  -0.517  -0.473  -0.457  -0.415
 -0.400  -0.375  -0.352  -0.305  -0.268  -0.264  -0.262  -0.253

 Beta MOs
 -- Occupied --
*******-482.828 -62.526 -62.486 -56.345 -56.344 -56.344 -56.306
-56.304 -56.304 -10.256 -10.255 -10.221  -8.711  -8.671  -6.536
 -6.532  -6.529  -6.498  -6.490  -6.489  -2.631  -2.631  -2.628
 -2.624  -2.624  -2.592  -2.590  -2.590  -2.582  -2.582  -0.834
 -0.752  -0.722  -0.697  -0.600  -0.513  -0.469  -0.446  -0.412
 -0.398  -0.339  -0.308  -0.293  -0.257  -0.252

          Ground-State Mulliken Net Atomic Charges

     Atom                 Charge (a.u.)    Spin (a.u.)
  --------------------------------------------------------
      1 Br                   -0.270971       0.703951
      2 Br                   -0.091289       0.796436
      3 C                     0.034098       0.481229
      4 C                    -0.253563       0.028011
      5 C                    -0.365023      -0.033732
      6 H                     0.165854      -0.021529
      7 H                     0.156291      -0.001183
      8 H                     0.183646       0.000285
      9 H                     0.131092       0.000399
     10 H                     0.164326       0.025628
     11 H                     0.145540       0.020506
  --------------------------------------------------------
  Sum of atomic charges =     0.000000

                    Cartesian Multipole Moments
 -----------------------------------------------------------------
    Charge (ESU x 10^10)
                 0.0000
    Dipole Moment (Debye)
         X      -1.7148      Y      -5.2735      Z       0.9085
       Tot       5.6193
    Quadrupole Moments (Debye-Ang)
        XX     -54.5870     XY      -1.1212     YY     -62.5563
        XZ       1.6245     YZ       2.3183     ZZ     -57.6394

 Final energy is   -5265.63529107223
 **  OPTIMIZATION CONVERGED  **
 Total job time:  59.41s(wall), 690.11s(cpu)
        *  Thank you very much for using Q-Chem.  Have a nice day.  *
