 Q-Chem 5.1, Q-Chem, Inc., Pleasanton, CA (2018)
 Q-Chem 5.1.1 for Intel X86 EM64T Linux

User input:
--------------------------------------------------------------

$comment
potential surface scanner
$end

$rem
JOBTYPE  PES_SCAN
UNRESTRICTED TRUE
SYM_IGNORE  TRUE
GEOM_OPT_MAX_CYCLES 400
SCF_MAX_CYCLES 400
METHOD   B3LYP
BASIS   6-31G**
PDB_PRINT 2
SCF_CONVERGENCE 6
THRESH 14
SCF_PRINT 1
$end
$molecule
0 3
Br 1.412914 2.604326 -1.263739
Br 0.227811 1.591994 1.228041
C -0.590059 -0.866108 -0.395302
C 0.525565 -0.787129 0.406427
C -1.910384 -1.397617 0.036097
H -0.515932 -0.469964 -1.406396
H 0.527350 -1.235704 1.395209
H 1.486166 -0.515345 -0.014401
H -1.898351 -1.752348 1.069358
H -2.684640 -0.626663 -0.065564
H -2.215646 -2.224447 -0.618924
$end
$scan
stre 1 3 4.000000 4.001000 0.100000
$end
--------------------------------------------------------------

   14   -5265.6356231494      4.81e-07  Convergence criterion met
 Total energy in the final basis set =    -5265.6356231494
   14   -5265.6356170345      4.87e-07  Convergence criterion met
 Total energy in the final basis set =    -5265.6356170345
   14   -5265.6356409234      4.90e-07  Convergence criterion met
 Total energy in the final basis set =    -5265.6356409234
   14   -5265.6356523995      4.82e-07  Convergence criterion met
 Total energy in the final basis set =    -5265.6356523995
   14   -5265.6356565365      4.78e-07  Convergence criterion met
 Total energy in the final basis set =    -5265.6356565365
   14   -5265.6356621685      5.43e-07  Convergence criterion met
 Total energy in the final basis set =    -5265.6356621685
   14   -5265.6356654142      5.57e-07  Convergence criterion met
 Total energy in the final basis set =    -5265.6356654142
   14   -5265.6356678742      5.41e-07  Convergence criterion met
 Total energy in the final basis set =    -5265.6356678742

             Standard Nuclear Orientation (Angstroms)
    I     Atom           X                Y                Z
 ----------------------------------------------------------------
    1      Br      1.3294641164     2.5395070458    -1.3131709608
    2      Br      0.2478250750     1.5870787944     1.2552968762
    3      C      -0.5794494886    -0.8515031059    -0.3873743208
    4      C       0.5310950851    -0.7895200006     0.4231905805
    5      C      -1.9038639192    -1.3866283511     0.0259782484
    6      H      -0.4968727681    -0.4360471423    -1.3899617229
    7      H       0.5232906396    -1.2516450853     1.4057374983
    8      H       1.4956382192    -0.5179886108     0.0116735020
    9      H      -1.8992575930    -1.7624583626     1.0518415128
   10      H      -2.6747875951    -0.6109442554    -0.0648963436
   11      H      -2.2082877713    -2.1988559262    -0.6475088699
 ----------------------------------------------------------------

   14   -5265.6356686364      5.12e-07  Convergence criterion met
 Total energy in the final basis set =    -5265.6356686364

                    Orbital Energies (a.u.)
 --------------------------------------------------------------

 Alpha MOs
 -- Occupied --
*******-482.829 -62.529 -62.487 -56.350 -56.348 -56.346 -56.310
-56.304 -56.304 -10.264 -10.256 -10.223  -8.716  -8.674  -6.544
 -6.538  -6.532  -6.506  -6.491  -6.490  -2.638  -2.637  -2.633
 -2.628  -2.627  -2.598  -2.594  -2.594  -2.583  -2.583  -0.849
 -0.780  -0.734  -0.726  -0.610  -0.518  -0.474  -0.459  -0.417
 -0.401  -0.374  -0.352  -0.306  -0.271  -0.262  -0.261  -0.253

 Beta MOs
 -- Occupied --
*******-482.827 -62.527 -62.486 -56.346 -56.345 -56.345 -56.305
-56.303 -56.303 -10.258 -10.255 -10.224  -8.712  -8.671  -6.537
 -6.533  -6.530  -6.498  -6.489  -6.489  -2.632  -2.632  -2.629
 -2.625  -2.625  -2.592  -2.590  -2.589  -2.582  -2.582  -0.835
 -0.752  -0.724  -0.694  -0.602  -0.514  -0.471  -0.448  -0.414
 -0.399  -0.337  -0.308  -0.294  -0.256  -0.251

          Ground-State Mulliken Net Atomic Charges

     Atom                 Charge (a.u.)    Spin (a.u.)
  --------------------------------------------------------
      1 Br                   -0.259913       0.721938
      2 Br                   -0.091954       0.809861
      3 C                     0.026835       0.451755
      4 C                    -0.251486       0.024170
      5 C                    -0.363357      -0.031702
      6 H                     0.158591      -0.019867
      7 H                     0.154614      -0.001295
      8 H                     0.187631       0.001265
      9 H                     0.132253       0.000364
     10 H                     0.160629       0.024273
     11 H                     0.146156       0.019238
  --------------------------------------------------------
  Sum of atomic charges =    -0.000000

                    Cartesian Multipole Moments
 -----------------------------------------------------------------
    Charge (ESU x 10^10)
                -0.0000
    Dipole Moment (Debye)
         X      -2.4471      Y      -5.5054      Z       0.8082
       Tot       6.0787
    Quadrupole Moments (Debye-Ang)
        XX     -55.7431     XY      -2.5574     YY     -63.7196
        XZ       2.1008     YZ       2.3218     ZZ     -57.2660

 Final energy is   -5265.63566863635
 **  OPTIMIZATION CONVERGED  **
 Total job time:  57.87s(wall), 667.64s(cpu)
        *  Thank you very much for using Q-Chem.  Have a nice day.  *
