 Q-Chem 5.1, Q-Chem, Inc., Pleasanton, CA (2018)
 Q-Chem 5.1.1 for Intel X86 EM64T Linux

User input:
--------------------------------------------------------------

$comment
potential surface scanner
$end

$rem
JOBTYPE  PES_SCAN
UNRESTRICTED TRUE
SYM_IGNORE  TRUE
GEOM_OPT_MAX_CYCLES 400
SCF_MAX_CYCLES 400
METHOD   B3LYP
BASIS   6-31G**
PDB_PRINT 2
SCF_CONVERGENCE 6
THRESH 14
SCF_PRINT 1
$end
$molecule
0 3
Br -0.212142 2.266516 -1.337311
Br 0.609016 1.435575 1.382302
C -0.363472 -0.890223 -0.387522
C 0.644743 -0.935335 0.557664
C -1.799099 -1.137927 -0.097847
H -0.104868 -0.619476 -1.406066
H 0.448337 -1.333770 1.547999
H 1.682953 -0.876823 0.251450
H -1.976897 -1.402740 0.946941
H -2.384105 -0.243068 -0.344925
H -2.179673 -1.941731 -0.741879
$end
$scan
stre 1 3 3.200000 3.201000 0.100000
$end
--------------------------------------------------------------

   13   -5265.6349161241      5.87e-07  Convergence criterion met
 Total energy in the final basis set =    -5265.6349161241
   13   -5265.6338015473      5.72e-07  Convergence criterion met
 Total energy in the final basis set =    -5265.6338015473
   13   -5265.6339633494      6.14e-07  Convergence criterion met
 Total energy in the final basis set =    -5265.6339633494
   13   -5265.6340213001      6.58e-07  Convergence criterion met
 Total energy in the final basis set =    -5265.6340213001
   13   -5265.6340290564      6.63e-07  Convergence criterion met
 Total energy in the final basis set =    -5265.6340290564
   13   -5265.6340334896      6.71e-07  Convergence criterion met
 Total energy in the final basis set =    -5265.6340334896

             Standard Nuclear Orientation (Angstroms)
    I     Atom           X                Y                Z
 ----------------------------------------------------------------
    1      Br     -0.2836103016     2.1933104398    -1.2917331705
    2      Br      0.6414956922     1.4286511055     1.4075174228
    3      C      -0.3573709649    -0.8778892569    -0.3960245505
    4      C       0.6473721640    -0.9262425522     0.5554369536
    5      C      -1.7949411430    -1.1184271103    -0.1082600661
    6      H      -0.0900673012    -0.6444019152    -1.4205114533
    7      H       0.4416394361    -1.3233750628     1.5442390174
    8      H       1.6871986986    -0.8818218487     0.2526856118
    9      H      -1.9770901100    -1.3595359810     0.9414699187
   10      H      -2.3799878964    -0.2308846303    -0.3787269664
   11      H      -2.1698452737    -1.9383851878    -0.7352867176
 ----------------------------------------------------------------

   13   -5265.6340339935      6.71e-07  Convergence criterion met
 Total energy in the final basis set =    -5265.6340339935

                    Orbital Energies (a.u.)
 --------------------------------------------------------------

 Alpha MOs
 -- Occupied --
*******-482.831 -62.526 -62.488 -56.347 -56.346 -56.343 -56.311
-56.305 -56.305 -10.263 -10.258 -10.216  -8.713  -8.675  -6.541
 -6.536  -6.529  -6.507  -6.492  -6.492  -2.635  -2.635  -2.629
 -2.626  -2.625  -2.599  -2.596  -2.595  -2.584  -2.584  -0.847
 -0.777  -0.734  -0.725  -0.608  -0.516  -0.471  -0.453  -0.412
 -0.399  -0.373  -0.351  -0.303  -0.270  -0.264  -0.260  -0.254

 Beta MOs
 -- Occupied --
*******-482.829 -62.525 -62.487 -56.344 -56.343 -56.342 -56.306
-56.305 -56.305 -10.256 -10.256 -10.216  -8.710  -8.672  -6.534
 -6.531  -6.527  -6.499  -6.491  -6.490  -2.630  -2.629  -2.626
 -2.623  -2.622  -2.593  -2.591  -2.591  -2.583  -2.583  -0.832
 -0.749  -0.721  -0.698  -0.599  -0.512  -0.468  -0.442  -0.409
 -0.397  -0.337  -0.307  -0.291  -0.257  -0.254

          Ground-State Mulliken Net Atomic Charges

     Atom                 Charge (a.u.)    Spin (a.u.)
  --------------------------------------------------------
      1 Br                   -0.269823       0.690905
      2 Br                   -0.095105       0.791330
      3 C                     0.036938       0.482059
      4 C                    -0.252328       0.045648
      5 C                    -0.364425      -0.033954
      6 H                     0.162820      -0.020822
      7 H                     0.161014      -0.000799
      8 H                     0.171653      -0.001920
      9 H                     0.130046       0.000462
     10 H                     0.177550       0.026969
     11 H                     0.141662       0.020122
  --------------------------------------------------------
  Sum of atomic charges =    -0.000000

                    Cartesian Multipole Moments
 -----------------------------------------------------------------
    Charge (ESU x 10^10)
                -0.0000
    Dipole Moment (Debye)
         X      -0.5410      Y      -5.2315      Z       0.6585
       Tot       5.3005
    Quadrupole Moments (Debye-Ang)
        XX     -54.1788     XY       0.7339     YY     -62.1030
        XZ       0.4430     YZ       1.9539     ZZ     -57.1328

 Final energy is   -5265.63403399347
 **  OPTIMIZATION CONVERGED  **
 Total job time:  44.41s(wall), 516.09s(cpu)
        *  Thank you very much for using Q-Chem.  Have a nice day.  *
