 Q-Chem 5.1, Q-Chem, Inc., Pleasanton, CA (2018)
 Q-Chem 5.1.1 for Intel X86 EM64T Linux

User input:
--------------------------------------------------------------

$comment
potential surface scanner
$end

$rem
JOBTYPE  PES_SCAN
UNRESTRICTED TRUE
SYM_IGNORE  TRUE
GEOM_OPT_MAX_CYCLES 400
SCF_MAX_CYCLES 400
METHOD   B3LYP
BASIS   6-31G**
PDB_PRINT 2
SCF_CONVERGENCE 6
THRESH 14
SCF_PRINT 1
$end
$molecule
0 3
Br 2.704447 2.545364 0.427796
Br -0.160567 1.870417 0.461345
C -0.825500 -0.994977 -0.579904
C 0.386638 -0.551744 -0.100908
C -1.915720 -1.557142 0.261852
H -1.029552 -0.879615 -1.643391
H 0.681458 -0.751892 0.923693
H 1.174524 -0.243318 -0.778057
H -1.634029 -1.622845 1.315155
H -2.818085 -0.936992 0.177729
H -2.198816 -2.556258 -0.094505
$end
$scan
stre 1 3 5.000000 5.001000 0.100000
$end
--------------------------------------------------------------

   14   -5265.6340957391      6.86e-07  Convergence criterion met
 Total energy in the final basis set =    -5265.6340957391
   14   -5265.6340249956      5.17e-07  Convergence criterion met
 Total energy in the final basis set =    -5265.6340249956
   14   -5265.6342326309      5.11e-07  Convergence criterion met
 Total energy in the final basis set =    -5265.6342326309
   14   -5265.6342858859      6.39e-07  Convergence criterion met
 Total energy in the final basis set =    -5265.6342858859
   14   -5265.6342894633      6.69e-07  Convergence criterion met
 Total energy in the final basis set =    -5265.6342894633
   14   -5265.6342930022      6.76e-07  Convergence criterion met
 Total energy in the final basis set =    -5265.6342930022

             Standard Nuclear Orientation (Angstroms)
    I     Atom           X                Y                Z
 ----------------------------------------------------------------
    1      Br      2.6815375608     2.4575570835     0.3835875403
    2      Br     -0.1967440454     1.8728354444     0.4774370754
    3      C      -0.8171058635    -0.9832746741    -0.5756691784
    4      C       0.3903440359    -0.5354639947    -0.0895339506
    5      C      -1.9082960014    -1.5549601195     0.2585040670
    6      H      -1.0160644396    -0.8655747795    -1.6398535347
    7      H       0.6821813325    -0.7371525914     0.9356220050
    8      H       1.1778143269    -0.2154646561    -0.7615863210
    9      H      -1.6319869125    -1.6214148637     1.3131915013
   10      H      -2.8144664168    -0.9409294773     0.1709386103
   11      H      -2.1824155769    -2.5551593714    -0.1018328146
 ----------------------------------------------------------------

   14   -5265.6342938059      6.76e-07  Convergence criterion met
 Total energy in the final basis set =    -5265.6342938059

                    Orbital Energies (a.u.)
 --------------------------------------------------------------

 Alpha MOs
 -- Occupied --
*******-482.829 -62.528 -62.487 -56.350 -56.347 -56.345 -56.310
-56.304 -56.304 -10.266 -10.255 -10.225  -8.715  -8.674  -6.544
 -6.537  -6.531  -6.506  -6.491  -6.490  -2.638  -2.637  -2.632
 -2.627  -2.626  -2.598  -2.595  -2.594  -2.583  -2.583  -0.849
 -0.780  -0.735  -0.726  -0.611  -0.519  -0.474  -0.460  -0.418
 -0.402  -0.373  -0.352  -0.304  -0.275  -0.262  -0.261  -0.252

 Beta MOs
 -- Occupied --
*******-482.827 -62.527 -62.486 -56.346 -56.345 -56.344 -56.305
-56.303 -56.303 -10.260 -10.254 -10.225  -8.712  -8.671  -6.537
 -6.533  -6.529  -6.498  -6.489  -6.489  -2.632  -2.631  -2.628
 -2.624  -2.624  -2.592  -2.590  -2.589  -2.582  -2.582  -0.836
 -0.752  -0.725  -0.694  -0.604  -0.515  -0.471  -0.450  -0.416
 -0.400  -0.336  -0.308  -0.292  -0.255  -0.250

          Ground-State Mulliken Net Atomic Charges

     Atom                 Charge (a.u.)    Spin (a.u.)
  --------------------------------------------------------
      1 Br                   -0.244387       0.738285
      2 Br                   -0.098120       0.803743
      3 C                     0.020752       0.462478
      4 C                    -0.248523       0.001386
      5 C                    -0.361185      -0.031883
      6 H                     0.137990      -0.020380
      7 H                     0.169423       0.000975
      8 H                     0.184960       0.001066
      9 H                     0.138389       0.000403
     10 H                     0.155746       0.024060
     11 H                     0.144955       0.019867
  --------------------------------------------------------
  Sum of atomic charges =    -0.000000

                    Cartesian Multipole Moments
 -----------------------------------------------------------------
    Charge (ESU x 10^10)
                -0.0000
    Dipole Moment (Debye)
         X      -3.8828      Y      -5.4318      Z      -1.0692
       Tot       6.7620
    Quadrupole Moments (Debye-Ang)
        XX     -60.1212     XY      -4.7557     YY     -63.3910
        XZ      -0.8615     YZ      -1.1395     ZZ     -56.0730

 Final energy is   -5265.63429380594
 **  OPTIMIZATION CONVERGED  **
 Total job time:  43.15s(wall), 502.03s(cpu)
        *  Thank you very much for using Q-Chem.  Have a nice day.  *
