 Q-Chem 5.1, Q-Chem, Inc., Pleasanton, CA (2018)
 Q-Chem 5.1.1 for Intel X86 EM64T Linux

User input:
--------------------------------------------------------------

$comment
potential surface scanner
$end

$rem
JOBTYPE  PES_SCAN
UNRESTRICTED TRUE
SYM_IGNORE  TRUE
GEOM_OPT_MAX_CYCLES 400
SCF_MAX_CYCLES 400
METHOD   B3LYP
BASIS   6-31G**
PDB_PRINT 2
SCF_CONVERGENCE 6
THRESH 14
SCF_PRINT 1
$end
$molecule
0 1
Br -0.621000 1.744900 0.138600
Br 2.339300 0.022500 -0.135100
C -0.519000 -0.151000 -0.364100
C 0.644500 -0.814800 0.353000
C -1.843800 -0.801500 0.007700
H -0.380000 -0.157800 -1.450100
H 0.570800 -0.733000 1.441800
H 0.738000 -1.869500 0.078300
H -2.034600 -0.746700 1.085500
H -2.681600 -0.314200 -0.503400
H -1.847800 -1.857900 -0.281400
$end
$scan
stre 1 3 1.300000 1.301000 0.100000
$end
--------------------------------------------------------------

    9   -5265.7112865010      6.36e-07  Convergence criterion met
 Total energy in the final basis set =    -5265.7112865010
   10   -5265.7006859870      3.75e-07  Convergence criterion met
 Total energy in the final basis set =    -5265.7006859870
   10   -5265.6667426268      3.76e-07  Convergence criterion met
 Total energy in the final basis set =    -5265.6667426268
   10   -5265.6053072919      3.81e-07  Convergence criterion met
 Total energy in the final basis set =    -5265.6053072919
   10   -5265.5129903249      3.90e-07  Convergence criterion met
 Total energy in the final basis set =    -5265.5129903249
   10   -5265.3648199292      4.32e-07  Convergence criterion met
 Total energy in the final basis set =    -5265.3648199292
   10   -5265.2913495728      4.77e-07  Convergence criterion met
 Total energy in the final basis set =    -5265.2913495728
   10   -5265.2861606615      4.94e-07  Convergence criterion met
   10   -5265.2870544872      5.53e-07  Convergence criterion met
 Total energy in the final basis set =    -5265.2870544872
   10   -5265.2870616733      5.53e-07  Convergence criterion met
 Total energy in the final basis set =    -5265.2870616733
   10   -5265.2870671021      5.54e-07  Convergence criterion met
 Total energy in the final basis set =    -5265.2870671021
   10   -5265.2870701147      5.53e-07  Convergence criterion met
 Total energy in the final basis set =    -5265.2870701147
   10   -5265.2870719100      5.53e-07  Convergence criterion met
 Total energy in the final basis set =    -5265.2870719100
   10   -5265.2870731689      5.53e-07  Convergence criterion met
 Total energy in the final basis set =    -5265.2870731689

             Standard Nuclear Orientation (Angstroms)
    I     Atom           X                Y                Z
 ----------------------------------------------------------------
    1      Br     -0.6354447606     1.4190673961    -0.0030326062
    2      Br      2.4166924374    -0.1092648021    -0.1179233622
    3      C      -0.5534247072     0.1543912582    -0.2926306031
    4      C       0.6119309477    -0.7499425908     0.3568499506
    5      C      -1.8191990066    -0.7926743723     0.0244008400
    6      H      -0.3918439598    -0.1491972978    -1.3611819521
    7      H       0.5559408091    -0.6988528525     1.4474774993
    8      H       0.5645267303    -1.7804903597     0.0125383566
    9      H      -2.0155253891    -0.7840227890     1.1033354813
   10      H      -2.6911843844    -0.3667731943    -0.4824345621
   11      H      -1.6776687168    -1.8212403957    -0.3165990421
 ----------------------------------------------------------------

   10   -5265.2870738265      5.53e-07  Convergence criterion met
 Total energy in the final basis set =    -5265.2870738265

                    Orbital Energies (a.u.)
 --------------------------------------------------------------

 Alpha MOs
 -- Occupied --
*******-482.851 -62.538 -62.509 -56.356 -56.355 -56.354 -56.330
-56.327 -56.327 -10.251 -10.248 -10.200  -8.739  -8.696  -6.573
 -6.556  -6.555  -6.526  -6.514  -6.514  -2.673  -2.661  -2.661
 -2.648  -2.648  -2.620  -2.616  -2.616  -2.606  -2.606  -1.017
 -0.805  -0.740  -0.675  -0.590  -0.523  -0.496  -0.461  -0.431
 -0.413  -0.402  -0.367  -0.288  -0.278  -0.251  -0.249

 Beta MOs
 -- Occupied --
*******-482.851 -62.538 -62.509 -56.356 -56.355 -56.354 -56.330
-56.327 -56.327 -10.251 -10.248 -10.200  -8.739  -8.696  -6.573
 -6.556  -6.555  -6.526  -6.514  -6.514  -2.673  -2.661  -2.661
 -2.648  -2.648  -2.620  -2.616  -2.616  -2.606  -2.606  -1.017
 -0.805  -0.740  -0.675  -0.590  -0.523  -0.496  -0.461  -0.431
 -0.413  -0.402  -0.367  -0.288  -0.278  -0.251  -0.249

          Ground-State Mulliken Net Atomic Charges

     Atom                 Charge (a.u.)    Spin (a.u.)
  --------------------------------------------------------
      1 Br                    0.118886      -0.000000
      2 Br                   -0.118228       0.000000
      3 C                    -0.117501       0.000000
      4 C                    -0.280817       0.000000
      5 C                    -0.357808       0.000000
      6 H                     0.102466      -0.000000
      7 H                     0.150628      -0.000000
      8 H                     0.150452       0.000000
      9 H                     0.118620      -0.000000
     10 H                     0.121814      -0.000000
     11 H                     0.111488      -0.000000
  --------------------------------------------------------
  Sum of atomic charges =    -0.000000

                    Cartesian Multipole Moments
 -----------------------------------------------------------------
    Charge (ESU x 10^10)
                -0.0000
    Dipole Moment (Debye)
         X      -2.1808      Y      -1.3915      Z       0.0847
       Tot       2.5883
    Quadrupole Moments (Debye-Ang)
        XX     -59.6891     XY       0.9868     YY     -55.8675
        XZ       0.5048     YZ      -0.4814     ZZ     -55.3011

 Final energy is   -5265.28707382646
 **  OPTIMIZATION CONVERGED  **
 Total job time:  137.74s(wall), 1595.04s(cpu)
        *  Thank you very much for using Q-Chem.  Have a nice day.  *
