 Q-Chem 5.1, Q-Chem, Inc., Pleasanton, CA (2018)
 Q-Chem 5.1.1 for Intel X86 EM64T Linux

User input:
--------------------------------------------------------------

$comment
potential surface scanner
$end

$rem
JOBTYPE  PES_SCAN
UNRESTRICTED TRUE
SYM_IGNORE  TRUE
GEOM_OPT_MAX_CYCLES 400
SCF_MAX_CYCLES 400
METHOD   B3LYP
BASIS   6-31G**
PDB_PRINT 2
SCF_CONVERGENCE 6
THRESH 14
SCF_PRINT 1
$end
$molecule
0 3
Br 2.681538 2.457557 0.383588
Br -0.196744 1.872835 0.477437
C -0.817106 -0.983275 -0.575669
C 0.390344 -0.535464 -0.089534
C -1.908296 -1.554960 0.258504
H -1.016064 -0.865575 -1.639854
H 0.682181 -0.737153 0.935622
H 1.177814 -0.215465 -0.761586
H -1.631987 -1.621415 1.313192
H -2.814466 -0.940929 0.170939
H -2.182416 -2.555159 -0.101833
$end
$scan
stre 1 3 4.900000 4.901000 0.100000
$end
--------------------------------------------------------------

   14   -5265.6342938049      6.76e-07  Convergence criterion met
 Total energy in the final basis set =    -5265.6342938049
   14   -5265.6341038933      4.91e-07  Convergence criterion met
 Total energy in the final basis set =    -5265.6341038933
   14   -5265.6342981559      4.99e-07  Convergence criterion met
 Total energy in the final basis set =    -5265.6342981559
   14   -5265.6343465349      6.14e-07  Convergence criterion met
 Total energy in the final basis set =    -5265.6343465349
   14   -5265.6343503788      6.45e-07  Convergence criterion met
 Total energy in the final basis set =    -5265.6343503788
   14   -5265.6343552304      6.69e-07  Convergence criterion met
 Total energy in the final basis set =    -5265.6343552304
   14   -5265.6343572506      6.73e-07  Convergence criterion met
 Total energy in the final basis set =    -5265.6343572506
   14   -5265.6343606475      6.77e-07  Convergence criterion met
   14   -5265.6346456200      7.17e-07  Convergence criterion met
 Total energy in the final basis set =    -5265.6346456200
   14   -5265.6346484288      7.18e-07  Convergence criterion met
 Total energy in the final basis set =    -5265.6346484288
   14   -5265.6346521619      7.19e-07  Convergence criterion met
 Total energy in the final basis set =    -5265.6346521619
   14   -5265.6346555363      7.19e-07  Convergence criterion met
 Total energy in the final basis set =    -5265.6346555363
   14   -5265.6346587589      7.17e-07  Convergence criterion met
 Total energy in the final basis set =    -5265.6346587589
   14   -5265.6346603752      7.15e-07  Convergence criterion met
 Total energy in the final basis set =    -5265.6346603752

             Standard Nuclear Orientation (Angstroms)
    I     Atom           X                Y                Z
 ----------------------------------------------------------------
    1      Br      2.5471628140     2.6500586026    -0.2760945843
    2      Br     -0.0920210535     1.7960462718     0.7615034211
    3      C      -0.7690212742    -0.9496550747    -0.5105872464
    4      C       0.4122772974    -0.6003542663     0.1059902656
    5      C      -1.9402339123    -1.5553772223     0.1781842323
    6      H      -0.8800373212    -0.7201988361    -1.5692088525
    7      H       0.6078429963    -0.9053855985     1.1286746736
    8      H       1.2632297240    -0.2590650622    -0.4716051965
    9      H      -1.7374909237    -1.7706570473     1.2298805133
   10      H      -2.8052257112    -0.8812362160     0.1187417323
   11      H      -2.2416846356    -2.4831785511    -0.3246729586
 ----------------------------------------------------------------

   14   -5265.6346609722      7.14e-07  Convergence criterion met
 Total energy in the final basis set =    -5265.6346609722

                    Orbital Energies (a.u.)
 --------------------------------------------------------------

 Alpha MOs
 -- Occupied --
*******-482.830 -62.528 -62.487 -56.350 -56.347 -56.345 -56.310
-56.305 -56.305 -10.266 -10.256 -10.225  -8.715  -8.674  -6.544
 -6.537  -6.531  -6.507  -6.491  -6.491  -2.638  -2.637  -2.632
 -2.627  -2.626  -2.599  -2.595  -2.594  -2.583  -2.583  -0.849
 -0.779  -0.735  -0.726  -0.611  -0.519  -0.474  -0.460  -0.419
 -0.403  -0.373  -0.350  -0.304  -0.274  -0.262  -0.261  -0.253

 Beta MOs
 -- Occupied --
*******-482.828 -62.527 -62.486 -56.346 -56.345 -56.344 -56.306
-56.304 -56.304 -10.260 -10.255 -10.226  -8.711  -8.671  -6.537
 -6.532  -6.529  -6.498  -6.490  -6.489  -2.632  -2.631  -2.628
 -2.624  -2.624  -2.593  -2.590  -2.590  -2.582  -2.582  -0.836
 -0.752  -0.724  -0.694  -0.604  -0.515  -0.471  -0.450  -0.416
 -0.400  -0.336  -0.306  -0.292  -0.255  -0.250

          Ground-State Mulliken Net Atomic Charges

     Atom                 Charge (a.u.)    Spin (a.u.)
  --------------------------------------------------------
      1 Br                   -0.241910       0.739710
      2 Br                   -0.098534       0.798690
      3 C                     0.022830       0.464741
      4 C                    -0.252391       0.001981
      5 C                    -0.362033      -0.032488
      6 H                     0.140953      -0.020451
      7 H                     0.162415       0.000300
      8 H                     0.190188       0.002281
      9 H                     0.135743       0.000480
     10 H                     0.157673       0.025623
     11 H                     0.145067       0.019134
  --------------------------------------------------------
  Sum of atomic charges =    -0.000000

                    Cartesian Multipole Moments
 -----------------------------------------------------------------
    Charge (ESU x 10^10)
                -0.0000
    Dipole Moment (Debye)
         X      -3.7411      Y      -5.6061      Z      -0.3594
       Tot       6.7493
    Quadrupole Moments (Debye-Ang)
        XX     -59.5153     XY      -4.9542     YY     -64.2651
        XZ       0.6892     YZ       0.1651     ZZ     -56.0040

 Final energy is   -5265.63466097220
 **  OPTIMIZATION CONVERGED  **
 Total job time:  154.30s(wall), 1803.99s(cpu)
        *  Thank you very much for using Q-Chem.  Have a nice day.  *
