 Q-Chem 5.1, Q-Chem, Inc., Pleasanton, CA (2018)
 Q-Chem 5.1.1 for Intel X86 EM64T Linux

User input:
--------------------------------------------------------------

$comment
potential surface scanner
$end

$rem
JOBTYPE  PES_SCAN
UNRESTRICTED TRUE
SYM_IGNORE  TRUE
GEOM_OPT_MAX_CYCLES 400
SCF_MAX_CYCLES 400
METHOD   B3LYP
BASIS   6-31G**
PDB_PRINT 2
SCF_CONVERGENCE 6
THRESH 14
SCF_PRINT 1
$end
$molecule
0 3
Br -0.330950 1.574110 -0.614931
Br 1.066813 1.996819 1.983489
C -0.413330 -0.723733 -0.558968
C 0.615468 -1.039400 0.351026
C -1.848169 -1.040914 -0.219102
H -0.153999 -0.805682 -1.612311
H 0.400116 -1.186710 1.403809
H 1.655272 -1.031294 0.045069
H -2.081950 -0.771741 0.813596
H -2.544261 -0.528674 -0.884992
H -2.000216 -2.121788 -0.335877
$end
$scan
stre 1 3 2.200000 2.201000 0.100000
$end
--------------------------------------------------------------

   13   -5265.6279038496      3.14e-07  Convergence criterion met
 Total energy in the final basis set =    -5265.6279038496
   12   -5265.6261480106      6.31e-07  Convergence criterion met
 Total energy in the final basis set =    -5265.6261480106
   12   -5265.6265842578      6.36e-07  Convergence criterion met
 Total energy in the final basis set =    -5265.6265842578
   12   -5265.6269146393      6.43e-07  Convergence criterion met
 Total energy in the final basis set =    -5265.6269146393
   12   -5265.6269237463      6.41e-07  Convergence criterion met
 Total energy in the final basis set =    -5265.6269237463
   12   -5265.6269273100      6.39e-07  Convergence criterion met
 Total energy in the final basis set =    -5265.6269273100
   12   -5265.6269289543      6.40e-07  Convergence criterion met
 Total energy in the final basis set =    -5265.6269289543
   12   -5265.6269313792      6.41e-07  Convergence criterion met
   12   -5265.6277979925      4.72e-07  Convergence criterion met
 Total energy in the final basis set =    -5265.6277979925
   12   -5265.6278512584      4.65e-07  Convergence criterion met
 Total energy in the final basis set =    -5265.6278512584
   12   -5265.6278745936      4.63e-07  Convergence criterion met
 Total energy in the final basis set =    -5265.6278745936
   12   -5265.6278815540      4.66e-07  Convergence criterion met
 Total energy in the final basis set =    -5265.6278815540
   12   -5265.6278831646      4.69e-07  Convergence criterion met
 Total energy in the final basis set =    -5265.6278831646
   12   -5265.6278847661      4.74e-07  Convergence criterion met
 Total energy in the final basis set =    -5265.6278847661

             Standard Nuclear Orientation (Angstroms)
    I     Atom           X                Y                Z
 ----------------------------------------------------------------
    1      Br      0.0368038234     1.4397901822    -0.7687176867
    2      Br     -0.2419025042     1.9495198218     2.1547109454
    3      C      -0.3390275193    -0.7224289116    -0.6152269437
    4      C       0.7577395663    -1.2127710002     0.1528241987
    5      C      -1.7365530525    -0.8519443951    -0.0530761693
    6      H      -0.2642618501    -0.9125881992    -1.6851269160
    7      H       0.6918959790    -1.2582863003     1.2346840214
    8      H       1.7183462033    -1.4057406306    -0.3114398639
    9      H      -1.7836934543    -0.4746704562     0.9711499491
   10      H      -2.4658104746    -0.3153262455    -0.6621789205
   11      H      -2.0087427172    -1.9145608653    -0.0467946145
 ----------------------------------------------------------------

   12   -5265.6278850872      4.76e-07  Convergence criterion met
 Total energy in the final basis set =    -5265.6278850872

                    Orbital Energies (a.u.)
 --------------------------------------------------------------

 Alpha MOs
 -- Occupied --
*******-482.836 -62.535 -62.493 -56.355 -56.354 -56.352 -56.316
-56.310 -56.310 -10.279 -10.243 -10.210  -8.722  -8.680  -6.550
 -6.544  -6.538  -6.513  -6.497  -6.496  -2.644  -2.643  -2.639
 -2.634  -2.633  -2.605  -2.601  -2.600  -2.589  -2.589  -0.853
 -0.775  -0.734  -0.724  -0.608  -0.509  -0.463  -0.456  -0.406
 -0.397  -0.377  -0.354  -0.310  -0.273  -0.268  -0.261  -0.253

 Beta MOs
 -- Occupied --
*******-482.834 -62.533 -62.492 -56.353 -56.351 -56.351 -56.312
-56.310 -56.310 -10.279 -10.232 -10.210  -8.719  -8.677  -6.545
 -6.539  -6.536  -6.504  -6.495  -6.495  -2.640  -2.639  -2.636
 -2.631  -2.631  -2.599  -2.596  -2.596  -2.588  -2.588  -0.841
 -0.752  -0.710  -0.702  -0.599  -0.504  -0.458  -0.449  -0.402
 -0.394  -0.355  -0.313  -0.301  -0.262  -0.257

          Ground-State Mulliken Net Atomic Charges

     Atom                 Charge (a.u.)    Spin (a.u.)
  --------------------------------------------------------
      1 Br                   -0.035002       0.565133
      2 Br                   -0.239743       0.735594
      3 C                    -0.141236      -0.079279
      4 C                    -0.153711       0.840790
      5 C                    -0.326424       0.006737
      6 H                     0.165263       0.006244
      7 H                     0.156702      -0.036323
      8 H                     0.139554      -0.036633
      9 H                     0.163792      -0.001512
     10 H                     0.139291       0.002237
     11 H                     0.131513      -0.002988
  --------------------------------------------------------
  Sum of atomic charges =    -0.000000

                    Cartesian Multipole Moments
 -----------------------------------------------------------------
    Charge (ESU x 10^10)
                -0.0000
    Dipole Moment (Debye)
         X      -0.1780      Y      -4.3172      Z      -2.4336
       Tot       4.9591
    Quadrupole Moments (Debye-Ang)
        XX     -54.8258     XY       0.4084     YY     -60.2642
        XZ       0.6672     YZ      -3.6290     ZZ     -59.0462

 Final energy is   -5265.62788508716
 **  OPTIMIZATION CONVERGED  **
 Total job time:  145.32s(wall), 1689.01s(cpu)
        *  Thank you very much for using Q-Chem.  Have a nice day.  *
