 Q-Chem 5.1, Q-Chem, Inc., Pleasanton, CA (2018)
 Q-Chem 5.1.1 for Intel X86 EM64T Linux

User input:
--------------------------------------------------------------

$comment
potential surface scanner
$end

$rem
JOBTYPE  PES_SCAN
UNRESTRICTED TRUE
SYM_IGNORE  TRUE
GEOM_OPT_MAX_CYCLES 400
SCF_MAX_CYCLES 400
METHOD   B3LYP
BASIS   6-31G**
PDB_PRINT 2
SCF_CONVERGENCE 6
THRESH 14
SCF_PRINT 1
$end
$molecule
0 3
Br -0.527873 1.931874 -0.813213
Br 0.990298 1.410796 1.606368
C -0.370774 -0.742858 -0.479851
C 0.627378 -0.892719 0.483417
C -1.806689 -1.047310 -0.192709
H -0.065784 -0.684641 -1.518821
H 0.376406 -1.284806 1.462483
H 1.669245 -0.925982 0.190876
H -2.071910 -0.808724 0.840455
H -2.478953 -0.510718 -0.863968
H -1.976549 -2.123917 -0.344230
$end
$scan
stre 1 3 2.600000 2.601000 0.100000
$end
--------------------------------------------------------------

   13   -5265.6273026297      5.45e-07  Convergence criterion met
 Total energy in the final basis set =    -5265.6273026297
   12   -5265.6260165575      8.32e-07  Convergence criterion met
 Total energy in the final basis set =    -5265.6260165575
   12   -5265.6261157627      7.29e-07  Convergence criterion met
 Total energy in the final basis set =    -5265.6261157627
   12   -5265.6262782664      4.51e-07  Convergence criterion met
 Total energy in the final basis set =    -5265.6262782664
   12   -5265.6263483193      3.91e-07  Convergence criterion met
 Total energy in the final basis set =    -5265.6263483193
   12   -5265.6264463234      8.74e-07  Convergence criterion met
 Total energy in the final basis set =    -5265.6264463234
   13   -5265.6265665726      6.35e-07  Convergence criterion met
 Total energy in the final basis set =    -5265.6265665726
   13   -5265.6267756269      8.13e-07  Convergence criterion met
   14   -5265.6302287627      5.32e-07  Convergence criterion met
 Total energy in the final basis set =    -5265.6302287627
   14   -5265.6302807527      5.38e-07  Convergence criterion met
 Total energy in the final basis set =    -5265.6302807527
   14   -5265.6303266635      5.44e-07  Convergence criterion met
 Total energy in the final basis set =    -5265.6303266635
   14   -5265.6303574847      5.47e-07  Convergence criterion met
 Total energy in the final basis set =    -5265.6303574847
   14   -5265.6303683400      5.45e-07  Convergence criterion met
 Total energy in the final basis set =    -5265.6303683400
   14   -5265.6303708455      5.42e-07  Convergence criterion met
 Total energy in the final basis set =    -5265.6303708455

             Standard Nuclear Orientation (Angstroms)
    I     Atom           X                Y                Z
 ----------------------------------------------------------------
    1      Br     -0.2591572881     1.6971654673    -0.4526269497
    2      Br      1.4198082439     2.1630596948     1.9521761458
    3      C      -0.4435326945    -0.8941088828    -0.5589521846
    4      C       0.5535178621    -0.9674317765     0.3815085255
    5      C      -1.8894630338    -1.1540070579    -0.2688383316
    6      H      -0.1528870754    -0.8716776053    -1.6072762685
    7      H       0.3255524272    -1.0452165279     1.4398568923
    8      H       1.5981875877    -0.8884411362     0.1031694177
    9      H      -2.1275426283    -1.0046441715     0.7868241572
   10      H      -2.5396619316    -0.5180895486    -0.8738827601
   11      H      -2.1200264692    -2.1956134554    -0.5311516440
 ----------------------------------------------------------------

   14   -5265.6303717403      5.41e-07  Convergence criterion met
 Total energy in the final basis set =    -5265.6303717403

                    Orbital Energies (a.u.)
 --------------------------------------------------------------

 Alpha MOs
 -- Occupied --
*******-482.830 -62.528 -62.488 -56.349 -56.347 -56.345 -56.310
-56.305 -56.305 -10.271 -10.252 -10.220  -8.715  -8.675  -6.543
 -6.537  -6.530  -6.507  -6.491  -6.491  -2.637  -2.637  -2.632
 -2.627  -2.626  -2.599  -2.595  -2.595  -2.583  -2.583  -0.849
 -0.775  -0.735  -0.728  -0.609  -0.517  -0.472  -0.458  -0.414
 -0.399  -0.370  -0.352  -0.305  -0.270  -0.266  -0.262  -0.256

 Beta MOs
 -- Occupied --
*******-482.828 -62.526 -62.487 -56.345 -56.345 -56.344 -56.306
-56.304 -56.304 -10.269 -10.246 -10.220  -8.711  -8.671  -6.536
 -6.532  -6.528  -6.499  -6.490  -6.489  -2.631  -2.631  -2.627
 -2.624  -2.624  -2.593  -2.591  -2.590  -2.582  -2.582  -0.839
 -0.742  -0.725  -0.695  -0.604  -0.513  -0.468  -0.452  -0.412
 -0.398  -0.330  -0.309  -0.292  -0.255  -0.251

          Ground-State Mulliken Net Atomic Charges

     Atom                 Charge (a.u.)    Spin (a.u.)
  --------------------------------------------------------
      1 Br                   -0.103496       0.827475
      2 Br                   -0.247389       0.731883
      3 C                    -0.069279       0.030649
      4 C                    -0.151196       0.447268
      5 C                    -0.340875      -0.001019
      6 H                     0.156875      -0.000975
      7 H                     0.158880      -0.019685
      8 H                     0.161806      -0.019325
      9 H                     0.142489      -0.000363
     10 H                     0.150746       0.004061
     11 H                     0.141438       0.000031
  --------------------------------------------------------
  Sum of atomic charges =    -0.000000

                    Cartesian Multipole Moments
 -----------------------------------------------------------------
    Charge (ESU x 10^10)
                -0.0000
    Dipole Moment (Debye)
         X      -2.0438      Y      -5.1840      Z      -2.2281
       Tot       6.0013
    Quadrupole Moments (Debye-Ang)
        XX     -55.8968     XY      -2.3927     YY     -61.9330
        XZ      -1.5342     YZ      -4.1339     ZZ     -58.6670

 Final energy is   -5265.63037174031
 **  OPTIMIZATION CONVERGED  **
 Total job time:  160.72s(wall), 1876.02s(cpu)
        *  Thank you very much for using Q-Chem.  Have a nice day.  *
