 Q-Chem 5.1, Q-Chem, Inc., Pleasanton, CA (2018)
 Q-Chem 5.1.1 for Intel X86 EM64T Linux

User input:
--------------------------------------------------------------

$comment
potential surface scanner
$end

$rem
JOBTYPE  PES_SCAN
UNRESTRICTED TRUE
SYM_IGNORE  TRUE
GEOM_OPT_MAX_CYCLES 400
SCF_MAX_CYCLES 400
METHOD   B3LYP
BASIS   6-31G**
PDB_PRINT 2
SCF_CONVERGENCE 6
THRESH 14
SCF_PRINT 1
$end
$molecule
0 1
S 2.809739 0.491732 -0.006815
S -3.111554 0.679795 -0.008754
C 0.061769 0.208777 0.012664
C 1.348226 -0.640539 -0.015203
C -1.141155 -0.690230 0.014850
H 0.067383 0.842206 0.905097
H 0.036909 0.866566 -0.860553
H 1.396667 -1.294415 0.859970
H 1.378373 -1.259100 -0.916325
H -1.338680 -1.262515 0.917218
H -1.343752 -1.242815 -0.898826
H 3.751223 -0.472774 -0.023893
H -2.806951 1.196913 1.199467
$end
$scan
stre 2 5 2.500000 2.501000 0.100000
$end
--------------------------------------------------------------

    9    -915.4818008132      8.62e-07  Convergence criterion met
 Total energy in the final basis set =     -915.4818008132
    9    -915.4723712164      9.21e-07  Convergence criterion met
 Total energy in the final basis set =     -915.4723712164
    9    -915.4721651062      9.22e-07  Convergence criterion met
 Total energy in the final basis set =     -915.4721651062
    9    -915.4718550468      9.17e-07  Convergence criterion met
 Total energy in the final basis set =     -915.4718550468
    9    -915.4723019059      9.24e-07  Convergence criterion met
 Total energy in the final basis set =     -915.4723019059
    9    -915.4723069054      9.25e-07  Convergence criterion met
 Total energy in the final basis set =     -915.4723069054

             Standard Nuclear Orientation (Angstroms)
    I     Atom           X                Y                Z
 ----------------------------------------------------------------
    1      S       2.8215369401     0.4918928635    -0.0076639205
    2      S      -3.1623637573     0.7325862366    -0.0363867521
    3      C       0.0746994164     0.1986916844     0.0234775577
    4      C       1.3652684231    -0.6470865142    -0.0210611769
    5      C      -1.1188097242    -0.7061553902     0.0261270771
    6      H       0.0839766426     0.8238347892     0.9214130953
    7      H       0.0424214983     0.8622179018    -0.8449433063
    8      H       1.4209404497    -1.3108526434     0.8461058320
    9      H       1.3919240816    -1.2544157218    -0.9297486149
   10      H      -1.3505846371    -1.2494683623     0.9374453537
   11      H      -1.3356756292    -1.2569668816    -0.8845138041
   12      H       3.7664064114    -0.4684984304    -0.0485307642
   13      H      -2.8915431153     1.2078214683     1.1971764231
 ----------------------------------------------------------------

    9    -915.4723078511      9.26e-07  Convergence criterion met
 Total energy in the final basis set =     -915.4723078511

                    Orbital Energies (a.u.)
 --------------------------------------------------------------

 Alpha MOs
 -- Occupied --
-88.887 -88.868 -10.262 -10.241 -10.219  -7.949  -7.927  -5.914
 -5.910  -5.903  -5.891  -5.890  -5.881  -0.833  -0.760  -0.687
 -0.655  -0.610  -0.504  -0.465  -0.439  -0.419  -0.393  -0.373
 -0.369  -0.342  -0.275  -0.249  -0.230

 Beta MOs
 -- Occupied --
-88.887 -88.868 -10.262 -10.241 -10.219  -7.949  -7.927  -5.914
 -5.910  -5.903  -5.891  -5.890  -5.881  -0.833  -0.760  -0.687
 -0.655  -0.610  -0.504  -0.465  -0.439  -0.419  -0.393  -0.373
 -0.369  -0.342  -0.275  -0.249  -0.230

          Ground-State Mulliken Net Atomic Charges

     Atom                 Charge (a.u.)    Spin (a.u.)
  --------------------------------------------------------
      1 S                    -0.030273      -0.000000
      2 S                    -0.245281       0.000000
      3 C                    -0.186662      -0.000000
      4 C                    -0.337373       0.000000
      5 C                    -0.209772       0.000000
      6 H                     0.137736       0.000000
      7 H                     0.154668       0.000000
      8 H                     0.141228       0.000000
      9 H                     0.143399      -0.000000
     10 H                     0.157258      -0.000000
     11 H                     0.157836       0.000000
     12 H                     0.061148      -0.000000
     13 H                     0.056087      -0.000000
  --------------------------------------------------------
  Sum of atomic charges =    -0.000000

                    Cartesian Multipole Moments
 -----------------------------------------------------------------
    Charge (ESU x 10^10)
                -0.0000
    Dipole Moment (Debye)
         X       2.2855      Y      -2.6396      Z       0.7882
       Tot       3.5794
    Quadrupole Moments (Debye-Ang)
        XX     -57.8100     XY      -2.5883     YY     -46.7160
        XZ      -2.3938     YZ       1.9280     ZZ     -46.4631

 Final energy is   -915.472307851050
 **  OPTIMIZATION CONVERGED  **
 Total job time:  27.84s(wall), 308.73s(cpu)
        *  Thank you very much for using Q-Chem.  Have a nice day.  *
