 Q-Chem 5.1, Q-Chem, Inc., Pleasanton, CA (2018)
 Q-Chem 5.1.1 for Intel X86 EM64T Linux

User input:
--------------------------------------------------------------

$comment
potential surface scanner
$end

$rem
JOBTYPE  PES_SCAN
UNRESTRICTED TRUE
SYM_IGNORE  TRUE
GEOM_OPT_MAX_CYCLES 400
SCF_MAX_CYCLES 400
METHOD   B3LYP
BASIS   6-31G**
PDB_PRINT 2
SCF_CONVERGENCE 6
THRESH 14
SCF_PRINT 1
$end
$molecule
0 1
S 2.964812 0.488150 -0.041175
S -4.043348 1.223605 -0.042568
C 0.234896 0.060681 0.076035
C 1.572737 -0.729393 -0.064128
C -0.887616 -0.890421 0.068081
H 0.260707 0.633209 1.007770
H 0.159328 0.756645 -0.766193
H 1.686325 -1.431778 0.764681
H 1.584473 -1.283048 -1.005563
H -1.272661 -1.320881 0.986257
H -1.260265 -1.305833 -0.862217
H 3.951935 -0.420365 -0.167810
H -3.843128 1.643027 1.225727
$end
$scan
stre 2 5 3.900000 3.901000 0.100000
$end
--------------------------------------------------------------

   15    -915.3909494644      8.49e-07  Convergence criterion met
 Total energy in the final basis set =     -915.3909494644
   13    -915.3875056593      5.21e-07  Convergence criterion met
 Total energy in the final basis set =     -915.3875056593
   13    -915.3874778205      4.91e-07  Convergence criterion met
 Total energy in the final basis set =     -915.3874778205
   13    -915.3875757619      4.33e-07  Convergence criterion met
 Total energy in the final basis set =     -915.3875757619
   13    -915.3875792692      4.23e-07  Convergence criterion met
 Total energy in the final basis set =     -915.3875792692
   13    -915.3875907405      4.02e-07  Convergence criterion met
 Total energy in the final basis set =     -915.3875907405
   13    -915.3875975744      3.94e-07  Convergence criterion met
 Total energy in the final basis set =     -915.3875975744
   13    -915.3876038183      4.00e-07  Convergence criterion met
 Total energy in the final basis set =     -915.3876038183
   13    -915.3876080292      4.13e-07  Convergence criterion met
 Total energy in the final basis set =     -915.3876080292
   13    -915.3876114926      4.31e-07  Convergence criterion met
 Total energy in the final basis set =     -915.3876114926
   13    -915.3876133961      4.44e-07  Convergence criterion met
 Total energy in the final basis set =     -915.3876133961

             Standard Nuclear Orientation (Angstroms)
    I     Atom           X                Y                Z
 ----------------------------------------------------------------
    1      S       2.9780007122     0.4850350808    -0.0449968081
    2      S      -4.1175889119     1.2601745825    -0.0411989982
    3      C       0.2489695779     0.0518364755     0.0792793484
    4      C       1.5883184821    -0.7354433485    -0.0675946792
    5      C      -0.8722211328    -0.8996991591     0.0707518522
    6      H       0.2770284022     0.6210442485     1.0130617627
    7      H       0.1712246160     0.7505167285    -0.7608041149
    8      H       1.7053615763    -1.4400566507     0.7587614258
    9      H       1.5978969107    -1.2859863048    -1.0108271706
   10      H      -1.2604371397    -1.3279641789     0.9886532318
   11      H      -1.2484019109    -1.3113817797    -0.8598723852
   12      H       3.9665354156    -0.4213518437    -0.1756785746
   13      H      -3.9264915975     1.6768741495     1.2293621101
 ----------------------------------------------------------------

   13    -915.3876143409      4.51e-07  Convergence criterion met
 Total energy in the final basis set =     -915.3876143409

                    Orbital Energies (a.u.)
 --------------------------------------------------------------

 Alpha MOs
 -- Occupied --
-88.900 -88.843 -10.283 -10.261 -10.241  -7.962  -7.902  -5.927
 -5.923  -5.916  -5.866  -5.866  -5.857  -0.852  -0.776  -0.679
 -0.655  -0.627  -0.526  -0.487  -0.461  -0.437  -0.408  -0.392
 -0.356  -0.348  -0.261  -0.215  -0.207

 Beta MOs
 -- Occupied --
-88.900 -88.843 -10.283 -10.261 -10.241  -7.962  -7.902  -5.927
 -5.923  -5.916  -5.866  -5.866  -5.857  -0.852  -0.776  -0.679
 -0.655  -0.627  -0.526  -0.487  -0.461  -0.437  -0.408  -0.392
 -0.356  -0.348  -0.261  -0.215  -0.207

          Ground-State Mulliken Net Atomic Charges

     Atom                 Charge (a.u.)    Spin (a.u.)
  --------------------------------------------------------
      1 S                    -0.015960       0.000000
      2 S                    -0.368157      -0.000000
      3 C                    -0.225118      -0.000000
      4 C                    -0.338443       0.000000
      5 C                    -0.142013       0.000000
      6 H                     0.157719       0.000000
      7 H                     0.172180       0.000000
      8 H                     0.151389       0.000000
      9 H                     0.152828       0.000000
     10 H                     0.170408      -0.000000
     11 H                     0.173076      -0.000000
     12 H                     0.066771       0.000000
     13 H                     0.045321       0.000000
  --------------------------------------------------------
  Sum of atomic charges =    -0.000000

                    Cartesian Multipole Moments
 -----------------------------------------------------------------
    Charge (ESU x 10^10)
                -0.0000
    Dipole Moment (Debye)
         X       5.3619      Y      -4.0249      Z       0.8388
       Tot       6.7567
    Quadrupole Moments (Debye-Ang)
        XX     -70.1131     XY       2.2866     YY     -48.0134
        XZ      -3.8544     YZ       2.3375     ZZ     -46.0350

 Final energy is   -915.387614340859
 **  OPTIMIZATION CONVERGED  **
 Total job time:  59.60s(wall), 629.87s(cpu)
        *  Thank you very much for using Q-Chem.  Have a nice day.  *
