 Q-Chem 5.1, Q-Chem, Inc., Pleasanton, CA (2018)
 Q-Chem 5.1.1 for Intel X86 EM64T Linux

User input:
--------------------------------------------------------------

$comment
potential surface scanner
$end

$rem
JOBTYPE  PES_SCAN
UNRESTRICTED TRUE
SYM_IGNORE  TRUE
GEOM_OPT_MAX_CYCLES 400
SCF_MAX_CYCLES 400
METHOD   B3LYP
BASIS   6-31G**
PDB_PRINT 2
SCF_CONVERGENCE 6
THRESH 14
SCF_PRINT 1
$end
$molecule
0 1
S 2.749000 0.445300 -0.001100
S -2.750400 0.444400 -0.000400
C 0.000900 0.283600 0.001800
C 1.255600 -0.587300 0.000700
C -1.255100 -0.586000 -0.001000
H 0.001400 0.930000 0.889200
H 0.001400 0.933800 -0.882900
H 1.280200 -1.230100 0.886500
H 1.278600 -1.230200 -0.885100
H -1.279500 -1.231800 0.882600
H -1.278100 -1.225300 -0.889300
H 3.631700 -0.564200 -0.001900
H -2.527500 1.041400 1.179800
$end
$scan
stre 2 5 1.200000 1.201000 0.100000
$end
--------------------------------------------------------------

    9    -915.5215846885      2.52e-07  Convergence criterion met
 Total energy in the final basis set =     -915.5215846885
    9    -915.5087000570      3.60e-07  Convergence criterion met
 Total energy in the final basis set =     -915.5087000570
    9    -915.4645237063      3.04e-07  Convergence criterion met
 Total energy in the final basis set =     -915.4645237063
    9    -915.3807690974      3.30e-07  Convergence criterion met
 Total energy in the final basis set =     -915.3807690974
    9    -915.2558977254      3.96e-07  Convergence criterion met
 Total energy in the final basis set =     -915.2558977254
    9    -915.0942125020      4.91e-07  Convergence criterion met
 Total energy in the final basis set =     -915.0942125020
    9    -915.0861200956      4.86e-07  Convergence criterion met
 Total energy in the final basis set =     -915.0861200956
    9    -915.0856966877      4.56e-07  Convergence criterion met
    9    -915.0862113411      4.28e-07  Convergence criterion met
 Total energy in the final basis set =     -915.0862113411
    9    -915.0862153493      4.28e-07  Convergence criterion met
 Total energy in the final basis set =     -915.0862153493
    9    -915.0862184337      4.28e-07  Convergence criterion met
 Total energy in the final basis set =     -915.0862184337
    9    -915.0862207763      4.28e-07  Convergence criterion met
 Total energy in the final basis set =     -915.0862207763
    9    -915.0862228265      4.27e-07  Convergence criterion met
 Total energy in the final basis set =     -915.0862228265
    9    -915.0862243577      4.27e-07  Convergence criterion met
 Total energy in the final basis set =     -915.0862243577

             Standard Nuclear Orientation (Angstroms)
    I     Atom           X                Y                Z
 ----------------------------------------------------------------
    1      S       2.7774328199     0.4001201287     0.0248134535
    2      S      -2.4816584363     0.1367212064     0.0155448819
    3      C       0.0129255328     0.3559488048    -0.0258098409
    4      C       1.2111560927    -0.5809303544    -0.0292802021
    5      C      -1.4236501261    -0.4270805494     0.0679472940
    6      H       0.0457426079     1.0245672523     0.8443539375
    7      H      -0.0146938413     0.9840953503    -0.9240521258
    8      H       1.1795854960    -1.2414601832     0.8427990069
    9      H       1.2138054997    -1.2007646563    -0.9316924467
   10      H      -1.1530282802    -1.1948801879     0.8703885589
   11      H      -1.3013232610    -1.1122939003    -0.7939697751
   12      H       3.6276015554    -0.6456355734     0.0797013326
   13      H      -2.5856956595     0.9251926623     1.1381559253
 ----------------------------------------------------------------

    9    -915.0862251389      4.27e-07  Convergence criterion met
 Total energy in the final basis set =     -915.0862251389

                    Orbital Energies (a.u.)
 --------------------------------------------------------------

 Alpha MOs
 -- Occupied --
-88.875 -88.844 -10.225 -10.210 -10.196  -7.943  -7.937  -5.909
 -5.902  -5.899  -5.899  -5.893  -5.892  -0.955  -0.802  -0.710
 -0.615  -0.608  -0.532  -0.476  -0.470  -0.449  -0.408  -0.382
 -0.365  -0.330  -0.287  -0.237  -0.203

 Beta MOs
 -- Occupied --
-88.875 -88.844 -10.225 -10.210 -10.196  -7.943  -7.937  -5.909
 -5.902  -5.899  -5.899  -5.893  -5.892  -0.955  -0.802  -0.710
 -0.615  -0.608  -0.532  -0.476  -0.470  -0.449  -0.408  -0.382
 -0.365  -0.330  -0.287  -0.237  -0.203

          Ground-State Mulliken Net Atomic Charges

     Atom                 Charge (a.u.)    Spin (a.u.)
  --------------------------------------------------------
      1 S                    -0.042972       0.000000
      2 S                     0.067608      -0.000000
      3 C                    -0.223183      -0.000000
      4 C                    -0.331222      -0.000000
      5 C                    -0.280214       0.000000
      6 H                     0.114819      -0.000000
      7 H                     0.121386       0.000000
      8 H                     0.135553      -0.000000
      9 H                     0.132011       0.000000
     10 H                     0.073605      -0.000000
     11 H                     0.166748      -0.000000
     12 H                     0.053607      -0.000000
     13 H                     0.012255       0.000000
  --------------------------------------------------------
  Sum of atomic charges =    -0.000000

                    Cartesian Multipole Moments
 -----------------------------------------------------------------
    Charge (ESU x 10^10)
                -0.0000
    Dipole Moment (Debye)
         X       0.1092      Y      -1.9358      Z       0.3180
       Tot       1.9648
    Quadrupole Moments (Debye-Ang)
        XX     -53.0711     XY      -4.0119     YY     -45.7845
        XZ      -1.3107     YZ       1.6335     ZZ     -46.7302

 Final energy is   -915.086225138893
 **  OPTIMIZATION CONVERGED  **
 Total job time:  113.89s(wall), 1314.19s(cpu)
        *  Thank you very much for using Q-Chem.  Have a nice day.  *
