 Q-Chem 5.1, Q-Chem, Inc., Pleasanton, CA (2018)
 Q-Chem 5.1.1 for Intel X86 EM64T Linux

User input:
--------------------------------------------------------------

$comment
potential surface scanner
$end

$rem
JOBTYPE  PES_SCAN
UNRESTRICTED TRUE
SYM_IGNORE  TRUE
GEOM_OPT_MAX_CYCLES 400
SCF_MAX_CYCLES 400
METHOD   B3LYP
BASIS   6-31G**
PDB_PRINT 2
SCF_CONVERGENCE 6
THRESH 14
SCF_PRINT 1
$end
$molecule
0 3
S 2.919392 -0.055190 0.029288
S -3.521049 -0.776702 0.049391
C 0.221426 0.495372 0.276045
C 1.171181 -0.649739 -0.069486
C -1.275514 0.055619 0.206906
H 0.437708 0.867341 1.284099
H 0.380373 1.331383 -0.414858
H 1.037747 -1.481049 0.629186
H 0.976075 -1.014398 -1.082304
H -1.406801 -0.753211 0.930661
H -1.459143 -0.298839 -0.810872
H 3.505349 -1.222689 -0.301874
H -1.878545 0.925711 0.452713
$end
$scan
stre 2 5 2.300000 2.301000 0.100000
$end
--------------------------------------------------------------

   10    -915.4160636895      3.74e-07  Convergence criterion met
 Total energy in the final basis set =     -915.4160636895
   10    -915.4058771492      3.81e-07  Convergence criterion met
 Total energy in the final basis set =     -915.4058771492
   10    -915.4057161603      3.82e-07  Convergence criterion met
 Total energy in the final basis set =     -915.4057161603
   10    -915.4057228760      3.81e-07  Convergence criterion met
 Total energy in the final basis set =     -915.4057228760
   10    -915.4057249787      3.80e-07  Convergence criterion met
 Total energy in the final basis set =     -915.4057249787

             Standard Nuclear Orientation (Angstroms)
    I     Atom           X                Y                Z
 ----------------------------------------------------------------
    1      S       2.9106386058    -0.0551949497     0.0316920004
    2      S      -3.4441668684    -0.7570070505     0.0557898348
    3      C       0.2128729620     0.4930151342     0.2745936427
    4      C       1.1629172461    -0.6508065835    -0.0706000239
    5      C      -1.2949937755     0.0484202194     0.2052638572
    6      H       0.4247726002     0.8647557235     1.2835213505
    7      H       0.3669806437     1.3295720863    -0.4164876293
    8      H       1.0291812049    -1.4829549705     0.6271280875
    9      H       0.9698696581    -1.0149622455    -1.0840630631
   10      H      -1.3991718353    -0.7588833790     0.9337041618
   11      H      -1.4535218598    -0.3007868797    -0.8175305688
   12      H       3.4978386345    -1.2224100920    -0.2985371028
   13      H      -1.8750182163     0.9308519870     0.4544204531
 ----------------------------------------------------------------

   10    -915.4057257540      3.79e-07  Convergence criterion met
 Total energy in the final basis set =     -915.4057257540

                    Orbital Energies (a.u.)
 --------------------------------------------------------------

 Alpha MOs
 -- Occupied --
-88.894 -88.878 -10.228 -10.210 -10.210  -7.956  -7.941  -5.925
 -5.924  -5.907  -5.906  -5.902  -5.895  -0.825  -0.769  -0.712
 -0.653  -0.600  -0.495  -0.461  -0.453  -0.434  -0.390  -0.370
 -0.367  -0.333  -0.299  -0.257  -0.248  -0.241

 Beta MOs
 -- Occupied --
-88.883 -88.878 -10.228 -10.208 -10.208  -7.946  -7.941  -5.906
 -5.905  -5.904  -5.902  -5.901  -5.895  -0.821  -0.759  -0.683
 -0.619  -0.580  -0.491  -0.457  -0.446  -0.427  -0.378  -0.362
 -0.361  -0.331  -0.241  -0.232

          Ground-State Mulliken Net Atomic Charges

     Atom                 Charge (a.u.)    Spin (a.u.)
  --------------------------------------------------------
      1 S                    -0.045176       0.002505
      2 S                    -0.085957       1.832794
      3 C                    -0.204999       0.092399
      4 C                    -0.319528      -0.003226
      5 C                    -0.422738       0.031446
      6 H                     0.125775       0.001979
      7 H                     0.125660       0.001904
      8 H                     0.136842       0.000785
      9 H                     0.136856       0.000779
     10 H                     0.158713       0.014104
     11 H                     0.158561       0.014224
     12 H                     0.058088       0.002059
     13 H                     0.177904       0.008247
  --------------------------------------------------------
  Sum of atomic charges =     0.000000

                    Cartesian Multipole Moments
 -----------------------------------------------------------------
    Charge (ESU x 10^10)
                 0.0000
    Dipole Moment (Debye)
         X       0.5256      Y      -0.5295      Z      -0.1542
       Tot       0.7619
    Quadrupole Moments (Debye-Ang)
        XX     -58.4885     XY      -5.8817     YY     -46.9339
        XZ      -1.1154     YZ       0.0976     ZZ     -46.7854

 Final energy is   -915.405725754038
 **  OPTIMIZATION CONVERGED  **
 Total job time:  40.03s(wall), 284.21s(cpu)
        *  Thank you very much for using Q-Chem.  Have a nice day.  *
