 Q-Chem 5.1, Q-Chem, Inc., Pleasanton, CA (2018)
 Q-Chem 5.1.1 for Intel X86 EM64T Linux

User input:
--------------------------------------------------------------

$comment
potential surface scanner
$end

$rem
JOBTYPE  PES_SCAN
UNRESTRICTED TRUE
SYM_IGNORE  TRUE
GEOM_OPT_MAX_CYCLES 400
SCF_MAX_CYCLES 400
METHOD   B3LYP
BASIS   6-31G**
PDB_PRINT 2
SCF_CONVERGENCE 6
THRESH 14
SCF_PRINT 1
$end
$molecule
0 1
S 2.821537 0.491893 -0.007664
S -3.162364 0.732586 -0.036387
C 0.074699 0.198692 0.023478
C 1.365268 -0.647087 -0.021061
C -1.118810 -0.706155 0.026127
H 0.083977 0.823835 0.921413
H 0.042421 0.862218 -0.844943
H 1.420940 -1.310853 0.846106
H 1.391924 -1.254416 -0.929749
H -1.350585 -1.249468 0.937445
H -1.335676 -1.256967 -0.884514
H 3.766406 -0.468498 -0.048531
H -2.891543 1.207821 1.197176
$end
$scan
stre 2 5 2.600000 2.601000 0.100000
$end
--------------------------------------------------------------

    9    -915.4723078870      9.26e-07  Convergence criterion met
 Total energy in the final basis set =     -915.4723078870
    9    -915.4632262338      9.68e-07  Convergence criterion met
 Total energy in the final basis set =     -915.4632262338
    9    -915.4631364349      9.68e-07  Convergence criterion met
 Total energy in the final basis set =     -915.4631364349
    9    -915.4631457952      9.69e-07  Convergence criterion met
 Total energy in the final basis set =     -915.4631457952

             Standard Nuclear Orientation (Angstroms)
    I     Atom           X                Y                Z
 ----------------------------------------------------------------
    1      S       2.8284105266     0.4962044784    -0.0084560379
    2      S      -3.2209986477     0.7741777750    -0.0336783393
    3      C       0.0830224063     0.1868091978     0.0250081120
    4      C       1.3799245626    -0.6528840492    -0.0227732983
    5      C      -1.0989606775    -0.7269265957     0.0266584319
    6      H       0.0902694264     0.8092385976     0.9245712446
    7      H       0.0469763242     0.8503781919    -0.8430891549
    8      H       1.4400411245    -1.3178212667     0.8430555348
    9      H       1.4086995478    -1.2577388419    -0.9328958544
   10      H      -1.3516701379    -1.2572361314     0.9395006113
   11      H      -1.3384095122    -1.2607967370    -0.8876534211
   12      H       3.7792221682    -0.4581478782    -0.0530190002
   13      H      -2.9383331114     1.2383442594     1.2016671715
 ----------------------------------------------------------------

    9    -915.4631469023      9.69e-07  Convergence criterion met
 Total energy in the final basis set =     -915.4631469023

                    Orbital Energies (a.u.)
 --------------------------------------------------------------

 Alpha MOs
 -- Occupied --
-88.888 -88.865 -10.266 -10.243 -10.222  -7.950  -7.924  -5.915
 -5.912  -5.905  -5.889  -5.887  -5.879  -0.835  -0.761  -0.683
 -0.658  -0.612  -0.507  -0.468  -0.442  -0.420  -0.395  -0.374
 -0.368  -0.343  -0.268  -0.250  -0.227

 Beta MOs
 -- Occupied --
-88.888 -88.865 -10.266 -10.243 -10.222  -7.950  -7.924  -5.915
 -5.912  -5.905  -5.889  -5.887  -5.879  -0.835  -0.761  -0.683
 -0.658  -0.612  -0.507  -0.468  -0.442  -0.420  -0.395  -0.374
 -0.368  -0.343  -0.268  -0.250  -0.227

          Ground-State Mulliken Net Atomic Charges

     Atom                 Charge (a.u.)    Spin (a.u.)
  --------------------------------------------------------
      1 S                    -0.028217       0.000000
      2 S                    -0.270586      -0.000000
      3 C                    -0.191771      -0.000000
      4 C                    -0.338610      -0.000000
      5 C                    -0.191170       0.000000
      6 H                     0.140749       0.000000
      7 H                     0.157412       0.000000
      8 H                     0.142321      -0.000000
      9 H                     0.144479       0.000000
     10 H                     0.159139       0.000000
     11 H                     0.160233      -0.000000
     12 H                     0.061772      -0.000000
     13 H                     0.054248       0.000000
  --------------------------------------------------------
  Sum of atomic charges =    -0.000000

                    Cartesian Multipole Moments
 -----------------------------------------------------------------
    Charge (ESU x 10^10)
                -0.0000
    Dipole Moment (Debye)
         X       2.5854      Y      -2.7804      Z       0.7855
       Tot       3.8771
    Quadrupole Moments (Debye-Ang)
        XX     -58.6868     XY      -2.1978     YY     -46.7542
        XZ      -2.4182     YZ       1.9442     ZZ     -46.4235

 Final energy is   -915.463146902292
 **  OPTIMIZATION CONVERGED  **
 Total job time:  19.29s(wall), 218.87s(cpu)
        *  Thank you very much for using Q-Chem.  Have a nice day.  *
