 Q-Chem 5.1, Q-Chem, Inc., Pleasanton, CA (2018)
 Q-Chem 5.1.1 for Intel X86 EM64T Linux

User input:
--------------------------------------------------------------

$comment
potential surface scanner
$end

$rem
JOBTYPE  PES_SCAN
UNRESTRICTED TRUE
SYM_IGNORE  TRUE
GEOM_OPT_MAX_CYCLES 400
SCF_MAX_CYCLES 400
METHOD   B3LYP
BASIS   6-31G**
PDB_PRINT 2
SCF_CONVERGENCE 6
THRESH 14
SCF_PRINT 1
$end
$molecule
0 1
S 2.978001 0.485035 -0.044997
S -4.117589 1.260175 -0.041199
C 0.248970 0.051836 0.079279
C 1.588318 -0.735443 -0.067595
C -0.872221 -0.899699 0.070752
H 0.277028 0.621044 1.013062
H 0.171225 0.750517 -0.760804
H 1.705362 -1.440057 0.758761
H 1.597897 -1.285986 -1.010827
H -1.260437 -1.327964 0.988653
H -1.248402 -1.311382 -0.859872
H 3.966535 -0.421352 -0.175679
H -3.926492 1.676874 1.229362
$end
$scan
stre 2 5 4.000000 4.001000 0.100000
$end
--------------------------------------------------------------

   13    -915.3876143299      4.51e-07  Convergence criterion met
 Total energy in the final basis set =     -915.3876143299
   16    -915.3844600617      5.71e-07  Convergence criterion met
 Total energy in the final basis set =     -915.3844600617
   16    -915.3844379368      5.43e-07  Convergence criterion met
 Total energy in the final basis set =     -915.3844379368
   16    -915.3845252549      3.57e-07  Convergence criterion met
 Total energy in the final basis set =     -915.3845252549
   16    -915.3845286641      3.43e-07  Convergence criterion met
 Total energy in the final basis set =     -915.3845286641
   16    -915.3845403886      3.06e-07  Convergence criterion met
 Total energy in the final basis set =     -915.3845403886
   16    -915.3845462297      3.04e-07  Convergence criterion met
 Total energy in the final basis set =     -915.3845462297
   16    -915.3845521478      3.15e-07  Convergence criterion met
 Total energy in the final basis set =     -915.3845521478
   16    -915.3845567236      3.33e-07  Convergence criterion met
 Total energy in the final basis set =     -915.3845567236
   16    -915.3845607180      3.53e-07  Convergence criterion met
 Total energy in the final basis set =     -915.3845607180
   16    -915.3845628913      3.59e-07  Convergence criterion met
 Total energy in the final basis set =     -915.3845628913
   16    -915.3845640995      3.53e-07  Convergence criterion met
 Total energy in the final basis set =     -915.3845640995

             Standard Nuclear Orientation (Angstroms)
    I     Atom           X                Y                Z
 ----------------------------------------------------------------
    1      S       2.9887869881     0.4848868887    -0.0495161598
    2      S      -4.1866630829     1.3001669226    -0.0432887693
    3      C       0.2617515577     0.0403300671     0.0850226267
    4      C       1.6040073442    -0.7410342929    -0.0723807850
    5      C      -0.8569022910    -0.9131066850     0.0755076840
    6      H       0.2926128034     0.6047469062     1.0216780934
    7      H       0.1791775033     0.7432705559    -0.7514093007
    8      H       1.7269374945    -1.4494445527     0.7498016203
    9      H       1.6108408255    -1.2865066837    -1.0185387936
   10      H      -1.2491516290    -1.3386419615     0.9933969984
   11      H      -1.2366721400    -1.3196530417    -0.8561225996
   12      H       3.9804938390    -0.4173519850    -0.1846502849
   13      H      -4.0070242127     1.7159358620     1.2293956701
 ----------------------------------------------------------------

   16    -915.3845649250      3.44e-07  Convergence criterion met
 Total energy in the final basis set =     -915.3845649250

                    Orbital Energies (a.u.)
 --------------------------------------------------------------

 Alpha MOs
 -- Occupied --
-88.900 -88.842 -10.283 -10.261 -10.242  -7.962  -7.901  -5.927
 -5.924  -5.917  -5.865  -5.865  -5.856  -0.853  -0.777  -0.679
 -0.655  -0.627  -0.527  -0.487  -0.461  -0.437  -0.409  -0.392
 -0.357  -0.347  -0.262  -0.214  -0.206

 Beta MOs
 -- Occupied --
-88.900 -88.842 -10.283 -10.261 -10.242  -7.962  -7.901  -5.927
 -5.924  -5.917  -5.865  -5.865  -5.856  -0.853  -0.777  -0.679
 -0.655  -0.627  -0.527  -0.487  -0.461  -0.437  -0.409  -0.392
 -0.357  -0.347  -0.262  -0.214  -0.206

          Ground-State Mulliken Net Atomic Charges

     Atom                 Charge (a.u.)    Spin (a.u.)
  --------------------------------------------------------
      1 S                    -0.015908      -0.000000
      2 S                    -0.366737       0.000000
      3 C                    -0.225431       0.000000
      4 C                    -0.337815      -0.000000
      5 C                    -0.143933      -0.000000
      6 H                     0.157731      -0.000000
      7 H                     0.172142      -0.000000
      8 H                     0.151615      -0.000000
      9 H                     0.153001      -0.000000
     10 H                     0.170347       0.000000
     11 H                     0.172864       0.000000
     12 H                     0.066923      -0.000000
     13 H                     0.045202      -0.000000
  --------------------------------------------------------
  Sum of atomic charges =    -0.000000

                    Cartesian Multipole Moments
 -----------------------------------------------------------------
    Charge (ESU x 10^10)
                -0.0000
    Dipole Moment (Debye)
         X       5.4891      Y      -4.0948      Z       0.8460
       Tot       6.9002
    Quadrupole Moments (Debye-Ang)
        XX     -70.9166     XY       2.6370     YY     -48.1647
        XZ      -3.9741     YZ       2.3734     ZZ     -46.0203

 Final energy is   -915.384564924996
 **  OPTIMIZATION CONVERGED  **
 Total job time:  67.51s(wall), 776.52s(cpu)
        *  Thank you very much for using Q-Chem.  Have a nice day.  *
