 Q-Chem 5.1, Q-Chem, Inc., Pleasanton, CA (2018)
 Q-Chem 5.1.1 for Intel X86 EM64T Linux

User input:
--------------------------------------------------------------

$comment
potential surface scanner
$end

$rem
JOBTYPE  PES_SCAN
UNRESTRICTED TRUE
SYM_IGNORE  TRUE
GEOM_OPT_MAX_CYCLES 400
SCF_MAX_CYCLES 400
METHOD   B3LYP
BASIS   6-31G**
PDB_PRINT 2
SCF_CONVERGENCE 6
THRESH 14
SCF_PRINT 1
$end
$molecule
0 3
S 2.928031 -0.055631 0.026794
S -3.601003 -0.799342 0.043447
C 0.230348 0.498209 0.277220
C 1.179061 -0.648416 -0.068530
C -1.259819 0.061906 0.208088
H 0.449632 0.869724 1.284871
H 0.393097 1.333895 -0.413325
H 1.045712 -1.478695 0.631314
H 0.981829 -1.013914 -1.080583
H -1.410111 -0.747827 0.928420
H -1.461572 -0.295402 -0.806153
H 3.512254 -1.223920 -0.304514
H -1.879259 0.923020 0.451845
$end
$scan
stre 2 5 2.400000 2.401000 0.100000
$end
--------------------------------------------------------------

   10    -915.4239658992      3.93e-07  Convergence criterion met
 Total energy in the final basis set =     -915.4239658992
   10    -915.4161059528      3.85e-07  Convergence criterion met
 Total energy in the final basis set =     -915.4161059528
   10    -915.4160332800      3.83e-07  Convergence criterion met
 Total energy in the final basis set =     -915.4160332800
   10    -915.4160520332      3.80e-07  Convergence criterion met
 Total energy in the final basis set =     -915.4160520332
   10    -915.4160613168      3.76e-07  Convergence criterion met
 Total energy in the final basis set =     -915.4160613168
   10    -915.4160633326      3.74e-07  Convergence criterion met
 Total energy in the final basis set =     -915.4160633326

             Standard Nuclear Orientation (Angstroms)
    I     Atom           X                Y                Z
 ----------------------------------------------------------------
    1      S       2.9193916282    -0.0551898779     0.0292875498
    2      S      -3.5210494549    -0.7767022561     0.0493905470
    3      C       0.2214261339     0.4953716965     0.2760445482
    4      C       1.1711811221    -0.6497392221    -0.0694861136
    5      C      -1.2755136791     0.0556188598     0.2069061343
    6      H       0.4377081226     0.8673405663     1.2840991927
    7      H       0.3803734891     1.3313827704    -0.4148575764
    8      H       1.0377470451    -1.4810489785     0.6291857284
    9      H       0.9760746578    -1.0143980190    -1.0823040072
   10      H      -1.4068005017    -0.7532114936     0.9306613453
   11      H      -1.4591434412    -0.2988393075    -0.8108722346
   12      H       3.5053494940    -1.2226886887    -0.3018744338
   13      H      -1.8785446158     0.9257109504     0.4527133199
 ----------------------------------------------------------------

   10    -915.4160637624      3.74e-07  Convergence criterion met
 Total energy in the final basis set =     -915.4160637624

                    Orbital Energies (a.u.)
 --------------------------------------------------------------

 Alpha MOs
 -- Occupied --
-88.901 -88.877 -10.227 -10.208 -10.206  -7.962  -7.940  -5.932
 -5.931  -5.913  -5.905  -5.901  -5.894  -0.822  -0.764  -0.712
 -0.655  -0.600  -0.492  -0.456  -0.451  -0.428  -0.388  -0.367
 -0.364  -0.332  -0.304  -0.263  -0.261  -0.240

 Beta MOs
 -- Occupied --
-88.890 -88.877 -10.227 -10.207 -10.204  -7.952  -7.940  -5.911
 -5.910  -5.907  -5.905  -5.901  -5.894  -0.819  -0.755  -0.678
 -0.618  -0.584  -0.489  -0.453  -0.445  -0.423  -0.376  -0.360
 -0.359  -0.330  -0.240  -0.236

          Ground-State Mulliken Net Atomic Charges

     Atom                 Charge (a.u.)    Spin (a.u.)
  --------------------------------------------------------
      1 S                    -0.046331       0.002132
      2 S                    -0.075289       1.864384
      3 C                    -0.202334       0.072167
      4 C                    -0.319371      -0.002529
      5 C                    -0.407134       0.036082
      6 H                     0.124852       0.001850
      7 H                     0.124768       0.001770
      8 H                     0.136579       0.000595
      9 H                     0.136577       0.000598
     10 H                     0.150433       0.008363
     11 H                     0.150405       0.008491
     12 H                     0.057777       0.001560
     13 H                     0.169066       0.004538
  --------------------------------------------------------
  Sum of atomic charges =    -0.000000

                    Cartesian Multipole Moments
 -----------------------------------------------------------------
    Charge (ESU x 10^10)
                 0.0000
    Dipole Moment (Debye)
         X       0.2720      Y      -0.6193      Z      -0.1664
       Tot       0.6966
    Quadrupole Moments (Debye-Ang)
        XX     -57.3035     XY      -5.4815     YY     -46.9195
        XZ      -1.0928     YZ       0.0912     ZZ     -46.8726

 Final energy is   -915.416063762383
 **  OPTIMIZATION CONVERGED  **
 Total job time:  28.72s(wall), 328.66s(cpu)
        *  Thank you very much for using Q-Chem.  Have a nice day.  *
