 Q-Chem 5.1, Q-Chem, Inc., Pleasanton, CA (2018)
 Q-Chem 5.1.1 for Intel X86 EM64T Linux

User input:
--------------------------------------------------------------

$comment
potential surface scanner
$end

$rem
JOBTYPE  PES_SCAN
UNRESTRICTED TRUE
SYM_IGNORE  TRUE
GEOM_OPT_MAX_CYCLES 400
SCF_MAX_CYCLES 400
METHOD   B3LYP
BASIS   6-31G**
PDB_PRINT 2
SCF_CONVERGENCE 6
THRESH 14
SCF_PRINT 1
$end
$molecule
0 1
S 2.896628 0.503847 -0.023252
S -3.679201 1.044620 -0.030006
C 0.162165 0.107772 0.048705
C 1.490615 -0.697111 -0.045157
C -0.971005 -0.839570 0.044153
H 0.172731 0.702860 0.966018
H 0.101145 0.785454 -0.807949
H 1.582896 -1.381199 0.801886
H 1.517845 -1.274400 -0.972324
H -1.327640 -1.290587 0.963260
H -1.307830 -1.290651 -0.882495
H 3.876620 -0.417524 -0.106518
H -3.406774 1.470087 1.222572
$end
$scan
stre 2 5 3.400000 3.401000 0.100000
$end
--------------------------------------------------------------

   12    -915.4129172339      1.36e-07  Convergence criterion met
 Total energy in the final basis set =     -915.4129172339
   12    -915.4075614782      1.52e-07  Convergence criterion met
 Total energy in the final basis set =     -915.4075614782
   12    -915.4075329096      1.50e-07  Convergence criterion met
 Total energy in the final basis set =     -915.4075329096
   12    -915.4076829879      1.84e-07  Convergence criterion met
 Total energy in the final basis set =     -915.4076829879
   12    -915.4076880199      1.95e-07  Convergence criterion met
 Total energy in the final basis set =     -915.4076880199
   12    -915.4077066713      2.37e-07  Convergence criterion met
 Total energy in the final basis set =     -915.4077066713
   12    -915.4077192279      2.52e-07  Convergence criterion met
 Total energy in the final basis set =     -915.4077192279
   12    -915.4077271163      2.44e-07  Convergence criterion met
 Total energy in the final basis set =     -915.4077271163
   12    -915.4077294359      2.36e-07  Convergence criterion met
 Total energy in the final basis set =     -915.4077294359
   12    -915.4077304412      2.32e-07  Convergence criterion met
 Total energy in the final basis set =     -915.4077304412

             Standard Nuclear Orientation (Angstroms)
    I     Atom           X                Y                Z
 ----------------------------------------------------------------
    1      S       2.9097251931     0.5014906313    -0.0267848641
    2      S      -3.7495674416     1.0813434606    -0.0384802335
    3      C       0.1764211781     0.0976082029     0.0577962897
    4      C       1.5070381238    -0.7034710404    -0.0502224490
    5      C      -0.9536683331    -0.8511972021     0.0522606923
    6      H       0.1912895659     0.6858921498     0.9794830972
    7      H       0.1101018701     0.7810867253    -0.7941603197
    8      H       1.6054755055    -1.3938975588     0.7908593437
    9      H       1.5297932601    -1.2730072404    -0.9822044927
   10      H      -1.3186492496    -1.2964291564     0.9709946107
   11      H      -1.2980045130    -1.2951178411    -0.8752078979
   12      H       3.8913775765    -0.4167527316    -0.1231698714
   13      H      -3.4931377357     1.5060496010     1.2177290946
 ----------------------------------------------------------------

   12    -915.4077311023      2.32e-07  Convergence criterion met
 Total energy in the final basis set =     -915.4077311023

                    Orbital Energies (a.u.)
 --------------------------------------------------------------

 Alpha MOs
 -- Occupied --
-88.897 -88.849 -10.282 -10.257 -10.236  -7.959  -7.907  -5.924
 -5.921  -5.914  -5.871  -5.871  -5.862  -0.849  -0.773  -0.676
 -0.660  -0.624  -0.522  -0.482  -0.457  -0.433  -0.405  -0.387
 -0.353  -0.352  -0.259  -0.227  -0.211

 Beta MOs
 -- Occupied --
-88.897 -88.849 -10.282 -10.257 -10.236  -7.959  -7.907  -5.924
 -5.921  -5.914  -5.871  -5.871  -5.862  -0.849  -0.773  -0.676
 -0.660  -0.624  -0.522  -0.482  -0.457  -0.433  -0.405  -0.387
 -0.353  -0.352  -0.259  -0.227  -0.211

          Ground-State Mulliken Net Atomic Charges

     Atom                 Charge (a.u.)    Spin (a.u.)
  --------------------------------------------------------
      1 S                    -0.017484      -0.000000
      2 S                    -0.365122       0.000000
      3 C                    -0.220156       0.000000
      4 C                    -0.341086      -0.000000
      5 C                    -0.135750      -0.000000
      6 H                     0.155448      -0.000000
      7 H                     0.171304      -0.000000
      8 H                     0.149180      -0.000000
      9 H                     0.151006       0.000000
     10 H                     0.169177       0.000000
     11 H                     0.171863       0.000000
     12 H                     0.065507      -0.000000
     13 H                     0.046113      -0.000000
  --------------------------------------------------------
  Sum of atomic charges =     0.000000

                    Cartesian Multipole Moments
 -----------------------------------------------------------------
    Charge (ESU x 10^10)
                 0.0000
    Dipole Moment (Debye)
         X       4.5544      Y      -3.6716      Z       0.8193
       Tot       5.9072
    Quadrupole Moments (Debye-Ang)
        XX     -65.7480     XY       0.6766     YY     -47.3728
        XZ      -3.2101     YZ       2.1695     ZZ     -46.1575

 Final energy is   -915.407731102255
 **  OPTIMIZATION CONVERGED  **
 Total job time:  48.26s(wall), 557.71s(cpu)
        *  Thank you very much for using Q-Chem.  Have a nice day.  *
