 Q-Chem 5.1, Q-Chem, Inc., Pleasanton, CA (2018)
 Q-Chem 5.1.1 for Intel X86 EM64T Linux

User input:
--------------------------------------------------------------

$comment
potential surface scanner
$end

$rem
JOBTYPE  PES_SCAN
UNRESTRICTED TRUE
SYM_IGNORE  TRUE
GEOM_OPT_MAX_CYCLES 400
SCF_MAX_CYCLES 400
METHOD   B3LYP
BASIS   6-31G**
PDB_PRINT 2
SCF_CONVERGENCE 6
THRESH 14
SCF_PRINT 1
$end
$molecule
0 1
S 2.779205 0.453898 -0.011760
S -2.784292 0.413253 -0.024830
C 0.021504 0.277670 0.012147
C 1.268338 -0.611027 -0.002226
C -1.266976 -0.553819 0.025425
H 0.046976 0.926310 0.896223
H 0.019426 0.935234 -0.863656
H 1.293143 -1.253770 0.882690
H 1.275572 -1.246180 -0.892884
H -1.285386 -1.228397 0.887891
H -1.316420 -1.187294 -0.867132
H 3.680173 -0.548484 -0.018068
H -2.623063 1.046204 1.155079
$end
$scan
stre 2 5 1.900000 1.901000 0.100000
$end
--------------------------------------------------------------

    9    -915.5227958393      3.93e-07  Convergence criterion met
 Total energy in the final basis set =     -915.5227958393
    9    -915.5222018882      4.89e-07  Convergence criterion met
 Total energy in the final basis set =     -915.5222018882
    9    -915.5224391171      4.95e-07  Convergence criterion met
 Total energy in the final basis set =     -915.5224391171
    9    -915.5224915204      4.89e-07  Convergence criterion met
 Total energy in the final basis set =     -915.5224915204

             Standard Nuclear Orientation (Angstroms)
    I     Atom           X                Y                Z
 ----------------------------------------------------------------
    1      S       2.7828782379     0.4617592323    -0.0092513653
    2      S      -2.8384277598     0.4579183620    -0.0205321455
    3      C       0.0264749429     0.2663503468     0.0112040339
    4      C       1.2801616582    -0.6150404225    -0.0044304438
    5      C      -1.2460087443    -0.5776530483     0.0218159615
    6      H       0.0482485394     0.9134776226     0.8959098689
    7      H       0.0209058884     0.9237043733    -0.8643473716
    8      H       1.3083132937    -1.2600940779     0.8786355763
    9      H       1.2924344260    -1.2473763167    -0.8969298537
   10      H      -1.2976089807    -1.2356278632     0.8929281712
   11      H      -1.3215593866    -1.2004173077    -0.8740979047
   12      H       3.6909202594    -0.5342453169    -0.0155545578
   13      H      -2.6385323745     1.0708424161     1.1635490305
 ----------------------------------------------------------------

    9    -915.5224934586      4.89e-07  Convergence criterion met
 Total energy in the final basis set =     -915.5224934586

                    Orbital Energies (a.u.)
 --------------------------------------------------------------

 Alpha MOs
 -- Occupied --
-88.879 -88.878 -10.232 -10.229 -10.206  -7.941  -7.940  -5.906
 -5.905  -5.902  -5.902  -5.895  -5.895  -0.827  -0.773  -0.710
 -0.637  -0.601  -0.494  -0.456  -0.437  -0.417  -0.387  -0.377
 -0.357  -0.333  -0.323  -0.242  -0.240

 Beta MOs
 -- Occupied --
-88.879 -88.878 -10.232 -10.229 -10.206  -7.941  -7.940  -5.906
 -5.905  -5.902  -5.902  -5.895  -5.895  -0.827  -0.773  -0.710
 -0.637  -0.601  -0.494  -0.456  -0.437  -0.417  -0.387  -0.377
 -0.357  -0.333  -0.323  -0.242  -0.240

          Ground-State Mulliken Net Atomic Charges

     Atom                 Charge (a.u.)    Spin (a.u.)
  --------------------------------------------------------
      1 S                    -0.042057      -0.000000
      2 S                    -0.053590       0.000000
      3 C                    -0.172575       0.000000
      4 C                    -0.330288      -0.000000
      5 C                    -0.336479      -0.000000
      6 H                     0.120272       0.000000
      7 H                     0.137400       0.000000
      8 H                     0.135902      -0.000000
      9 H                     0.137629       0.000000
     10 H                     0.141322       0.000000
     11 H                     0.143247       0.000000
     12 H                     0.057675       0.000000
     13 H                     0.061543      -0.000000
  --------------------------------------------------------
  Sum of atomic charges =     0.000000

                    Cartesian Multipole Moments
 -----------------------------------------------------------------
    Charge (ESU x 10^10)
                 0.0000
    Dipole Moment (Debye)
         X       0.7769      Y      -1.9142      Z       0.7700
       Tot       2.2047
    Quadrupole Moments (Debye-Ang)
        XX     -53.9166     XY      -4.3656     YY     -46.4206
        XZ      -2.0797     YZ       1.8505     ZZ     -46.7476

 Final energy is   -915.522493458609
 **  OPTIMIZATION CONVERGED  **
 Total job time:  19.66s(wall), 223.55s(cpu)
        *  Thank you very much for using Q-Chem.  Have a nice day.  *
