 Q-Chem 5.1, Q-Chem, Inc., Pleasanton, CA (2018)
 Q-Chem 5.1.1 for Intel X86 EM64T Linux

User input:
--------------------------------------------------------------

$comment
potential surface scanner
$end

$rem
JOBTYPE  PES_SCAN
UNRESTRICTED TRUE
SYM_IGNORE  TRUE
GEOM_OPT_MAX_CYCLES 400
SCF_MAX_CYCLES 400
METHOD   B3LYP
BASIS   6-31G**
PDB_PRINT 2
SCF_CONVERGENCE 6
THRESH 14
SCF_PRINT 1
$end
$molecule
0 3
S 2.926069 0.477352 -0.028986
S -4.068843 1.616198 0.363401
C 0.183503 0.102550 0.157851
C 1.492961 -0.693814 -0.042542
C -1.010096 -0.793615 0.146914
H 0.246865 0.644932 1.108740
H 0.108436 0.852294 -0.639221
H 1.615799 -1.424640 0.760563
H 1.469192 -1.222751 -0.998579
H -1.313694 -1.319099 1.047456
H -1.427203 -1.141916 -0.793512
H 3.886599 -0.446712 -0.227172
H -3.001387 0.772828 0.323981
$end
$scan
stre 2 5 3.800000 3.801000 0.100000
$end
--------------------------------------------------------------

   13    -915.4114715821      2.65e-07  Convergence criterion met
 Total energy in the final basis set =     -915.4114715821
   13    -915.4093215651      2.49e-07  Convergence criterion met
 Total energy in the final basis set =     -915.4093215651
   13    -915.4110849506      2.56e-07  Convergence criterion met
 Total energy in the final basis set =     -915.4110849506
   13    -915.4116365567      2.75e-07  Convergence criterion met
 Total energy in the final basis set =     -915.4116365567
   13    -915.4116553360      2.81e-07  Convergence criterion met
 Total energy in the final basis set =     -915.4116553360

             Standard Nuclear Orientation (Angstroms)
    I     Atom           X                Y                Z
 ----------------------------------------------------------------
    1      S       2.9097297478     0.4838681733    -0.0275831960
    2      S      -3.9802951209     1.5927411002     0.3600627246
    3      C       0.1673443893     0.1091370045     0.1578686328
    4      C       1.4768483070    -0.6874599737    -0.0411627264
    5      C      -1.0259563319    -0.7876971649     0.1469990093
    6      H       0.2298325479     0.6523162838     1.1083049812
    7      H       0.0922634582     0.8581111628    -0.6398692022
    8      H       1.5992603637    -1.4176883053     0.7625610500
    9      H       1.4536750772    -1.2170829991    -0.9968404677
   10      H      -1.3255450391    -1.3169908308     1.0467866156
   11      H      -1.4381381093    -1.1412594001    -0.7937530966
   12      H       3.8703417019    -0.4403771412    -0.2245220306
   13      H      -2.9211599919     0.7359890905     0.3200417059
 ----------------------------------------------------------------

   13    -915.4116559582      2.82e-07  Convergence criterion met
 Total energy in the final basis set =     -915.4116559582

                    Orbital Energies (a.u.)
 --------------------------------------------------------------

 Alpha MOs
 -- Occupied --
-88.902 -88.878 -10.231 -10.216 -10.209  -7.964  -7.940  -5.935
 -5.925  -5.916  -5.905  -5.902  -5.895  -0.821  -0.749  -0.729
 -0.655  -0.599  -0.491  -0.455  -0.428  -0.417  -0.400  -0.382
 -0.360  -0.333  -0.314  -0.266  -0.241  -0.228

 Beta MOs
 -- Occupied --
-88.896 -88.878 -10.229 -10.210 -10.203  -7.958  -7.940  -5.921
 -5.917  -5.913  -5.905  -5.902  -5.895  -0.815  -0.738  -0.688
 -0.639  -0.590  -0.488  -0.452  -0.422  -0.403  -0.387  -0.375
 -0.357  -0.331  -0.251  -0.241

          Ground-State Mulliken Net Atomic Charges

     Atom                 Charge (a.u.)    Spin (a.u.)
  --------------------------------------------------------
      1 S                    -0.047466       0.020585
      2 S                    -0.085049       1.059728
      3 C                    -0.200661      -0.070349
      4 C                    -0.317896       0.047209
      5 C                    -0.240994       1.029670
      6 H                     0.129459       0.010926
      7 H                     0.130353       0.013389
      8 H                     0.138889      -0.000660
      9 H                     0.138673      -0.000833
     10 H                     0.121683      -0.043529
     11 H                     0.121505      -0.043398
     12 H                     0.058336       0.000303
     13 H                     0.053167      -0.023042
  --------------------------------------------------------
  Sum of atomic charges =     0.000000

                    Cartesian Multipole Moments
 -----------------------------------------------------------------
    Charge (ESU x 10^10)
                 0.0000
    Dipole Moment (Debye)
         X       0.8582      Y      -2.5893      Z      -0.2150
       Tot       2.7363
    Quadrupole Moments (Debye-Ang)
        XX     -55.9447     XY      -1.1584     YY     -49.7959
        XZ      -0.1282     YZ      -0.2906     ZZ     -46.6984

 Final energy is   -915.411655958183
 **  OPTIMIZATION CONVERGED  **
 Total job time:  28.00s(wall), 319.94s(cpu)
        *  Thank you very much for using Q-Chem.  Have a nice day.  *
