 Q-Chem 5.1, Q-Chem, Inc., Pleasanton, CA (2018)
 Q-Chem 5.1.1 for Intel X86 EM64T Linux

User input:
--------------------------------------------------------------

$comment
potential surface scanner
$end

$rem
JOBTYPE  PES_SCAN
UNRESTRICTED TRUE
SYM_IGNORE  TRUE
GEOM_OPT_MAX_CYCLES 400
SCF_MAX_CYCLES 400
METHOD   B3LYP
BASIS   6-31G**
PDB_PRINT 2
SCF_CONVERGENCE 6
THRESH 14
SCF_PRINT 1
$end
$molecule
0 3
S 2.967611 0.000183 0.047363
S -4.060237 -0.542242 0.126262
C 0.250306 0.471835 0.267686
C 1.238499 -0.645633 -0.068184
C -1.210685 -0.007275 0.188392
H 0.456722 0.852255 1.274931
H 0.399175 1.310578 -0.422534
H 1.122800 -1.480102 0.629737
H 1.064398 -1.015729 -1.082737
H -1.390225 -0.820057 0.899527
H -1.440708 -0.378266 -0.816172
H 3.591705 -1.146263 -0.287686
H -1.881161 0.824321 0.422311
$end
$scan
stre 2 5 2.800000 2.801000 0.100000
$end
--------------------------------------------------------------

   10    -915.4397832539      8.07e-07  Convergence criterion met
 Total energy in the final basis set =     -915.4397832539
   10    -915.4374094526      4.87e-07  Convergence criterion met
 Total energy in the final basis set =     -915.4374094526
   10    -915.4374347255      5.65e-07  Convergence criterion met
 Total energy in the final basis set =     -915.4374347255
   10    -915.4374412249      6.00e-07  Convergence criterion met
 Total energy in the final basis set =     -915.4374412249
   10    -915.4374452937      6.30e-07  Convergence criterion met
 Total energy in the final basis set =     -915.4374452937
   10    -915.4374508293      6.75e-07  Convergence criterion met
 Total energy in the final basis set =     -915.4374508293
   10    -915.4374551174      7.07e-07  Convergence criterion met
 Total energy in the final basis set =     -915.4374551174
   10    -915.4374574292      7.13e-07  Convergence criterion met
 Total energy in the final basis set =     -915.4374574292

             Standard Nuclear Orientation (Angstroms)
    I     Atom           X                Y                Z
 ----------------------------------------------------------------
    1      S       2.9588465658    -0.0030349319     0.0397878146
    2      S      -3.9650932021    -0.5515240577     0.1001692381
    3      C       0.2436330147     0.4729503924     0.2688202115
    4      C       1.2285065267    -0.6471555099    -0.0670296407
    5      C      -1.2208180071    -0.0039365620     0.1955759340
    6      H       0.4529124756     0.8557039197     1.2745503466
    7      H       0.3907155426     1.3095969582    -0.4242285224
    8      H       1.1142873579    -1.4790287072     0.6342248366
    9      H       1.0500814161    -1.0205036723    -1.0796417412
   10      H      -1.3933284405    -0.8180688465     0.9062152401
   11      H      -1.4493790448    -0.3724279481    -0.8101721947
   12      H       3.5801754343    -1.1515858356    -0.2931557880
   13      H      -1.8823396392     0.8326198010     0.4337802655
 ----------------------------------------------------------------

   10    -915.4374576311      7.09e-07  Convergence criterion met
 Total energy in the final basis set =     -915.4374576311

                    Orbital Energies (a.u.)
 --------------------------------------------------------------

 Alpha MOs
 -- Occupied --
-88.922 -88.874 -10.223 -10.201 -10.194  -7.981  -7.936  -5.951
 -5.951  -5.932  -5.901  -5.898  -5.891  -0.815  -0.749  -0.716
 -0.657  -0.595  -0.481  -0.449  -0.439  -0.412  -0.376  -0.360
 -0.352  -0.328  -0.322  -0.301  -0.276  -0.237

 Beta MOs
 -- Occupied --
-88.911 -88.874 -10.223 -10.201 -10.193  -7.971  -7.936  -5.930
 -5.930  -5.926  -5.901  -5.898  -5.891  -0.814  -0.746  -0.663
 -0.622  -0.592  -0.481  -0.446  -0.438  -0.410  -0.370  -0.354
 -0.350  -0.326  -0.249  -0.237

          Ground-State Mulliken Net Atomic Charges

     Atom                 Charge (a.u.)    Spin (a.u.)
  --------------------------------------------------------
      1 S                    -0.049803       0.001913
      2 S                    -0.036749       1.943473
      3 C                    -0.194598       0.029584
      4 C                    -0.318539       0.000344
      5 C                    -0.360060       0.023734
      6 H                     0.120904       0.000311
      7 H                     0.120914      -0.000093
      8 H                     0.135161       0.000099
      9 H                     0.134950       0.000125
     10 H                     0.128378      -0.000367
     11 H                     0.125342      -0.000253
     12 H                     0.056296       0.000769
     13 H                     0.137805       0.000362
  --------------------------------------------------------
  Sum of atomic charges =    -0.000000

                    Cartesian Multipole Moments
 -----------------------------------------------------------------
    Charge (ESU x 10^10)
                -0.0000
    Dipole Moment (Debye)
         X      -0.4946      Y      -1.0444      Z      -0.2446
       Tot       1.1812
    Quadrupole Moments (Debye-Ang)
        XX     -53.4868     XY      -4.1017     YY     -47.0872
        XZ      -1.1092     YZ       0.3610     ZZ     -46.9596

 Final energy is   -915.437457631142
 **  OPTIMIZATION CONVERGED  **
 Total job time:  36.54s(wall), 416.25s(cpu)
        *  Thank you very much for using Q-Chem.  Have a nice day.  *
