 Q-Chem 5.1, Q-Chem, Inc., Pleasanton, CA (2018)
 Q-Chem 5.1.1 for Intel X86 EM64T Linux

User input:
--------------------------------------------------------------

$comment
potential surface scanner
$end

$rem
JOBTYPE  PES_SCAN
UNRESTRICTED TRUE
SYM_IGNORE  TRUE
GEOM_OPT_MAX_CYCLES 400
SCF_MAX_CYCLES 400
METHOD   B3LYP
BASIS   6-31G**
PDB_PRINT 2
SCF_CONVERGENCE 6
THRESH 14
SCF_PRINT 1
$end
$molecule
0 1
S 2.843055 0.502994 -0.010388
S -3.343602 0.854908 -0.028885
C 0.101424 0.162965 0.029311
C 1.409798 -0.665072 -0.027151
C -1.060747 -0.765356 0.028721
H 0.106060 0.778790 0.933111
H 0.058150 0.828368 -0.837052
H 1.478851 -1.333589 0.834983
H 1.441633 -1.263872 -0.940935
H -1.349313 -1.271246 0.944103
H -1.338037 -1.268702 -0.891291
H 3.804579 -0.440013 -0.064223
H -3.043659 1.303424 1.208594
$end
$scan
stre 2 5 2.900000 2.901000 0.100000
$end
--------------------------------------------------------------

   10    -915.4461882507      2.67e-07  Convergence criterion met
 Total energy in the final basis set =     -915.4461882507
   10    -915.4382539356      4.47e-07  Convergence criterion met
 Total energy in the final basis set =     -915.4382539356
   10    -915.4382576292      4.73e-07  Convergence criterion met
 Total energy in the final basis set =     -915.4382576292
   10    -915.4384586575      5.24e-07  Convergence criterion met
 Total energy in the final basis set =     -915.4384586575
   10    -915.4384665805      5.29e-07  Convergence criterion met
 Total energy in the final basis set =     -915.4384665805
   10    -915.4384770911      5.35e-07  Convergence criterion met
 Total energy in the final basis set =     -915.4384770911
   10    -915.4384793752      5.34e-07  Convergence criterion met
 Total energy in the final basis set =     -915.4384793752

             Standard Nuclear Orientation (Angstroms)
    I     Atom           X                Y                Z
 ----------------------------------------------------------------
    1      S       2.8526283207     0.5049263612    -0.0120105305
    2      S      -3.4087578807     0.8911806739    -0.0295952249
    3      C       0.1128543204     0.1506764237     0.0342852431
    4      C       1.4264480550    -0.6716757820    -0.0303376510
    5      C      -1.0416241633    -0.7829946933     0.0321485905
    6      H       0.1180175161     0.7612572122     0.9415188297
    7      H       0.0654445242     0.8188377183    -0.8298294039
    8      H       1.5009134294    -1.3438775356     0.8283440659
    9      H       1.4579039470    -1.2654280188    -0.9473075183
   10      H      -1.3487441942    -1.2754982605     0.9484120312
   11      H      -1.3355600373    -1.2719424176    -0.8901260477
   12      H       3.8192864462    -0.4321875103    -0.0748752140
   13      H      -3.1106182834     1.3403248287     1.2082708298
 ----------------------------------------------------------------

   10    -915.4384803142      5.32e-07  Convergence criterion met
 Total energy in the final basis set =     -915.4384803142

                    Orbital Energies (a.u.)
 --------------------------------------------------------------

 Alpha MOs
 -- Occupied --
-88.892 -88.858 -10.275 -10.249 -10.228  -7.954  -7.916  -5.919
 -5.916  -5.909  -5.881  -5.879  -5.871  -0.841  -0.766  -0.675
 -0.663  -0.617  -0.514  -0.475  -0.449  -0.426  -0.399  -0.380
 -0.360  -0.348  -0.254  -0.248  -0.220

 Beta MOs
 -- Occupied --
-88.892 -88.858 -10.275 -10.249 -10.228  -7.954  -7.916  -5.919
 -5.916  -5.909  -5.881  -5.879  -5.871  -0.841  -0.766  -0.675
 -0.663  -0.617  -0.514  -0.475  -0.449  -0.426  -0.399  -0.380
 -0.360  -0.348  -0.254  -0.248  -0.220

          Ground-State Mulliken Net Atomic Charges

     Atom                 Charge (a.u.)    Spin (a.u.)
  --------------------------------------------------------
      1 S                    -0.022763      -0.000000
      2 S                    -0.326073       0.000000
      3 C                    -0.205848      -0.000000
      4 C                    -0.341025       0.000000
      5 C                    -0.153448       0.000000
      6 H                     0.148378      -0.000000
      7 H                     0.164427       0.000000
      8 H                     0.145404       0.000000
      9 H                     0.147445       0.000000
     10 H                     0.164121      -0.000000
     11 H                     0.166300      -0.000000
     12 H                     0.063457       0.000000
     13 H                     0.049627       0.000000
  --------------------------------------------------------
  Sum of atomic charges =     0.000000

                    Cartesian Multipole Moments
 -----------------------------------------------------------------
    Charge (ESU x 10^10)
                 0.0000
    Dipole Moment (Debye)
         X       3.4381      Y      -3.1646      Z       0.7828
       Tot       4.7380
    Quadrupole Moments (Debye-Ang)
        XX     -61.3801     XY      -1.0609     YY     -46.8994
        XZ      -2.5979     YZ       2.0221     ZZ     -46.3252

 Final energy is   -915.438480314195
 **  OPTIMIZATION CONVERGED  **
 Total job time:  32.16s(wall), 367.13s(cpu)
        *  Thank you very much for using Q-Chem.  Have a nice day.  *
