 Q-Chem 5.1, Q-Chem, Inc., Pleasanton, CA (2018)
 Q-Chem 5.1.1 for Intel X86 EM64T Linux

User input:
--------------------------------------------------------------

$comment
potential surface scanner
$end

$rem
JOBTYPE  PES_SCAN
UNRESTRICTED TRUE
SYM_IGNORE  TRUE
GEOM_OPT_MAX_CYCLES 400
SCF_MAX_CYCLES 400
METHOD   B3LYP
BASIS   6-31G**
PDB_PRINT 2
SCF_CONVERGENCE 6
THRESH 14
SCF_PRINT 1
$end
$molecule
0 3
S 2.865936 0.483443 -0.021330
S -3.693928 1.446569 0.378085
C 0.118635 0.155822 0.150639
C 1.414727 -0.664784 -0.033326
C -1.088591 -0.724869 0.139175
H 0.181872 0.706226 1.096473
H 0.058739 0.898483 -0.654026
H 1.520871 -1.389792 0.777491
H 1.388829 -1.202336 -0.984542
H -1.372918 -1.268297 1.036574
H -1.460026 -1.120581 -0.802775
H 3.811770 -0.458065 -0.207669
H -2.637716 0.561787 0.304127
$end
$scan
stre 2 5 3.300000 3.301000 0.100000
$end
--------------------------------------------------------------

   12    -915.4116940802      8.32e-07  Convergence criterion met
 Total energy in the final basis set =     -915.4116940802
   12    -915.4102343845      9.60e-07  Convergence criterion met
 Total energy in the final basis set =     -915.4102343845
   12    -915.4110528158      9.46e-07  Convergence criterion met
 Total energy in the final basis set =     -915.4110528158
   12    -915.4114043991      9.56e-07  Convergence criterion met
 Total energy in the final basis set =     -915.4114043991
   12    -915.4114305643      9.50e-07  Convergence criterion met
 Total energy in the final basis set =     -915.4114305643
   12    -915.4114365373      9.49e-07  Convergence criterion met
 Total energy in the final basis set =     -915.4114365373
   12    -915.4114407390      9.50e-07  Convergence criterion met
 Total energy in the final basis set =     -915.4114407390
   12    -915.4114427840      9.53e-07  Convergence criterion met
 Total energy in the final basis set =     -915.4114427840

             Standard Nuclear Orientation (Angstroms)
    I     Atom           X                Y                Z
 ----------------------------------------------------------------
    1      S       2.8550841531     0.4810783354    -0.0204847534
    2      S      -3.6264998733     1.4106289116     0.3847419933
    3      C       0.1063470758     0.1704229740     0.1486275643
    4      C       1.3971625719    -0.6585690005    -0.0309736157
    5      C      -1.1059912443    -0.7050281374     0.1376961805
    6      H       0.1704296860     0.7229321199     1.0930716112
    7      H       0.0507593635     0.9112080526    -0.6578966634
    8      H       1.4981584411    -1.3816235919     0.7823035467
    9      H       1.3696321793    -1.1990307126    -0.9805198216
   10      H      -1.3749353877    -1.2625270701     1.0317980509
   11      H      -1.4625682830    -1.1145603415    -0.8045973706
   12      H       3.7953742764    -0.4668077633    -0.2025143467
   13      H      -2.5647529587     0.5154822238     0.2976436246
 ----------------------------------------------------------------

   12    -915.4114436771      9.55e-07  Convergence criterion met
 Total energy in the final basis set =     -915.4114436771

                    Orbital Energies (a.u.)
 --------------------------------------------------------------

 Alpha MOs
 -- Occupied --
-88.894 -88.880 -10.234 -10.223 -10.213  -7.956  -7.943  -5.927
 -5.918  -5.908  -5.908  -5.904  -5.897  -0.826  -0.755  -0.721
 -0.659  -0.603  -0.495  -0.459  -0.431  -0.427  -0.393  -0.384
 -0.363  -0.335  -0.308  -0.261  -0.243  -0.233

 Beta MOs
 -- Occupied --
-88.888 -88.880 -10.233 -10.213 -10.210  -7.949  -7.943  -5.912
 -5.908  -5.907  -5.904  -5.904  -5.897  -0.819  -0.743  -0.678
 -0.643  -0.596  -0.492  -0.455  -0.426  -0.410  -0.381  -0.374
 -0.361  -0.334  -0.244  -0.243

          Ground-State Mulliken Net Atomic Charges

     Atom                 Charge (a.u.)    Spin (a.u.)
  --------------------------------------------------------
      1 S                    -0.043045       0.020328
      2 S                    -0.086789       1.152105
      3 C                    -0.190537      -0.061919
      4 C                    -0.320751       0.043058
      5 C                    -0.262495       0.947200
      6 H                     0.133695       0.009307
      7 H                     0.134410       0.012014
      8 H                     0.139675      -0.000769
      9 H                     0.139401      -0.000937
     10 H                     0.133611      -0.036433
     11 H                     0.133643      -0.036425
     12 H                     0.058941       0.000544
     13 H                     0.030240      -0.048073
  --------------------------------------------------------
  Sum of atomic charges =     0.000000

                    Cartesian Multipole Moments
 -----------------------------------------------------------------
    Charge (ESU x 10^10)
                 0.0000
    Dipole Moment (Debye)
         X       1.1882      Y      -2.8071      Z      -0.2764
       Tot       3.0608
    Quadrupole Moments (Debye-Ang)
        XX     -56.5099     XY      -0.8226     YY     -49.5172
        XZ       0.1097     YZ      -0.4874     ZZ     -46.7628

 Final energy is   -915.411443677059
 **  OPTIMIZATION CONVERGED  **
 Total job time:  40.31s(wall), 464.66s(cpu)
        *  Thank you very much for using Q-Chem.  Have a nice day.  *
