 Q-Chem 5.1, Q-Chem, Inc., Pleasanton, CA (2018)
 Q-Chem 5.1.1 for Intel X86 EM64T Linux

User input:
--------------------------------------------------------------

$comment
potential surface scanner
$end

$rem
JOBTYPE  PES_SCAN
UNRESTRICTED TRUE
SYM_IGNORE  TRUE
GEOM_OPT_MAX_CYCLES 400
SCF_MAX_CYCLES 400
METHOD   B3LYP
BASIS   6-31G**
PDB_PRINT 2
SCF_CONVERGENCE 6
THRESH 14
SCF_PRINT 1
$end
$molecule
0 1
S 2.923625 0.497832 -0.030383
S -3.822451 1.116434 -0.044746
C 0.191092 0.088519 0.065774
C 1.523359 -0.709981 -0.054554
C -0.936556 -0.861142 0.059180
H 0.210265 0.670823 0.991231
H 0.121235 0.776762 -0.782374
H 1.626772 -1.405651 0.781489
H 1.541570 -1.272982 -0.990515
H -1.308075 -1.301456 0.977657
H -1.287295 -1.298004 -0.869324
H 3.906245 -0.417910 -0.139343
H -3.581591 1.540354 1.214801
$end
$scan
stre 2 5 3.600000 3.601000 0.100000
$end
--------------------------------------------------------------

   11    -915.4029625587      5.07e-07  Convergence criterion met
 Total energy in the final basis set =     -915.4029625587
   11    -915.3984519679      6.04e-07  Convergence criterion met
 Total energy in the final basis set =     -915.3984519679
   11    -915.3984062625      6.38e-07  Convergence criterion met
 Total energy in the final basis set =     -915.3984062625
   11    -915.3985459909      7.53e-07  Convergence criterion met
 Total energy in the final basis set =     -915.3985459909
   11    -915.3985506505      7.60e-07  Convergence criterion met
 Total energy in the final basis set =     -915.3985506505
   11    -915.3985628906      7.69e-07  Convergence criterion met
 Total energy in the final basis set =     -915.3985628906
   11    -915.3985742431      7.67e-07  Convergence criterion met
 Total energy in the final basis set =     -915.3985742431
   11    -915.3985834557      7.54e-07  Convergence criterion met
 Total energy in the final basis set =     -915.3985834557
   11    -915.3985877974      7.42e-07  Convergence criterion met
 Total energy in the final basis set =     -915.3985877974
   11    -915.3985900212      7.37e-07  Convergence criterion met
 Total energy in the final basis set =     -915.3985900212
   11    -915.3985911929      7.39e-07  Convergence criterion met
 Total energy in the final basis set =     -915.3985911929

             Standard Nuclear Orientation (Angstroms)
    I     Atom           X                Y                Z
 ----------------------------------------------------------------
    1      S       2.9381081056     0.4938768042    -0.0342653307
    2      S      -3.8966004831     1.1510778848    -0.0470112183
    3      C       0.2062593069     0.0796319175     0.0710831448
    4      C       1.5399710228    -0.7165250874    -0.0582380315
    5      C      -0.9196978081    -0.8702450802     0.0639098673
    6      H       0.2286361228     0.6575668921     0.9993226060
    7      H       0.1339009430     0.7714482440    -0.7742587445
    8      H       1.6472852925    -1.4156037487     0.7743673380
    9      H       1.5548198790    -1.2751205215    -0.9968245179
   10      H      -1.2965043510    -1.3071814549     0.9821465382
   11      H      -1.2782592498    -1.2997182256    -0.8652809553
   12      H       3.9215980783    -0.4198307567    -0.1518067938
   13      H      -3.6713218588     1.5742211324     1.2157490977
 ----------------------------------------------------------------

   11    -915.3985917226      7.44e-07  Convergence criterion met
 Total energy in the final basis set =     -915.3985917226

                    Orbital Energies (a.u.)
 --------------------------------------------------------------

 Alpha MOs
 -- Occupied --
-88.898 -88.846 -10.283 -10.259 -10.239  -7.961  -7.905  -5.926
 -5.922  -5.915  -5.869  -5.868  -5.859  -0.851  -0.775  -0.677
 -0.658  -0.625  -0.524  -0.484  -0.459  -0.435  -0.407  -0.389
 -0.355  -0.350  -0.260  -0.222  -0.209

 Beta MOs
 -- Occupied --
-88.898 -88.846 -10.283 -10.259 -10.239  -7.961  -7.905  -5.926
 -5.922  -5.915  -5.869  -5.868  -5.859  -0.851  -0.775  -0.677
 -0.658  -0.625  -0.524  -0.484  -0.459  -0.435  -0.407  -0.389
 -0.355  -0.350  -0.260  -0.222  -0.209

          Ground-State Mulliken Net Atomic Charges

     Atom                 Charge (a.u.)    Spin (a.u.)
  --------------------------------------------------------
      1 S                    -0.016510      -0.000000
      2 S                    -0.369121       0.000000
      3 C                    -0.223081       0.000000
      4 C                    -0.340229      -0.000000
      5 C                    -0.136982      -0.000000
      6 H                     0.156625      -0.000000
      7 H                     0.172388      -0.000000
      8 H                     0.150255      -0.000000
      9 H                     0.151955      -0.000000
     10 H                     0.169997       0.000000
     11 H                     0.172859       0.000000
     12 H                     0.066124      -0.000000
     13 H                     0.045721      -0.000000
  --------------------------------------------------------
  Sum of atomic charges =    -0.000000

                    Cartesian Multipole Moments
 -----------------------------------------------------------------
    Charge (ESU x 10^10)
                -0.0000
    Dipole Moment (Debye)
         X       4.9085      Y      -3.8193      Z       0.8376
       Tot       6.2755
    Quadrupole Moments (Debye-Ang)
        XX     -67.4984     XY       1.2977     YY     -47.6003
        XZ      -3.5507     YZ       2.2492     ZZ     -46.1108

 Final energy is   -915.398591722556
 **  OPTIMIZATION CONVERGED  **
 Total job time:  53.92s(wall), 565.97s(cpu)
        *  Thank you very much for using Q-Chem.  Have a nice day.  *
