 Q-Chem 5.1, Q-Chem, Inc., Pleasanton, CA (2018)
 Q-Chem 5.1.1 for Intel X86 EM64T Linux

User input:
--------------------------------------------------------------

$comment
potential surface scanner
$end

$rem
JOBTYPE  PES_SCAN
UNRESTRICTED TRUE
SYM_IGNORE  TRUE
GEOM_OPT_MAX_CYCLES 400
SCF_MAX_CYCLES 400
METHOD   B3LYP
BASIS   6-31G**
PDB_PRINT 2
SCF_CONVERGENCE 6
THRESH 14
SCF_PRINT 1
$end
$molecule
0 3
S 3.102540 0.455160 -0.056828
S -4.810496 1.617732 -0.053101
C 0.373473 -0.040630 0.103647
C 1.719612 -0.776301 -0.082119
C -0.780708 -0.986083 0.091689
H 0.406836 0.511371 1.051013
H 0.270927 0.699975 -0.699345
H 1.867089 -1.500304 0.722995
H 1.728578 -1.307093 -1.037328
H -1.113238 -1.472445 1.002833
H -1.214382 -1.321026 -0.844945
H 4.104599 -0.426042 -0.244749
H -4.546633 1.969288 1.225133
$end
$scan
stre 2 5 4.700000 4.701000 0.100000
$end
--------------------------------------------------------------

   12    -915.4089522865      8.47e-07  Convergence criterion met
 Total energy in the final basis set =     -915.4089522865
   12    -915.4087797497      8.68e-07  Convergence criterion met
 Total energy in the final basis set =     -915.4087797497
   12    -915.4088995081      8.60e-07  Convergence criterion met
 Total energy in the final basis set =     -915.4088995081
   12    -915.4089483245      8.52e-07  Convergence criterion met
 Total energy in the final basis set =     -915.4089483245
   12    -915.4089512524      8.52e-07  Convergence criterion met
 Total energy in the final basis set =     -915.4089512524
   12    -915.4089555785      8.53e-07  Convergence criterion met
 Total energy in the final basis set =     -915.4089555785

             Standard Nuclear Orientation (Angstroms)
    I     Atom           X                Y                Z
 ----------------------------------------------------------------
    1      S       3.0907574285     0.4597844743    -0.0560207899
    2      S      -4.7294464940     1.5834639887    -0.0593207411
    3      C       0.3622684076    -0.0359936349     0.1077202522
    4      C       1.7075292858    -0.7712379821    -0.0830063942
    5      C      -0.7931537397    -0.9800951309     0.0948400412
    6      H       0.3962704871     0.5129182852     1.0568564841
    7      H       0.2579789420     0.7080132833    -0.6919572704
    8      H       1.8565390015    -1.4981939609     0.7191732986
    9      H       1.7146216549    -1.2985782722    -1.0401780997
   10      H      -1.1146764208    -1.4792036603     1.0034268653
   11      H      -1.2150880906    -1.3269844876    -0.8430371974
   12      H       4.0921515049    -0.4213346837    -0.2478755741
   13      H      -4.5175549671     1.9710437810     1.2182741254
 ----------------------------------------------------------------

   12    -915.4089565361      8.53e-07  Convergence criterion met
 Total energy in the final basis set =     -915.4089565361

                    Orbital Energies (a.u.)
 --------------------------------------------------------------

 Alpha MOs
 -- Occupied --
-88.911 -88.872 -10.223 -10.200 -10.200  -7.972  -7.935  -5.944
 -5.934  -5.925  -5.900  -5.896  -5.889  -0.812  -0.740  -0.738
 -0.646  -0.589  -0.482  -0.447  -0.418  -0.413  -0.402  -0.373
 -0.350  -0.326  -0.321  -0.273  -0.236  -0.213

 Beta MOs
 -- Occupied --
-88.905 -88.872 -10.222 -10.201 -10.186  -7.967  -7.935  -5.931
 -5.926  -5.921  -5.899  -5.896  -5.889  -0.806  -0.728  -0.699
 -0.630  -0.579  -0.478  -0.444  -0.412  -0.399  -0.393  -0.366
 -0.348  -0.325  -0.259  -0.235

          Ground-State Mulliken Net Atomic Charges

     Atom                 Charge (a.u.)    Spin (a.u.)
  --------------------------------------------------------
      1 S                    -0.055606       0.021324
      2 S                    -0.074435       1.027989
      3 C                    -0.200680      -0.074106
      4 C                    -0.314109       0.046664
      5 C                    -0.226875       1.075135
      6 H                     0.121174       0.011364
      7 H                     0.126021       0.014655
      8 H                     0.136485      -0.000429
      9 H                     0.137021      -0.000668
     10 H                     0.109248      -0.047280
     11 H                     0.111596      -0.047228
     12 H                     0.056421       0.000028
     13 H                     0.073739      -0.027448
  --------------------------------------------------------
  Sum of atomic charges =     0.000000

                    Cartesian Multipole Moments
 -----------------------------------------------------------------
    Charge (ESU x 10^10)
                 0.0000
    Dipole Moment (Debye)
         X      -0.3686      Y      -1.3604      Z       0.8186
       Tot       1.6299
    Quadrupole Moments (Debye-Ang)
        XX     -49.6710     XY      -6.7373     YY     -46.8632
        XZ      -4.6885     YZ       2.7552     ZZ     -46.2657

 Final energy is   -915.408956536086
 **  OPTIMIZATION CONVERGED  **
 Total job time:  29.31s(wall), 335.76s(cpu)
        *  Thank you very much for using Q-Chem.  Have a nice day.  *
