 Q-Chem 5.1, Q-Chem, Inc., Pleasanton, CA (2018)
 Q-Chem 5.1.1 for Intel X86 EM64T Linux

User input:
--------------------------------------------------------------

$comment
potential surface scanner
$end

$rem
JOBTYPE  PES_SCAN
UNRESTRICTED TRUE
SYM_IGNORE  TRUE
GEOM_OPT_MAX_CYCLES 400
SCF_MAX_CYCLES 400
METHOD   B3LYP
BASIS   6-31G**
PDB_PRINT 2
SCF_CONVERGENCE 6
THRESH 14
SCF_PRINT 1
$end
$molecule
0 1
S 2.952444 0.489863 -0.037922
S -3.971714 1.185744 -0.044847
C 0.221186 0.071022 0.073632
C 1.556439 -0.723126 -0.061127
C -0.903382 -0.878964 0.066148
H 0.245670 0.646231 1.003626
H 0.147729 0.764805 -0.770285
H 1.666462 -1.423861 0.769640
H 1.569241 -1.279326 -1.001103
H -1.284368 -1.312597 0.984154
H -1.269216 -1.301400 -0.863485
H 3.937123 -0.421914 -0.160276
H -3.759418 1.607120 1.220741
$end
$scan
stre 2 5 3.800000 3.801000 0.100000
$end
--------------------------------------------------------------

   12    -915.3945969223      5.46e-07  Convergence criterion met
 Total energy in the final basis set =     -915.3945969223
   15    -915.3908314572      9.48e-07  Convergence criterion met
 Total energy in the final basis set =     -915.3908314572
   16    -915.3907886670      2.70e-07  Convergence criterion met
 Total energy in the final basis set =     -915.3907886670
   14    -915.3909069518      7.49e-07  Convergence criterion met
 Total energy in the final basis set =     -915.3909069518
   15    -915.3909111440      8.96e-07  Convergence criterion met
 Total energy in the final basis set =     -915.3909111440
   16    -915.3909196097      1.54e-07  Convergence criterion met
 Total energy in the final basis set =     -915.3909196097
   16    -915.3909308198      2.38e-07  Convergence criterion met
 Total energy in the final basis set =     -915.3909308198
   15    -915.3909389548      9.46e-07  Convergence criterion met
 Total energy in the final basis set =     -915.3909389548
   15    -915.3909432671      9.26e-07  Convergence criterion met
 Total energy in the final basis set =     -915.3909432671
   15    -915.3909457088      9.17e-07  Convergence criterion met
 Total energy in the final basis set =     -915.3909457088
   15    -915.3909476737      8.99e-07  Convergence criterion met
 Total energy in the final basis set =     -915.3909476737
   15    -915.3909488953      8.74e-07  Convergence criterion met
 Total energy in the final basis set =     -915.3909488953

             Standard Nuclear Orientation (Angstroms)
    I     Atom           X                Y                Z
 ----------------------------------------------------------------
    1      S       2.9648122248     0.4881495958    -0.0411754842
    2      S      -4.0433482937     1.2236051764    -0.0425681765
    3      C       0.2348958897     0.0606808467     0.0760348658
    4      C       1.5727368796    -0.7293933126    -0.0641281194
    5      C      -0.8876155341    -0.8904211293     0.0680808495
    6      H       0.2607073348     0.6332085917     1.0077698461
    7      H       0.1593276300     0.7566454121    -0.7661925066
    8      H       1.6863254493    -1.4317776801     0.7646805253
    9      H       1.5844733199    -1.2830481078    -1.0055631298
   10      H      -1.2726612742    -1.3208813210     0.9862571556
   11      H      -1.2602654955    -1.3058329303    -0.8622165305
   12      H       3.9519353824    -0.4203647183    -0.1678099146
   13      H      -3.8431275130     1.6430265766     1.2257266192
 ----------------------------------------------------------------

   15    -915.3909494362      8.49e-07  Convergence criterion met
 Total energy in the final basis set =     -915.3909494362

                    Orbital Energies (a.u.)
 --------------------------------------------------------------

 Alpha MOs
 -- Occupied --
-88.899 -88.844 -10.283 -10.260 -10.241  -7.961  -7.903  -5.926
 -5.923  -5.916  -5.867  -5.866  -5.858  -0.852  -0.776  -0.678
 -0.656  -0.627  -0.526  -0.486  -0.460  -0.436  -0.408  -0.391
 -0.356  -0.348  -0.261  -0.217  -0.208

 Beta MOs
 -- Occupied --
-88.899 -88.844 -10.283 -10.260 -10.241  -7.961  -7.903  -5.926
 -5.923  -5.916  -5.867  -5.866  -5.858  -0.852  -0.776  -0.678
 -0.656  -0.627  -0.526  -0.486  -0.460  -0.436  -0.408  -0.391
 -0.356  -0.348  -0.261  -0.217  -0.208

          Ground-State Mulliken Net Atomic Charges

     Atom                 Charge (a.u.)    Spin (a.u.)
  --------------------------------------------------------
      1 S                    -0.016041      -0.000000
      2 S                    -0.369343       0.000000
      3 C                    -0.224668       0.000000
      4 C                    -0.339049      -0.000000
      5 C                    -0.140128      -0.000000
      6 H                     0.157544      -0.000000
      7 H                     0.172326      -0.000000
      8 H                     0.151064      -0.000000
      9 H                     0.152586      -0.000000
     10 H                     0.170422       0.000000
     11 H                     0.173252       0.000000
     12 H                     0.066580      -0.000000
     13 H                     0.045457      -0.000000
  --------------------------------------------------------
  Sum of atomic charges =    -0.000000

                    Cartesian Multipole Moments
 -----------------------------------------------------------------
    Charge (ESU x 10^10)
                -0.0000
    Dipole Moment (Debye)
         X       5.2204      Y      -3.9601      Z       0.8373
       Tot       6.6058
    Quadrupole Moments (Debye-Ang)
        XX     -69.2368     XY       1.9562     YY     -47.8736
        XZ      -3.7540     YZ       2.3077     ZZ     -46.0556

 Final energy is   -915.390949436158
 **  OPTIMIZATION CONVERGED  **
 Total job time:  64.70s(wall), 752.08s(cpu)
        *  Thank you very much for using Q-Chem.  Have a nice day.  *
