 Q-Chem 5.1, Q-Chem, Inc., Pleasanton, CA (2018)
 Q-Chem 5.1.1 for Intel X86 EM64T Linux

User input:
--------------------------------------------------------------

$comment
potential surface scanner
$end

$rem
JOBTYPE  PES_SCAN
UNRESTRICTED TRUE
SYM_IGNORE  TRUE
GEOM_OPT_MAX_CYCLES 400
SCF_MAX_CYCLES 400
METHOD   B3LYP
BASIS   6-31G**
PDB_PRINT 2
SCF_CONVERGENCE 6
THRESH 14
SCF_PRINT 1
$end
$molecule
0 3
S 3.118866 0.452552 -0.055223
S -4.961532 1.707040 -0.033692
C 0.390258 -0.051099 0.093914
C 1.739921 -0.783348 -0.080021
C -0.760169 -1.001237 0.083742
H 0.417639 0.508029 1.037310
H 0.288053 0.682866 -0.715262
H 1.885103 -1.501494 0.730753
H 1.755830 -1.320430 -1.031578
H -1.094047 -1.482878 0.996996
H -1.188581 -1.345260 -0.852024
H 4.124033 -0.426416 -0.236826
H -4.607179 1.985276 1.240808
$end
$scan
stre 2 5 4.900000 4.901000 0.100000
$end
--------------------------------------------------------------

   12    -915.4089267400      8.33e-07  Convergence criterion met
 Total energy in the final basis set =     -915.4089267400
   12    -915.4084665165      8.69e-07  Convergence criterion met
 Total energy in the final basis set =     -915.4084665165
   12    -915.4087834846      8.56e-07  Convergence criterion met
 Total energy in the final basis set =     -915.4087834846
   12    -915.4089124362      8.37e-07  Convergence criterion met
 Total energy in the final basis set =     -915.4089124362
   12    -915.4089172777      8.38e-07  Convergence criterion met
 Total energy in the final basis set =     -915.4089172777
   12    -915.4089255255      8.39e-07  Convergence criterion met
 Total energy in the final basis set =     -915.4089255255
   12    -915.4089271264      8.39e-07  Convergence criterion met
 Total energy in the final basis set =     -915.4089271264
   12    -915.4089303028      8.40e-07  Convergence criterion met
 Total energy in the final basis set =     -915.4089303028
   12    -915.4089324161      8.41e-07  Convergence criterion met
 Total energy in the final basis set =     -915.4089324161
   12    -915.4089351824      8.41e-07  Convergence criterion met
 Total energy in the final basis set =     -915.4089351824
   12    -915.4089370321      8.40e-07  Convergence criterion met
 Total energy in the final basis set =     -915.4089370321
   12    -915.4089382349      8.40e-07  Convergence criterion met
 Total energy in the final basis set =     -915.4089382349

             Standard Nuclear Orientation (Angstroms)
    I     Atom           X                Y                Z
 ----------------------------------------------------------------
    1      S       3.1134051956     0.4504500906    -0.0543727022
    2      S      -4.8924123180     1.6580643882    -0.0385789045
    3      C       0.3832376178    -0.0435231595     0.0947819632
    4      C       1.7301959525    -0.7806621072    -0.0796259210
    5      C      -0.7708697960    -0.9891350888     0.0848140324
    6      H       0.4133345737     0.5153158582     1.0383133725
    7      H       0.2836916896     0.6910835684    -0.7140988403
    8      H       1.8729467269    -1.4996930722     0.7307999117
    9      H       1.7441996669    -1.3173586980    -1.0314361328
   10      H      -1.1036399946    -1.4726368859     0.9974769850
   11      H      -1.2030626351    -1.3286835486    -0.8508249421
   12      H       4.1156124316    -0.4318060220    -0.2364052294
   13      H      -4.5784441109     1.9721856768     1.2380534075
 ----------------------------------------------------------------

   12    -915.4089388777      8.40e-07  Convergence criterion met
 Total energy in the final basis set =     -915.4089388777

                    Orbital Energies (a.u.)
 --------------------------------------------------------------

 Alpha MOs
 -- Occupied --
-88.911 -88.872 -10.223 -10.200 -10.200  -7.973  -7.935  -5.944
 -5.934  -5.925  -5.900  -5.896  -5.889  -0.812  -0.740  -0.739
 -0.646  -0.589  -0.482  -0.447  -0.418  -0.413  -0.402  -0.373
 -0.350  -0.326  -0.321  -0.273  -0.236  -0.213

 Beta MOs
 -- Occupied --
-88.906 -88.872 -10.222 -10.201 -10.186  -7.967  -7.935  -5.931
 -5.926  -5.921  -5.899  -5.896  -5.889  -0.806  -0.729  -0.699
 -0.630  -0.579  -0.478  -0.444  -0.412  -0.400  -0.393  -0.366
 -0.348  -0.325  -0.259  -0.235

          Ground-State Mulliken Net Atomic Charges

     Atom                 Charge (a.u.)    Spin (a.u.)
  --------------------------------------------------------
      1 S                    -0.055873       0.021307
      2 S                    -0.074249       1.027741
      3 C                    -0.200448      -0.074530
      4 C                    -0.313970       0.046619
      5 C                    -0.227329       1.076138
      6 H                     0.121288       0.011906
      7 H                     0.125609       0.014484
      8 H                     0.136547      -0.000423
      9 H                     0.137056      -0.000625
     10 H                     0.109337      -0.047620
     11 H                     0.111709      -0.047558
     12 H                     0.056473      -0.000011
     13 H                     0.073850      -0.027429
  --------------------------------------------------------
  Sum of atomic charges =    -0.000000

                    Cartesian Multipole Moments
 -----------------------------------------------------------------
    Charge (ESU x 10^10)
                -0.0000
    Dipole Moment (Debye)
         X      -0.3115      Y      -1.4024      Z       0.8281
       Tot       1.6581
    Quadrupole Moments (Debye-Ang)
        XX     -50.4354     XY      -6.4033     YY     -47.0371
        XZ      -4.7443     YZ       2.7792     ZZ     -46.2253

 Final energy is   -915.408938877719
 **  OPTIMIZATION CONVERGED  **
 Total job time:  53.17s(wall), 614.77s(cpu)
        *  Thank you very much for using Q-Chem.  Have a nice day.  *
