 Q-Chem 5.1, Q-Chem, Inc., Pleasanton, CA (2018)
 Q-Chem 5.1.1 for Intel X86 EM64T Linux

User input:
--------------------------------------------------------------

$comment
potential surface scanner
$end

$rem
JOBTYPE  PES_SCAN
UNRESTRICTED TRUE
SYM_IGNORE  TRUE
GEOM_OPT_MAX_CYCLES 400
SCF_MAX_CYCLES 400
METHOD   B3LYP
BASIS   6-31G**
PDB_PRINT 2
SCF_CONVERGENCE 6
THRESH 14
SCF_PRINT 1
$end
$molecule
0 3
S 2.949209 -0.017480 0.033377
S -3.853070 -0.621606 0.070112
C 0.239606 0.479257 0.271015
C 1.213899 -0.649022 -0.066821
C -1.232666 0.015245 0.203916
H 0.454108 0.861163 1.275946
H 0.390020 1.314219 -0.423281
H 1.095592 -1.479060 0.635936
H 1.029087 -1.022286 -1.078326
H -1.400263 -0.798135 0.915848
H -1.459806 -0.349207 -0.803625
H 3.561088 -1.171142 -0.299282
H -1.878603 0.861657 0.444079
$end
$scan
stre 2 5 2.600000 2.601000 0.100000
$end
--------------------------------------------------------------

   10    -915.4342325459      5.18e-07  Convergence criterion met
 Total energy in the final basis set =     -915.4342325459
   10    -915.4296852710      5.00e-07  Convergence criterion met
 Total energy in the final basis set =     -915.4296852710
   10    -915.4297483000      4.98e-07  Convergence criterion met
 Total energy in the final basis set =     -915.4297483000
   10    -915.4298130737      4.98e-07  Convergence criterion met
 Total energy in the final basis set =     -915.4298130737
   10    -915.4298352960      4.99e-07  Convergence criterion met
 Total energy in the final basis set =     -915.4298352960
   10    -915.4298394157      5.01e-07  Convergence criterion met
 Total energy in the final basis set =     -915.4298394157

             Standard Nuclear Orientation (Angstroms)
    I     Atom           X                Y                Z
 ----------------------------------------------------------------
    1      S       2.9409312009    -0.0173194461     0.0333109298
    2      S      -3.7659999353    -0.6076810838     0.0719017140
    3      C       0.2310641385     0.4780763364     0.2704828966
    4      C       1.2058147044    -0.6495789042    -0.0669100829
    5      C      -1.2441846524     0.0112537128     0.2036905136
    6      H       0.4432564661     0.8598833838     1.2758770623
    7      H       0.3791644307     1.3131797528    -0.4239756808
    8      H       1.0878550604    -1.4794911255     0.6360618842
    9      H       1.0214156405    -1.0232223851    -1.0783668504
   10      H      -1.4010500747    -0.8028164769     0.9158714577
   11      H      -1.4631184207    -0.3510881193    -0.8061960446
   12      H       3.5529753076    -1.1713344884    -0.2978792167
   13      H      -1.8799228659     0.8637418435     0.4450254173
 ----------------------------------------------------------------

   10    -915.4298401328      5.00e-07  Convergence criterion met
 Total energy in the final basis set =     -915.4298401328

                    Orbital Energies (a.u.)
 --------------------------------------------------------------

 Alpha MOs
 -- Occupied --
-88.913 -88.875 -10.225 -10.204 -10.199  -7.974  -7.938  -5.943
 -5.942  -5.924  -5.903  -5.899  -5.892  -0.818  -0.755  -0.713
 -0.658  -0.597  -0.485  -0.452  -0.444  -0.418  -0.381  -0.363
 -0.357  -0.330  -0.314  -0.285  -0.270  -0.238

 Beta MOs
 -- Occupied --
-88.902 -88.875 -10.225 -10.203 -10.197  -7.963  -7.938  -5.922
 -5.922  -5.918  -5.903  -5.899  -5.892  -0.816  -0.750  -0.669
 -0.619  -0.590  -0.484  -0.447  -0.442  -0.415  -0.373  -0.357
 -0.353  -0.328  -0.243  -0.238

          Ground-State Mulliken Net Atomic Charges

     Atom                 Charge (a.u.)    Spin (a.u.)
  --------------------------------------------------------
      1 S                    -0.048294       0.002300
      2 S                    -0.053167       1.912606
      3 C                    -0.197400       0.046261
      4 C                    -0.319008      -0.000329
      5 C                    -0.382461       0.030028
      6 H                     0.122705       0.001016
      7 H                     0.122536      -0.000070
      8 H                     0.135921       0.000212
      9 H                     0.135530       0.000278
     10 H                     0.140923       0.001512
     11 H                     0.134055       0.002062
     12 H                     0.056939       0.001129
     13 H                     0.151721       0.002995
  --------------------------------------------------------
  Sum of atomic charges =    -0.000000

                    Cartesian Multipole Moments
 -----------------------------------------------------------------
    Charge (ESU x 10^10)
                -0.0000
    Dipole Moment (Debye)
         X      -0.1432      Y      -0.9225      Z      -0.2045
       Tot       0.9557
    Quadrupole Moments (Debye-Ang)
        XX     -55.2051     XY      -4.5243     YY     -47.0579
        XZ      -1.2308     YZ       0.6881     ZZ     -46.8396

 Final energy is   -915.429840132832
 **  OPTIMIZATION CONVERGED  **
 Total job time:  28.89s(wall), 325.78s(cpu)
        *  Thank you very much for using Q-Chem.  Have a nice day.  *
