 Q-Chem 5.1, Q-Chem, Inc., Pleasanton, CA (2018)
 Q-Chem 5.1.1 for Intel X86 EM64T Linux

User input:
--------------------------------------------------------------

$comment
potential surface scanner
$end

$rem
JOBTYPE  PES_SCAN
UNRESTRICTED TRUE
SYM_IGNORE  TRUE
GEOM_OPT_MAX_CYCLES 400
SCF_MAX_CYCLES 400
METHOD   B3LYP
BASIS   6-31G**
PDB_PRINT 2
SCF_CONVERGENCE 6
THRESH 14
SCF_PRINT 1
$end
$molecule
0 3
S 3.070933 0.462525 -0.093594
S -4.631296 1.509744 -0.063947
C 0.354166 -0.018124 0.137401
C 1.697277 -0.776011 -0.113108
C -0.761590 -0.970784 0.115951
H 0.416566 0.502868 1.096900
H 0.241749 0.723950 -0.664140
H 1.860266 -1.518306 0.671075
H 1.666212 -1.278930 -1.081993
H -1.190943 -1.369519 1.028617
H -1.133406 -1.370009 -0.822196
H 4.069578 -0.430097 -0.240398
H -4.551314 1.956292 1.208329
$end
$scan
stre 2 5 5.400000 5.401000 0.100000
$end
--------------------------------------------------------------

   12    -915.4081125387      8.26e-07  Convergence criterion met
 Total energy in the final basis set =     -915.4081125387
   12    -915.4067955481      7.73e-07  Convergence criterion met
 Total energy in the final basis set =     -915.4067955481
   12    -915.4059899612      7.24e-07  Convergence criterion met
 Total energy in the final basis set =     -915.4059899612
   12    -915.4062209231      7.21e-07  Convergence criterion met
 Total energy in the final basis set =     -915.4062209231
   12    -915.4061910143      7.68e-07  Convergence criterion met
 Total energy in the final basis set =     -915.4061910143
   12    -915.4058395242      8.10e-07  Convergence criterion met
 Total energy in the final basis set =     -915.4058395242
   12    -915.4062021946      8.53e-07  Convergence criterion met
 Total energy in the final basis set =     -915.4062021946
   12    -915.4067266860      8.49e-07  Convergence criterion met
   12    -915.4087433328      7.87e-07  Convergence criterion met
 Total energy in the final basis set =     -915.4087433328
   12    -915.4087691960      7.95e-07  Convergence criterion met
 Total energy in the final basis set =     -915.4087691960
   12    -915.4087862335      8.03e-07  Convergence criterion met
 Total energy in the final basis set =     -915.4087862335
   12    -915.4087943525      8.06e-07  Convergence criterion met
 Total energy in the final basis set =     -915.4087943525
   12    -915.4087975094      8.06e-07  Convergence criterion met
 Total energy in the final basis set =     -915.4087975094
   12    -915.4087987763      8.04e-07  Convergence criterion met
 Total energy in the final basis set =     -915.4087987763

             Standard Nuclear Orientation (Angstroms)
    I     Atom           X                Y                Z
 ----------------------------------------------------------------
    1      S       3.1494141662     0.4520086200    -0.1075430869
    2      S      -5.2278598585     1.8850422931    -0.1573344531
    3      C       0.4478866799    -0.1002415835     0.2194558650
    4      C       1.7799464649    -0.7936239717    -0.1357519706
    5      C      -0.7044132630    -1.0462579620     0.1681041510
    6      H       0.5340290158     0.3476989744     1.2154684091
    7      H       0.2954101813     0.7270267212    -0.4895066885
    8      H       1.9977177550    -1.5849588849     0.5856831378
    9      H       1.7194388617    -1.2365480429    -1.1333781165
   10      H      -1.1797165111    -1.4118619970     1.0714301155
   11      H      -1.0370443795    -1.4573727347    -0.7799852657
   12      H       4.1485244566    -0.4043899813    -0.3975399951
   13      H      -4.8151355694     2.0470775494     1.1197948979
 ----------------------------------------------------------------

   12    -915.4087993479      8.03e-07  Convergence criterion met
 Total energy in the final basis set =     -915.4087993479

                    Orbital Energies (a.u.)
 --------------------------------------------------------------

 Alpha MOs
 -- Occupied --
-88.912 -88.872 -10.223 -10.200 -10.200  -7.973  -7.935  -5.944
 -5.934  -5.925  -5.900  -5.896  -5.889  -0.812  -0.740  -0.739
 -0.646  -0.589  -0.481  -0.448  -0.421  -0.414  -0.400  -0.373
 -0.351  -0.326  -0.321  -0.274  -0.236  -0.212

 Beta MOs
 -- Occupied --
-88.906 -88.872 -10.222 -10.201 -10.186  -7.968  -7.935  -5.931
 -5.927  -5.922  -5.899  -5.896  -5.889  -0.806  -0.729  -0.699
 -0.631  -0.578  -0.477  -0.444  -0.415  -0.400  -0.391  -0.366
 -0.348  -0.325  -0.259  -0.235

          Ground-State Mulliken Net Atomic Charges

     Atom                 Charge (a.u.)    Spin (a.u.)
  --------------------------------------------------------
      1 S                    -0.055837       0.019131
      2 S                    -0.073791       1.027491
      3 C                    -0.199099      -0.075214
      4 C                    -0.315224       0.041488
      5 C                    -0.227630       1.078568
      6 H                     0.120278       0.003128
      7 H                     0.127537       0.030390
      8 H                     0.137784       0.000452
      9 H                     0.136432      -0.001255
     10 H                     0.110391      -0.048700
     11 H                     0.108966      -0.047800
     12 H                     0.056471      -0.000248
     13 H                     0.073721      -0.027431
  --------------------------------------------------------
  Sum of atomic charges =    -0.000000

                    Cartesian Multipole Moments
 -----------------------------------------------------------------
    Charge (ESU x 10^10)
                 0.0000
    Dipole Moment (Debye)
         X      -0.2559      Y      -1.4722      Z       0.8013
       Tot       1.6956
    Quadrupole Moments (Debye-Ang)
        XX     -51.7754     XY      -5.7455     YY     -47.0605
        XZ      -5.5212     YZ       3.0516     ZZ     -46.3092

 Final energy is   -915.408799347896
 **  OPTIMIZATION CONVERGED  **
 Total job time:  104.71s(wall), 1208.45s(cpu)
        *  Thank you very much for using Q-Chem.  Have a nice day.  *
