 Q-Chem 5.1, Q-Chem, Inc., Pleasanton, CA (2018)
 Q-Chem 5.1.1 for Intel X86 EM64T Linux

User input:
--------------------------------------------------------------

$comment
potential surface scanner
$end

$rem
JOBTYPE  PES_SCAN
UNRESTRICTED TRUE
SYM_IGNORE  TRUE
GEOM_OPT_MAX_CYCLES 400
SCF_MAX_CYCLES 400
METHOD   B3LYP
BASIS   6-31G**
PDB_PRINT 2
SCF_CONVERGENCE 6
THRESH 14
SCF_PRINT 1
$end
$molecule
0 3
S 2.959129 0.463880 -0.031536
S -4.245331 1.662536 0.370777
C 0.216212 0.089706 0.157685
C 1.525288 -0.706609 -0.045100
C -0.978424 -0.804651 0.146478
H 0.281182 0.630535 1.109447
H 0.141300 0.841047 -0.638021
H 1.648629 -1.438495 0.756944
H 1.500379 -1.234369 -1.001744
H -1.291237 -1.321388 1.048650
H -1.405517 -1.142020 -0.793210
H 3.919168 -0.459968 -0.233073
H -3.162577 0.843403 0.331597
$end
$scan
stre 2 5 4.000000 4.001000 0.100000
$end
--------------------------------------------------------------

   13    -915.4110339965      2.41e-07  Convergence criterion met
 Total energy in the final basis set =     -915.4110339965
   13    -915.4088923769      2.41e-07  Convergence criterion met
 Total energy in the final basis set =     -915.4088923769
   13    -915.4107047132      2.41e-07  Convergence criterion met
 Total energy in the final basis set =     -915.4107047132
   13    -915.4112419843      2.48e-07  Convergence criterion met
 Total energy in the final basis set =     -915.4112419843
   13    -915.4112593257      2.52e-07  Convergence criterion met
 Total energy in the final basis set =     -915.4112593257

             Standard Nuclear Orientation (Angstroms)
    I     Atom           X                Y                Z
 ----------------------------------------------------------------
    1      S       2.9425000432     0.4707113691    -0.0303089821
    2      S      -4.1571199510     1.6395741719     0.3670538849
    3      C       0.1997586674     0.0960828177     0.1577521197
    4      C       1.5090766570    -0.7001821489    -0.0438714543
    5      C      -0.9942868143    -0.7992654484     0.1467177630
    6      H       0.2639420021     0.6376923780     1.1090751594
    7      H       0.1247492322     0.8466062449    -0.6386526945
    8      H       1.6322208775    -1.4315511804     0.7586832890
    9      H       1.4847461400    -1.2285103313    -1.0002243741
   10      H      -1.3021728608    -1.3206467410     1.0480554447
   11      H      -1.4162444848    -1.1423354571    -0.7933488566
   12      H       3.9028590164    -0.4532268107    -0.2299045384
   13      H      -3.0818275248     0.8086581363     0.3278672394
 ----------------------------------------------------------------

   13    -915.4112598042      2.53e-07  Convergence criterion met
 Total energy in the final basis set =     -915.4112598042

                    Orbital Energies (a.u.)
 --------------------------------------------------------------

 Alpha MOs
 -- Occupied --
-88.904 -88.877 -10.230 -10.214 -10.208  -7.966  -7.940  -5.937
 -5.927  -5.918  -5.905  -5.901  -5.894  -0.820  -0.748  -0.731
 -0.654  -0.597  -0.490  -0.454  -0.426  -0.414  -0.402  -0.381
 -0.359  -0.332  -0.315  -0.268  -0.240  -0.226

 Beta MOs
 -- Occupied --
-88.899 -88.877 -10.228 -10.209 -10.200  -7.960  -7.940  -5.924
 -5.919  -5.915  -5.904  -5.901  -5.894  -0.813  -0.736  -0.691
 -0.638  -0.588  -0.487  -0.451  -0.421  -0.402  -0.390  -0.374
 -0.356  -0.331  -0.253  -0.240

          Ground-State Mulliken Net Atomic Charges

     Atom                 Charge (a.u.)    Spin (a.u.)
  --------------------------------------------------------
      1 S                    -0.048850       0.020633
      2 S                    -0.084701       1.047213
      3 C                    -0.202239      -0.071414
      4 C                    -0.316999       0.047450
      5 C                    -0.237646       1.043048
      6 H                     0.128140       0.011115
      7 H                     0.129127       0.013601
      8 H                     0.138618      -0.000615
      9 H                     0.138383      -0.000797
     10 H                     0.118889      -0.044596
     11 H                     0.118376      -0.044495
     12 H                     0.058138       0.000239
     13 H                     0.060764      -0.021382
  --------------------------------------------------------
  Sum of atomic charges =     0.000000

                    Cartesian Multipole Moments
 -----------------------------------------------------------------
    Charge (ESU x 10^10)
                 0.0000
    Dipole Moment (Debye)
         X       0.7585      Y      -2.5033      Z      -0.2071
       Tot       2.6238
    Quadrupole Moments (Debye-Ang)
        XX     -56.0057     XY      -1.2831     YY     -49.8339
        XZ      -0.1058     YZ      -0.1985     ZZ     -46.6931

 Final energy is   -915.411259804212
 **  OPTIMIZATION CONVERGED  **
 Total job time:  27.48s(wall), 316.83s(cpu)
        *  Thank you very much for using Q-Chem.  Have a nice day.  *
