 Q-Chem 5.1, Q-Chem, Inc., Pleasanton, CA (2018)
 Q-Chem 5.1.1 for Intel X86 EM64T Linux

User input:
--------------------------------------------------------------

$comment
potential surface scanner
$end

$rem
JOBTYPE  PES_SCAN
UNRESTRICTED TRUE
SYM_IGNORE  TRUE
GEOM_OPT_MAX_CYCLES 400
SCF_MAX_CYCLES 400
METHOD   B3LYP
BASIS   6-31G**
PDB_PRINT 2
SCF_CONVERGENCE 6
THRESH 14
SCF_PRINT 1
$end
$molecule
0 1
S 2.797687 0.480841 -0.006339
S -3.001966 0.590557 -0.009451
C 0.045814 0.232640 0.009751
C 1.319269 -0.629220 -0.010798
C -1.182936 -0.646589 0.015011
H 0.056884 0.872760 0.898153
H 0.029273 0.889350 -0.865036
H 1.358360 -1.278969 0.868152
H 1.343882 -1.254230 -0.907875
H -1.323688 -1.254107 0.907173
H -1.336723 -1.228526 -0.892499
H 3.726061 -0.496342 -0.014990
H -2.723719 1.145435 1.187647
$end
$scan
stre 2 5 2.300000 2.301000 0.100000
$end
--------------------------------------------------------------

    9    -915.5010452700      7.51e-07  Convergence criterion met
 Total energy in the final basis set =     -915.5010452700
    9    -915.4914943687      8.06e-07  Convergence criterion met
 Total energy in the final basis set =     -915.4914943687
    9    -915.4913995283      8.06e-07  Convergence criterion met
 Total energy in the final basis set =     -915.4913995283
    9    -915.4914725460      8.06e-07  Convergence criterion met
 Total energy in the final basis set =     -915.4914725460
    9    -915.4914746798      8.06e-07  Convergence criterion met
 Total energy in the final basis set =     -915.4914746798

             Standard Nuclear Orientation (Angstroms)
    I     Atom           X                Y                Z
 ----------------------------------------------------------------
    1      S       2.8034600113     0.4865504440    -0.0064594879
    2      S      -3.0565193646     0.6352222920    -0.0081418711
    3      C       0.0534992372     0.2208151112     0.0106273649
    4      C       1.3335082549    -0.6347362978    -0.0129086902
    5      C      -1.1619642856    -0.6686778742     0.0143315723
    6      H       0.0615604190     0.8578805918     0.9008196234
    7      H       0.0329256812     0.8777628059    -0.8635849381
    8      H       1.3770573856    -1.2862223382     0.8644264080
    9      H       1.3612533516    -1.2568860591    -0.9117597349
   10      H      -1.3315931688    -1.2587039698     0.9119463210
   11      H      -1.3409290613    -1.2358566238    -0.8964905299
   12      H       3.7385023661    -0.4842583853    -0.0182456502
   13      H      -2.7625628266     1.1707103031     1.1943386128
 ----------------------------------------------------------------

    9    -915.4914752212      8.06e-07  Convergence criterion met
 Total energy in the final basis set =     -915.4914752212

                    Orbital Energies (a.u.)
 --------------------------------------------------------------

 Alpha MOs
 -- Occupied --
-88.884 -88.873 -10.254 -10.237 -10.214  -7.946  -7.933  -5.911
 -5.907  -5.900  -5.897  -5.895  -5.887  -0.829  -0.758  -0.696
 -0.650  -0.607  -0.500  -0.461  -0.435  -0.416  -0.389  -0.377
 -0.365  -0.338  -0.292  -0.246  -0.236

 Beta MOs
 -- Occupied --
-88.884 -88.873 -10.254 -10.237 -10.214  -7.946  -7.933  -5.911
 -5.907  -5.900  -5.897  -5.895  -5.887  -0.829  -0.758  -0.696
 -0.650  -0.607  -0.500  -0.461  -0.435  -0.416  -0.389  -0.377
 -0.365  -0.338  -0.292  -0.246  -0.236

          Ground-State Mulliken Net Atomic Charges

     Atom                 Charge (a.u.)    Spin (a.u.)
  --------------------------------------------------------
      1 S                    -0.034725      -0.000000
      2 S                    -0.184586      -0.000000
      3 C                    -0.177747       0.000000
      4 C                    -0.334635      -0.000000
      5 C                    -0.254131      -0.000000
      6 H                     0.131734      -0.000000
      7 H                     0.148073      -0.000000
      8 H                     0.139238      -0.000000
      9 H                     0.141293       0.000000
     10 H                     0.153042      -0.000000
     11 H                     0.153062       0.000000
     12 H                     0.059958      -0.000000
     13 H                     0.059425       0.000000
  --------------------------------------------------------
  Sum of atomic charges =    -0.000000

                    Cartesian Multipole Moments
 -----------------------------------------------------------------
    Charge (ESU x 10^10)
                -0.0000
    Dipole Moment (Debye)
         X       1.7354      Y      -2.3393      Z       0.7498
       Tot       3.0077
    Quadrupole Moments (Debye-Ang)
        XX     -56.3355     XY      -3.3197     YY     -46.5558
        XZ      -2.0133     YZ       1.9129     ZZ     -46.6073

 Final energy is   -915.491475221228
 **  OPTIMIZATION CONVERGED  **
 Total job time:  23.63s(wall), 268.49s(cpu)
        *  Thank you very much for using Q-Chem.  Have a nice day.  *
