 Q-Chem 5.1, Q-Chem, Inc., Pleasanton, CA (2018)
 Q-Chem 5.1.1 for Intel X86 EM64T Linux

User input:
--------------------------------------------------------------

$comment
potential surface scanner
$end

$rem
JOBTYPE  PES_SCAN
UNRESTRICTED TRUE
SYM_IGNORE  TRUE
GEOM_OPT_MAX_CYCLES 400
SCF_MAX_CYCLES 400
METHOD   B3LYP
BASIS   6-31G**
PDB_PRINT 2
SCF_CONVERGENCE 6
THRESH 14
SCF_PRINT 1
$end
$molecule
0 1
S 2.988787 0.484887 -0.049516
S -4.186663 1.300167 -0.043289
C 0.261752 0.040330 0.085023
C 1.604007 -0.741034 -0.072381
C -0.856902 -0.913107 0.075508
H 0.292613 0.604747 1.021678
H 0.179178 0.743271 -0.751409
H 1.726937 -1.449445 0.749802
H 1.610841 -1.286507 -1.018539
H -1.249152 -1.338642 0.993397
H -1.236672 -1.319653 -0.856123
H 3.980494 -0.417352 -0.184650
H -4.007024 1.715936 1.229396
$end
$scan
stre 2 5 4.100000 4.101000 0.100000
$end
--------------------------------------------------------------

   16    -915.3845649131      3.44e-07  Convergence criterion met
 Total energy in the final basis set =     -915.3845649131
   16    -915.3816783501      8.26e-07  Convergence criterion met
 Total energy in the final basis set =     -915.3816783501
   16    -915.3816651156      7.78e-07  Convergence criterion met
 Total energy in the final basis set =     -915.3816651156
   16    -915.3817412647      4.33e-07  Convergence criterion met
 Total energy in the final basis set =     -915.3817412647
   16    -915.3817447924      4.01e-07  Convergence criterion met
 Total energy in the final basis set =     -915.3817447924
   16    -915.3817554289      3.39e-07  Convergence criterion met
 Total energy in the final basis set =     -915.3817554289
   16    -915.3817598351      3.41e-07  Convergence criterion met
 Total energy in the final basis set =     -915.3817598351
   16    -915.3817654136      3.71e-07  Convergence criterion met
 Total energy in the final basis set =     -915.3817654136
   16    -915.3817701754      3.95e-07  Convergence criterion met
 Total energy in the final basis set =     -915.3817701754
   16    -915.3817745213      4.04e-07  Convergence criterion met
 Total energy in the final basis set =     -915.3817745213
   16    -915.3817770728      3.85e-07  Convergence criterion met
 Total energy in the final basis set =     -915.3817770728
   16    -915.3817787893      3.55e-07  Convergence criterion met
 Total energy in the final basis set =     -915.3817787893
   16    -915.3817800695      3.26e-07  Convergence criterion met
 Total energy in the final basis set =     -915.3817800695

             Standard Nuclear Orientation (Angstroms)
    I     Atom           X                Y                Z
 ----------------------------------------------------------------
    1      S       2.9997131349     0.4845042475    -0.0552415241
    2      S      -4.2553695368     1.3398525130    -0.0479120693
    3      C       0.2748316884     0.0287097499     0.0930655796
    4      C       1.6195033056    -0.7464605746    -0.0783839958
    5      C      -0.8413475551    -0.9267569171     0.0822230478
    6      H       0.3097780511     0.5866888176     1.0334328233
    7      H       0.1860936181     0.7374212999    -0.7382615992
    8      H       1.7495989338    -1.4600545837     0.7381438875
    9      H       1.6219829029    -1.2852398290    -1.0283613959
   10      H      -1.2371559539    -1.3495460547     0.9997667495
   11      H      -1.2229191965    -1.3290299458    -0.8505481457
   12      H       3.9943918180    -0.4136918714    -0.1953108359
   13      H      -4.0909052107     1.7572011483     1.2262844781
 ----------------------------------------------------------------

   16    -915.3817808251      3.08e-07  Convergence criterion met
 Total energy in the final basis set =     -915.3817808251

                    Orbital Energies (a.u.)
 --------------------------------------------------------------

 Alpha MOs
 -- Occupied --
-88.900 -88.841 -10.282 -10.262 -10.243  -7.962  -7.901  -5.927
 -5.924  -5.917  -5.864  -5.864  -5.855  -0.853  -0.777  -0.680
 -0.654  -0.628  -0.527  -0.488  -0.462  -0.438  -0.409  -0.393
 -0.357  -0.346  -0.262  -0.212  -0.206

 Beta MOs
 -- Occupied --
-88.900 -88.841 -10.282 -10.262 -10.243  -7.962  -7.901  -5.927
 -5.924  -5.917  -5.864  -5.864  -5.855  -0.853  -0.777  -0.680
 -0.654  -0.628  -0.527  -0.488  -0.462  -0.438  -0.409  -0.393
 -0.357  -0.346  -0.262  -0.212  -0.206

          Ground-State Mulliken Net Atomic Charges

     Atom                 Charge (a.u.)    Spin (a.u.)
  --------------------------------------------------------
      1 S                    -0.015927      -0.000000
      2 S                    -0.364982       0.000000
      3 C                    -0.225662       0.000000
      4 C                    -0.337225      -0.000000
      5 C                    -0.145728      -0.000000
      6 H                     0.157564      -0.000000
      7 H                     0.172129      -0.000000
      8 H                     0.151792      -0.000000
      9 H                     0.153139      -0.000000
     10 H                     0.170210       0.000000
     11 H                     0.172498       0.000000
     12 H                     0.067054      -0.000000
     13 H                     0.045138      -0.000000
  --------------------------------------------------------
  Sum of atomic charges =    -0.000000

                    Cartesian Multipole Moments
 -----------------------------------------------------------------
    Charge (ESU x 10^10)
                -0.0000
    Dipole Moment (Debye)
         X       5.6054      Y      -4.1599      Z       0.8584
       Tot       7.0330
    Quadrupole Moments (Debye-Ang)
        XX     -71.6923     XY       2.9704     YY     -48.3091
        XZ      -4.1172     YZ       2.4161     ZZ     -46.0110

 Final energy is   -915.381780825104
 **  OPTIMIZATION CONVERGED  **
 Total job time:  72.22s(wall), 840.54s(cpu)
        *  Thank you very much for using Q-Chem.  Have a nice day.  *
