 Q-Chem 5.1, Q-Chem, Inc., Pleasanton, CA (2018)
 Q-Chem 5.1.1 for Intel X86 EM64T Linux

User input:
--------------------------------------------------------------

$comment
potential surface scanner
$end

$rem
JOBTYPE  PES_SCAN
UNRESTRICTED TRUE
SYM_IGNORE  TRUE
GEOM_OPT_MAX_CYCLES 400
SCF_MAX_CYCLES 400
METHOD   B3LYP
BASIS   6-31G**
PDB_PRINT 2
SCF_CONVERGENCE 6
THRESH 14
SCF_PRINT 1
$end
$molecule
0 1
S 3.012156 0.482387 -0.061983
S -4.326263 1.377355 -0.053214
C 0.289160 0.018160 0.102197
C 1.634970 -0.751957 -0.085031
C -0.825363 -0.938511 0.089823
H 0.329131 0.568903 1.046579
H 0.194247 0.733438 -0.723247
H 1.772327 -1.471412 0.725085
H 1.631660 -1.283379 -1.039116
H -1.225068 -1.358379 1.006763
H -1.207029 -1.338153 -0.844005
H 4.008597 -0.413058 -0.206955
H -4.180330 1.798202 1.222000
$end
$scan
stre 2 5 4.300000 4.301000 0.100000
$end
--------------------------------------------------------------

   17    -915.3792494319      5.64e-07  Convergence criterion met
 Total energy in the final basis set =     -915.3792494319
   18    -915.3765262529      5.04e-07  Convergence criterion met
 Total energy in the final basis set =     -915.3765262529
   18    -915.3767659630      8.80e-07  Convergence criterion met
 Total energy in the final basis set =     -915.3767659630
   17    -915.3769031407      9.57e-07  Convergence criterion met
 Total energy in the final basis set =     -915.3769031407
   18    -915.3769142610      8.86e-08  Convergence criterion met
 Total energy in the final basis set =     -915.3769142610
   18    -915.3769359145      2.19e-07  Convergence criterion met
 Total energy in the final basis set =     -915.3769359145
   17    -915.3769410644      6.42e-07  Convergence criterion met
 Total energy in the final basis set =     -915.3769410644
   19    -915.3769444297      4.26e-07  Convergence criterion met
   19    -915.3769481365      3.78e-07  Convergence criterion met
 Total energy in the final basis set =     -915.3769481365
   19    -915.3769493057      3.61e-07  Convergence criterion met
 Total energy in the final basis set =     -915.3769493057
   19    -915.3769507711      3.51e-07  Convergence criterion met
 Total energy in the final basis set =     -915.3769507711
   19    -915.3769528920      3.63e-07  Convergence criterion met
 Total energy in the final basis set =     -915.3769528920
   19    -915.3769556572      4.27e-07  Convergence criterion met
 Total energy in the final basis set =     -915.3769556572
   19    -915.3769578654      5.14e-07  Convergence criterion met
 Total energy in the final basis set =     -915.3769578654

             Standard Nuclear Orientation (Angstroms)
    I     Atom           X                Y                Z
 ----------------------------------------------------------------
    1      S       3.0259743601     0.4784788465    -0.0713689575
    2      S      -4.3998534467     1.4119896870    -0.0580467923
    3      C       0.3043648886     0.0092754068     0.1121864141
    4      C       1.6497847499    -0.7572651208    -0.0935968242
    5      C      -0.8089061118    -0.9482434564     0.0981378217
    6      H       0.3507342216     0.5515549060     1.0609856401
    7      H       0.2033357679     0.7311547400    -0.7072772640
    8      H       1.7950821499    -1.4837682726     0.7087479281
    9      H       1.6384594158    -1.2800414651    -1.0523718983
   10      H      -1.2146524540    -1.3644904651     1.0139139830
   11      H      -1.1884225928    -1.3478026314    -0.8366384258
   12      H       4.0233517843    -0.4165118053    -0.2125959269
   13      H      -4.2710577328     1.8392656303     1.2168203019
 ----------------------------------------------------------------

   19    -915.3769588206      5.66e-07  Convergence criterion met
 Total energy in the final basis set =     -915.3769588206

                    Orbital Energies (a.u.)
 --------------------------------------------------------------

 Alpha MOs
 -- Occupied --
-88.900 -88.840 -10.282 -10.262 -10.244  -7.963  -7.899  -5.928
 -5.924  -5.917  -5.863  -5.863  -5.854  -0.854  -0.778  -0.680
 -0.653  -0.628  -0.528  -0.488  -0.462  -0.438  -0.410  -0.394
 -0.357  -0.345  -0.262  -0.209  -0.205

 Beta MOs
 -- Occupied --
-88.900 -88.840 -10.282 -10.262 -10.244  -7.963  -7.899  -5.928
 -5.924  -5.917  -5.863  -5.863  -5.854  -0.854  -0.778  -0.680
 -0.653  -0.628  -0.528  -0.488  -0.462  -0.438  -0.410  -0.394
 -0.357  -0.345  -0.262  -0.209  -0.205

          Ground-State Mulliken Net Atomic Charges

     Atom                 Charge (a.u.)    Spin (a.u.)
  --------------------------------------------------------
      1 S                    -0.016123      -0.000000
      2 S                    -0.361194       0.000008
      3 C                    -0.225671       0.000000
      4 C                    -0.336288      -0.000000
      5 C                    -0.148739      -0.000007
      6 H                     0.156973      -0.000000
      7 H                     0.172023      -0.000000
      8 H                     0.152108      -0.000000
      9 H                     0.153404      -0.000000
     10 H                     0.169868       0.000000
     11 H                     0.171266       0.000000
     12 H                     0.067289      -0.000000
     13 H                     0.045085      -0.000000
  --------------------------------------------------------
  Sum of atomic charges =     0.000000

                    Cartesian Multipole Moments
 -----------------------------------------------------------------
    Charge (ESU x 10^10)
                 0.0000
    Dipole Moment (Debye)
         X       5.8319      Y      -4.2678      Z       0.8933
       Tot       7.2817
    Quadrupole Moments (Debye-Ang)
        XX     -73.3294     XY       3.5699     YY     -48.5589
        XZ      -4.3914     YZ       2.5050     ZZ     -46.0105

 Final energy is   -915.376958820646
 **  OPTIMIZATION CONVERGED  **
 Total job time:  90.31s(wall), 1054.91s(cpu)
        *  Thank you very much for using Q-Chem.  Have a nice day.  *
