 Q-Chem 5.1, Q-Chem, Inc., Pleasanton, CA (2018)
 Q-Chem 5.1.1 for Intel X86 EM64T Linux

User input:
--------------------------------------------------------------

$comment
potential surface scanner
$end

$rem
JOBTYPE  PES_SCAN
UNRESTRICTED TRUE
SYM_IGNORE  TRUE
GEOM_OPT_MAX_CYCLES 400
SCF_MAX_CYCLES 400
METHOD   B3LYP
BASIS   6-31G**
PDB_PRINT 2
SCF_CONVERGENCE 6
THRESH 14
SCF_PRINT 1
$end
$molecule
0 1
S 2.938108 0.493877 -0.034265
S -3.896600 1.151078 -0.047011
C 0.206259 0.079632 0.071083
C 1.539971 -0.716525 -0.058238
C -0.919698 -0.870245 0.063910
H 0.228636 0.657567 0.999323
H 0.133901 0.771448 -0.774259
H 1.647285 -1.415604 0.774367
H 1.554820 -1.275121 -0.996825
H -1.296504 -1.307181 0.982147
H -1.278259 -1.299718 -0.865281
H 3.921598 -0.419831 -0.151807
H -3.671322 1.574221 1.215749
$end
$scan
stre 2 5 3.700000 3.701000 0.100000
$end
--------------------------------------------------------------

   11    -915.3985917454      7.44e-07  Convergence criterion met
 Total energy in the final basis set =     -915.3985917454
   12    -915.3944691724      3.99e-07  Convergence criterion met
 Total energy in the final basis set =     -915.3944691724
   12    -915.3944251631      4.58e-07  Convergence criterion met
 Total energy in the final basis set =     -915.3944251631
   12    -915.3945536662      6.23e-07  Convergence criterion met
 Total energy in the final basis set =     -915.3945536662
   12    -915.3945579505      6.30e-07  Convergence criterion met
 Total energy in the final basis set =     -915.3945579505
   12    -915.3945685811      6.36e-07  Convergence criterion met
 Total energy in the final basis set =     -915.3945685811
   12    -915.3945794739      6.21e-07  Convergence criterion met
 Total energy in the final basis set =     -915.3945794739
   12    -915.3945882334      5.90e-07  Convergence criterion met
 Total energy in the final basis set =     -915.3945882334
   12    -915.3945923460      5.62e-07  Convergence criterion met
 Total energy in the final basis set =     -915.3945923460
   12    -915.3945945774      5.47e-07  Convergence criterion met
 Total energy in the final basis set =     -915.3945945774
   12    -915.3945960880      5.42e-07  Convergence criterion met
 Total energy in the final basis set =     -915.3945960880

             Standard Nuclear Orientation (Angstroms)
    I     Atom           X                Y                Z
 ----------------------------------------------------------------
    1      S       2.9524442114     0.4898633588    -0.0379219375
    2      S      -3.9717140414     1.1857435913    -0.0448474057
    3      C       0.2211861893     0.0710221971     0.0736317119
    4      C       1.5564385786    -0.7231259603    -0.0611274317
    5      C      -0.9033816601    -0.8789636471     0.0661482586
    6      H       0.2456696526     0.6462307227     1.0036256040
    7      H       0.1477285017     0.7648054234    -0.7702854555
    8      H       1.6664623818    -1.4238607571     0.7696397976
    9      H       1.5692407491    -1.2793262559    -1.0011034847
   10      H      -1.2843683503    -1.3125969577     0.9841540200
   11      H      -1.2692162988    -1.3013998000    -0.8634852897
   12      H       3.9371226213    -0.4219142977    -0.1602762356
   13      H      -3.7594175351     1.6071203824     1.2207408483
 ----------------------------------------------------------------

   12    -915.3945969256      5.46e-07  Convergence criterion met
 Total energy in the final basis set =     -915.3945969256

                    Orbital Energies (a.u.)
 --------------------------------------------------------------

 Alpha MOs
 -- Occupied --
-88.899 -88.845 -10.283 -10.260 -10.240  -7.961  -7.904  -5.926
 -5.923  -5.915  -5.868  -5.867  -5.858  -0.851  -0.775  -0.678
 -0.657  -0.626  -0.525  -0.485  -0.459  -0.436  -0.407  -0.390
 -0.355  -0.349  -0.260  -0.219  -0.208

 Beta MOs
 -- Occupied --
-88.899 -88.845 -10.283 -10.260 -10.240  -7.961  -7.904  -5.926
 -5.923  -5.915  -5.868  -5.867  -5.858  -0.851  -0.775  -0.678
 -0.657  -0.626  -0.525  -0.485  -0.459  -0.436  -0.407  -0.390
 -0.355  -0.349  -0.260  -0.219  -0.208

          Ground-State Mulliken Net Atomic Charges

     Atom                 Charge (a.u.)    Spin (a.u.)
  --------------------------------------------------------
      1 S                    -0.016233       0.000000
      2 S                    -0.369578       0.000000
      3 C                    -0.224024       0.000000
      4 C                    -0.339668      -0.000000
      5 C                    -0.138401      -0.000000
      6 H                     0.157152       0.000000
      7 H                     0.172393      -0.000000
      8 H                     0.150705      -0.000000
      9 H                     0.152312       0.000000
     10 H                     0.170262       0.000000
     11 H                     0.173121       0.000000
     12 H                     0.066376      -0.000000
     13 H                     0.045582       0.000000
  --------------------------------------------------------
  Sum of atomic charges =    -0.000000

                    Cartesian Multipole Moments
 -----------------------------------------------------------------
    Charge (ESU x 10^10)
                -0.0000
    Dipole Moment (Debye)
         X       5.0713      Y      -3.8876      Z       0.8380
       Tot       6.4447
    Quadrupole Moments (Debye-Ang)
        XX     -68.3879     XY       1.6151     YY     -47.7303
        XZ      -3.6573     YZ       2.2786     ZZ     -46.0823

 Final energy is   -915.394596925579
 **  OPTIMIZATION CONVERGED  **
 Total job time:  51.63s(wall), 597.11s(cpu)
        *  Thank you very much for using Q-Chem.  Have a nice day.  *
