 Q-Chem 5.1, Q-Chem, Inc., Pleasanton, CA (2018)
 Q-Chem 5.1.1 for Intel X86 EM64T Linux

User input:
--------------------------------------------------------------

$comment
potential surface scanner
$end

$rem
JOBTYPE  PES_SCAN
UNRESTRICTED TRUE
SYM_IGNORE  TRUE
GEOM_OPT_MAX_CYCLES 400
SCF_MAX_CYCLES 400
METHOD   B3LYP
BASIS   6-31G**
PDB_PRINT 2
SCF_CONVERGENCE 6
THRESH 14
SCF_PRINT 1
$end
$molecule
0 3
S 2.975961 0.003661 0.050852
S -4.154550 -0.537701 0.141517
C 0.257263 0.470651 0.266631
C 1.248052 -0.644451 -0.069831
C -1.201664 -0.009868 0.184639
H 0.462089 0.849370 1.274860
H 0.406458 1.310951 -0.421662
H 1.132351 -1.480763 0.625886
H 1.076607 -1.012467 -1.085592
H -1.385588 -0.821054 0.896688
H -1.434355 -0.381871 -0.818993
H 3.602970 -1.141962 -0.281586
H -1.877394 0.819109 0.415488
$end
$scan
stre 2 5 2.900000 2.901000 0.100000
$end
--------------------------------------------------------------

   10    -915.4414262887      8.91e-07  Convergence criterion met
 Total energy in the final basis set =     -915.4414262887
   10    -915.4397158340      5.53e-07  Convergence criterion met
 Total energy in the final basis set =     -915.4397158340
   10    -915.4397564288      6.48e-07  Convergence criterion met
 Total energy in the final basis set =     -915.4397564288
   10    -915.4397629438      6.90e-07  Convergence criterion met
 Total energy in the final basis set =     -915.4397629438
   10    -915.4397674305      7.27e-07  Convergence criterion met
 Total energy in the final basis set =     -915.4397674305
   10    -915.4397751412      7.90e-07  Convergence criterion met
 Total energy in the final basis set =     -915.4397751412
   10    -915.4397800333      8.13e-07  Convergence criterion met
 Total energy in the final basis set =     -915.4397800333
   10    -915.4397830969      8.12e-07  Convergence criterion met
 Total energy in the final basis set =     -915.4397830969

             Standard Nuclear Orientation (Angstroms)
    I     Atom           X                Y                Z
 ----------------------------------------------------------------
    1      S       2.9676109311     0.0001828828     0.0473627068
    2      S      -4.0602372655    -0.5422424983     0.1262616039
    3      C       0.2503061642     0.4718354256     0.2676857976
    4      C       1.2384992560    -0.6456331238    -0.0681843310
    5      C      -1.2106846370    -0.0072747180     0.1883924877
    6      H       0.4567220689     0.8522545974     1.2749312226
    7      H       0.3991746495     1.3105781649    -0.4225336534
    8      H       1.1227996984    -1.4801016269     0.6297365250
    9      H       1.0643984274    -1.0157291682    -1.0827366174
   10      H      -1.3902245043    -0.8200567082     0.8995271136
   11      H      -1.4407078497    -0.3782657164    -0.8161716087
   12      H       3.5917045504    -1.1462633222    -0.2876855812
   13      H      -1.8811614895     0.8243208113     0.4223113343
 ----------------------------------------------------------------

   10    -915.4397832693      8.07e-07  Convergence criterion met
 Total energy in the final basis set =     -915.4397832693

                    Orbital Energies (a.u.)
 --------------------------------------------------------------

 Alpha MOs
 -- Occupied --
-88.925 -88.873 -10.222 -10.200 -10.192  -7.984  -7.936  -5.954
 -5.954  -5.935  -5.901  -5.897  -5.890  -0.814  -0.747  -0.718
 -0.657  -0.594  -0.480  -0.448  -0.437  -0.410  -0.374  -0.358
 -0.350  -0.328  -0.324  -0.307  -0.278  -0.236

 Beta MOs
 -- Occupied --
-88.914 -88.873 -10.222 -10.200 -10.192  -7.974  -7.936  -5.933
 -5.933  -5.929  -5.901  -5.897  -5.890  -0.813  -0.745  -0.661
 -0.624  -0.592  -0.479  -0.445  -0.436  -0.409  -0.369  -0.353
 -0.348  -0.326  -0.251  -0.236

          Ground-State Mulliken Net Atomic Charges

     Atom                 Charge (a.u.)    Spin (a.u.)
  --------------------------------------------------------
      1 S                    -0.050430       0.001666
      2 S                    -0.030172       1.954849
      3 C                    -0.193460       0.023654
      4 C                    -0.318310       0.000461
      5 C                    -0.351629       0.020351
      6 H                     0.120212       0.000107
      7 H                     0.120228      -0.000049
      8 H                     0.134826       0.000072
      9 H                     0.134691       0.000083
     10 H                     0.123770      -0.000693
     11 H                     0.122013      -0.000675
     12 H                     0.056030       0.000626
     13 H                     0.132231      -0.000452
  --------------------------------------------------------
  Sum of atomic charges =     0.000000

                    Cartesian Multipole Moments
 -----------------------------------------------------------------
    Charge (ESU x 10^10)
                -0.0000
    Dipole Moment (Debye)
         X      -0.6362      Y      -1.0788      Z      -0.2668
       Tot       1.2806
    Quadrupole Moments (Debye-Ang)
        XX     -52.8028     XY      -3.9788     YY     -47.0818
        XZ      -1.0696     YZ       0.2169     ZZ     -47.0314

 Final energy is   -915.439783269279
 **  OPTIMIZATION CONVERGED  **
 Total job time:  36.19s(wall), 414.53s(cpu)
        *  Thank you very much for using Q-Chem.  Have a nice day.  *
