 Q-Chem 5.1, Q-Chem, Inc., Pleasanton, CA (2018)
 Q-Chem 5.1.1 for Intel X86 EM64T Linux

User input:
--------------------------------------------------------------

$comment
potential surface scanner
$end

$rem
JOBTYPE  PES_SCAN
UNRESTRICTED TRUE
SYM_IGNORE  TRUE
GEOM_OPT_MAX_CYCLES 400
SCF_MAX_CYCLES 400
METHOD   B3LYP
BASIS   6-31G**
PDB_PRINT 2
SCF_CONVERGENCE 6
THRESH 14
SCF_PRINT 1
$end
$molecule
0 3
S 2.882555 0.491333 -0.022412
S -3.816878 1.531045 0.383217
C 0.138756 0.126433 0.148438
C 1.446600 -0.675994 -0.036500
C -1.057259 -0.767529 0.136115
H 0.196053 0.676790 1.094849
H 0.070549 0.869299 -0.655613
H 1.561892 -1.400834 0.773158
H 1.427783 -1.212383 -0.988509
H -1.363665 -1.288670 1.038603
H -1.450531 -1.141954 -0.804901
H 3.841290 -0.437104 -0.208406
H -2.768946 0.653175 0.320857
$end
$scan
stre 2 5 3.500000 3.501000 0.100000
$end
--------------------------------------------------------------

   13    -915.4118687683      3.23e-07  Convergence criterion met
 Total energy in the final basis set =     -915.4118687683
   13    -915.4106262984      2.84e-07  Convergence criterion met
 Total energy in the final basis set =     -915.4106262984
   13    -915.4115245983      3.07e-07  Convergence criterion met
 Total energy in the final basis set =     -915.4115245983
   12    -915.4118233367      9.24e-07  Convergence criterion met
 Total energy in the final basis set =     -915.4118233367
   12    -915.4118351200      8.83e-07  Convergence criterion met
 Total energy in the final basis set =     -915.4118351200
   12    -915.4118372951      8.74e-07  Convergence criterion met
 Total energy in the final basis set =     -915.4118372951
   12    -915.4118396964      8.69e-07  Convergence criterion met
 Total energy in the final basis set =     -915.4118396964

             Standard Nuclear Orientation (Angstroms)
    I     Atom           X                Y                Z
 ----------------------------------------------------------------
    1      S       2.8771022849     0.4846111976    -0.0220556790
    2      S      -3.7639212778     1.4815770106     0.3776525785
    3      C       0.1309682101     0.1428621118     0.1505372551
    4      C       1.4315485821    -0.6707490812    -0.0351670585
    5      C      -1.0719851913    -0.7424781913     0.1387831441
    6      H       0.1926727341     0.6925326675     1.0969833064
    7      H       0.0677297559     0.8861904874    -0.6533732969
    8      H       1.5414336816    -1.3964519817     0.7744920974
    9      H       1.4077698495    -1.2069910601    -0.9871599725
   10      H      -1.3683048639    -1.2743374746     1.0387783641
   11      H      -1.4558476920    -1.1262755344    -0.8027008383
   12      H       3.8276798783    -0.4518145708    -0.2098454049
   13      H      -2.7086469514     0.6049314191     0.3119715046
 ----------------------------------------------------------------

   12    -915.4118406292      8.74e-07  Convergence criterion met
 Total energy in the final basis set =     -915.4118406292

                    Orbital Energies (a.u.)
 --------------------------------------------------------------

 Alpha MOs
 -- Occupied --
-88.898 -88.879 -10.233 -10.220 -10.211  -7.959  -7.942  -5.931
 -5.921  -5.911  -5.907  -5.903  -5.896  -0.824  -0.752  -0.725
 -0.658  -0.601  -0.494  -0.457  -0.430  -0.422  -0.396  -0.384
 -0.362  -0.334  -0.310  -0.263  -0.242  -0.231

 Beta MOs
 -- Occupied --
-88.892 -88.879 -10.231 -10.212 -10.207  -7.953  -7.941  -5.916
 -5.912  -5.908  -5.906  -5.903  -5.896  -0.817  -0.740  -0.683
 -0.642  -0.593  -0.490  -0.454  -0.425  -0.407  -0.382  -0.377
 -0.360  -0.333  -0.248  -0.242

          Ground-State Mulliken Net Atomic Charges

     Atom                 Charge (a.u.)    Spin (a.u.)
  --------------------------------------------------------
      1 S                    -0.045074       0.020490
      2 S                    -0.085467       1.097425
      3 C                    -0.195671      -0.067327
      4 C                    -0.319378       0.045723
      5 C                    -0.251525       0.995470
      6 H                     0.131724       0.010005
      7 H                     0.132676       0.013249
      8 H                     0.139399      -0.000703
      9 H                     0.139097      -0.000910
     10 H                     0.128178      -0.040631
     11 H                     0.128036      -0.040588
     12 H                     0.058669       0.000415
     13 H                     0.039338      -0.032618
  --------------------------------------------------------
  Sum of atomic charges =    -0.000000

                    Cartesian Multipole Moments
 -----------------------------------------------------------------
    Charge (ESU x 10^10)
                 0.0000
    Dipole Moment (Debye)
         X       1.0389      Y      -2.7093      Z      -0.2483
       Tot       2.9123
    Quadrupole Moments (Debye-Ang)
        XX     -56.2085     XY      -0.9743     YY     -49.6507
        XZ      -0.0199     YZ      -0.4240     ZZ     -46.7284

 Final energy is   -915.411840629211
 **  OPTIMIZATION CONVERGED  **
 Total job time:  36.90s(wall), 421.12s(cpu)
        *  Thank you very much for using Q-Chem.  Have a nice day.  *
