 Q-Chem 5.1, Q-Chem, Inc., Pleasanton, CA (2018)
 Q-Chem 5.1.1 for Intel X86 EM64T Linux

User input:
--------------------------------------------------------------

$comment
potential surface scanner
$end

$rem
JOBTYPE  PES_SCAN
UNRESTRICTED TRUE
SYM_IGNORE  TRUE
GEOM_OPT_MAX_CYCLES 400
SCF_MAX_CYCLES 400
METHOD   B3LYP
BASIS   6-31G**
PDB_PRINT 2
SCF_CONVERGENCE 6
THRESH 14
SCF_PRINT 1
$end
$molecule
0 1
S 2.749000 0.445300 -0.001100
S -2.750400 0.444400 -0.000400
C 0.000900 0.283600 0.001800
C 1.255600 -0.587300 0.000700
C -1.255100 -0.586000 -0.001000
H 0.001400 0.930000 0.889200
H 0.001400 0.933800 -0.882900
H 1.280200 -1.230100 0.886500
H 1.278600 -1.230200 -0.885100
H -1.279500 -1.231800 0.882600
H -1.278100 -1.225300 -0.889300
H 3.631700 -0.564200 -0.001900
H -2.527500 1.041400 1.179800
$end
$scan
stre 2 5 1.500000 1.501000 0.100000
$end
--------------------------------------------------------------

    9    -915.5215846885      2.52e-07  Convergence criterion met
 Total energy in the final basis set =     -915.5215846885
    9    -915.5087000570      3.60e-07  Convergence criterion met
 Total energy in the final basis set =     -915.5087000570
    9    -915.4645237064      3.04e-07  Convergence criterion met
 Total energy in the final basis set =     -915.4645237064
    9    -915.4565027427      3.08e-07  Convergence criterion met
 Total energy in the final basis set =     -915.4565027427
    9    -915.4577027236      3.19e-07  Convergence criterion met
 Total energy in the final basis set =     -915.4577027236
    9    -915.4578518801      3.23e-07  Convergence criterion met
 Total energy in the final basis set =     -915.4578518801
    9    -915.4579102091      3.26e-07  Convergence criterion met
 Total energy in the final basis set =     -915.4579102091
    9    -915.4579224547      3.26e-07  Convergence criterion met
    9    -915.4579275377      3.27e-07  Convergence criterion met
 Total energy in the final basis set =     -915.4579275377
    9    -915.4579306679      3.27e-07  Convergence criterion met
 Total energy in the final basis set =     -915.4579306679
    9    -915.4579333075      3.27e-07  Convergence criterion met
 Total energy in the final basis set =     -915.4579333075
    9    -915.4579357340      3.27e-07  Convergence criterion met
 Total energy in the final basis set =     -915.4579357340
    9    -915.4579376607      3.26e-07  Convergence criterion met
 Total energy in the final basis set =     -915.4579376607
    9    -915.4579389537      3.26e-07  Convergence criterion met
 Total energy in the final basis set =     -915.4579389537

             Standard Nuclear Orientation (Angstroms)
    I     Atom           X                Y                Z
 ----------------------------------------------------------------
    1      S       2.7681839668     0.4334136283    -0.0068492821
    2      S      -2.6286325022     0.2630628605    -0.0140299207
    3      C       0.0063948316     0.3114673746     0.0063058032
    4      C       1.2339910323    -0.5976677074    -0.0059953024
    5      C      -1.3325763095    -0.4899233725     0.0429815120
    6      H       0.0404101332     0.9653321216     0.8875704275
    7      H       0.0031963230     0.9646340165    -0.8738649915
    8      H       1.2424807495    -1.2424569278     0.8778314853
    9      H       1.2326375618    -1.2322734825    -0.8973964677
   10      H      -1.2235605877    -1.2155861985     0.8732639432
   11      H      -1.3076080650    -1.1485238317    -0.8407412395
   12      H       3.6472792270    -0.5883004308     0.0089455268
   13      H      -2.5739963608     1.0004219498     1.1208785058
 ----------------------------------------------------------------

    9    -915.4579397809      3.26e-07  Convergence criterion met
 Total energy in the final basis set =     -915.4579397809

                    Orbital Energies (a.u.)
 --------------------------------------------------------------

 Alpha MOs
 -- Occupied --
-88.877 -88.867 -10.226 -10.212 -10.201  -7.939  -7.938  -5.904
 -5.903  -5.900  -5.898  -5.893  -5.892  -0.875  -0.801  -0.713
 -0.623  -0.602  -0.506  -0.466  -0.452  -0.430  -0.395  -0.378
 -0.361  -0.332  -0.315  -0.239  -0.229

 Beta MOs
 -- Occupied --
-88.877 -88.867 -10.226 -10.212 -10.201  -7.939  -7.938  -5.904
 -5.903  -5.900  -5.898  -5.893  -5.892  -0.875  -0.801  -0.713
 -0.623  -0.602  -0.506  -0.466  -0.452  -0.430  -0.395  -0.378
 -0.361  -0.332  -0.315  -0.239  -0.229

          Ground-State Mulliken Net Atomic Charges

     Atom                 Charge (a.u.)    Spin (a.u.)
  --------------------------------------------------------
      1 S                    -0.043720       0.000000
      2 S                    -0.005645       0.000000
      3 C                    -0.191132      -0.000000
      4 C                    -0.330919      -0.000000
      5 C                    -0.311966      -0.000000
      6 H                     0.115411      -0.000000
      7 H                     0.129970       0.000000
      8 H                     0.135222       0.000000
      9 H                     0.135337       0.000000
     10 H                     0.120351      -0.000000
     11 H                     0.145864      -0.000000
     12 H                     0.056179      -0.000000
     13 H                     0.045046      -0.000000
  --------------------------------------------------------
  Sum of atomic charges =     0.000000

                    Cartesian Multipole Moments
 -----------------------------------------------------------------
    Charge (ESU x 10^10)
                 0.0000
    Dipole Moment (Debye)
         X       0.4112      Y      -1.7955      Z       0.6727
       Tot       1.9610
    Quadrupole Moments (Debye-Ang)
        XX     -53.2257     XY      -4.5632     YY     -46.0784
        XZ      -1.9050     YZ       1.7486     ZZ     -46.8460

 Final energy is   -915.457939780914
 **  OPTIMIZATION CONVERGED  **
 Total job time:  64.31s(wall), 678.52s(cpu)
        *  Thank you very much for using Q-Chem.  Have a nice day.  *
