 Q-Chem 5.1, Q-Chem, Inc., Pleasanton, CA (2018)
 Q-Chem 5.1.1 for Intel X86 EM64T Linux

User input:
--------------------------------------------------------------

$comment
potential surface scanner
$end

$rem
JOBTYPE  PES_SCAN
UNRESTRICTED TRUE
SYM_IGNORE  TRUE
GEOM_OPT_MAX_CYCLES 400
SCF_MAX_CYCLES 400
METHOD   B3LYP
BASIS   6-31G**
PDB_PRINT 2
SCF_CONVERGENCE 6
THRESH 14
SCF_PRINT 1
$end
$molecule
0 3
S 3.113405 0.450450 -0.054373
S -4.892412 1.658064 -0.038579
C 0.383238 -0.043523 0.094782
C 1.730196 -0.780662 -0.079626
C -0.770870 -0.989135 0.084814
H 0.413335 0.515316 1.038313
H 0.283692 0.691084 -0.714099
H 1.872947 -1.499693 0.730800
H 1.744200 -1.317359 -1.031436
H -1.103640 -1.472637 0.997477
H -1.203063 -1.328684 -0.850825
H 4.115612 -0.431806 -0.236405
H -4.578444 1.972186 1.238053
$end
$scan
stre 2 5 4.800000 4.801000 0.100000
$end
--------------------------------------------------------------

   12    -915.4089388780      8.40e-07  Convergence criterion met
 Total energy in the final basis set =     -915.4089388780
   12    -915.4087647091      8.57e-07  Convergence criterion met
 Total energy in the final basis set =     -915.4087647091
   12    -915.4088847415      8.51e-07  Convergence criterion met
 Total energy in the final basis set =     -915.4088847415
   12    -915.4089348408      8.44e-07  Convergence criterion met
 Total energy in the final basis set =     -915.4089348408
   12    -915.4089378362      8.45e-07  Convergence criterion met
 Total energy in the final basis set =     -915.4089378362
   12    -915.4089424127      8.46e-07  Convergence criterion met
 Total energy in the final basis set =     -915.4089424127
   12    -915.4089434327      8.46e-07  Convergence criterion met
 Total energy in the final basis set =     -915.4089434327
   12    -915.4089455980      8.47e-07  Convergence criterion met
 Total energy in the final basis set =     -915.4089455980
   12    -915.4089469697      8.47e-07  Convergence criterion met
 Total energy in the final basis set =     -915.4089469697
   12    -915.4089489904      8.47e-07  Convergence criterion met
 Total energy in the final basis set =     -915.4089489904
   12    -915.4089505842      8.47e-07  Convergence criterion met
 Total energy in the final basis set =     -915.4089505842
   12    -915.4089517182      8.47e-07  Convergence criterion met
 Total energy in the final basis set =     -915.4089517182

             Standard Nuclear Orientation (Angstroms)
    I     Atom           X                Y                Z
 ----------------------------------------------------------------
    1      S       3.1025398113     0.4551595868    -0.0568283832
    2      S      -4.8104960559     1.6177316290    -0.0531005583
    3      C       0.3734729907    -0.0406295609     0.1036467154
    4      C       1.7196119121    -0.7763010710    -0.0821187844
    5      C      -0.7807084382    -0.9860827412     0.0916891870
    6      H       0.4068361198     0.5113706925     1.0510126800
    7      H       0.2709267372     0.6999745651    -0.6993452977
    8      H       1.8670887873    -1.5003040654     0.7229954015
    9      H       1.7285780872    -1.3070931337    -1.0373276519
   10      H      -1.1132382505    -1.4724446879     1.0028329981
   11      H      -1.2143817649    -1.3210260132    -0.8449449875
   12      H       4.1045993217    -0.4260424610    -0.2447485952
   13      H      -4.5466332579     1.9692882609     1.2251332760
 ----------------------------------------------------------------

   12    -915.4089522865      8.47e-07  Convergence criterion met
 Total energy in the final basis set =     -915.4089522865

                    Orbital Energies (a.u.)
 --------------------------------------------------------------

 Alpha MOs
 -- Occupied --
-88.911 -88.872 -10.223 -10.200 -10.200  -7.973  -7.935  -5.944
 -5.934  -5.925  -5.900  -5.896  -5.889  -0.812  -0.740  -0.739
 -0.646  -0.589  -0.482  -0.447  -0.418  -0.413  -0.402  -0.373
 -0.350  -0.326  -0.321  -0.273  -0.236  -0.213

 Beta MOs
 -- Occupied --
-88.906 -88.872 -10.222 -10.201 -10.186  -7.967  -7.934  -5.931
 -5.926  -5.921  -5.899  -5.896  -5.889  -0.806  -0.728  -0.699
 -0.630  -0.578  -0.478  -0.444  -0.412  -0.399  -0.393  -0.365
 -0.348  -0.325  -0.259  -0.235

          Ground-State Mulliken Net Atomic Charges

     Atom                 Charge (a.u.)    Spin (a.u.)
  --------------------------------------------------------
      1 S                    -0.055918       0.021288
      2 S                    -0.074353       1.027843
      3 C                    -0.200489      -0.074490
      4 C                    -0.313952       0.046593
      5 C                    -0.227447       1.076044
      6 H                     0.121211       0.011707
      7 H                     0.125779       0.014711
      8 H                     0.136545      -0.000410
      9 H                     0.137064      -0.000633
     10 H                     0.109465      -0.047633
     11 H                     0.111821      -0.047573
     12 H                     0.056450      -0.000014
     13 H                     0.073824      -0.027434
  --------------------------------------------------------
  Sum of atomic charges =     0.000000

                    Cartesian Multipole Moments
 -----------------------------------------------------------------
    Charge (ESU x 10^10)
                 0.0000
    Dipole Moment (Debye)
         X      -0.3499      Y      -1.3739      Z       0.8259
       Tot       1.6408
    Quadrupole Moments (Debye-Ang)
        XX     -50.0254     XY      -6.5736     YY     -46.9791
        XZ      -4.7253     YZ       2.7667     ZZ     -46.2480

 Final energy is   -915.408952286538
 **  OPTIMIZATION CONVERGED  **
 Total job time:  53.22s(wall), 617.04s(cpu)
        *  Thank you very much for using Q-Chem.  Have a nice day.  *
