 Q-Chem 5.1, Q-Chem, Inc., Pleasanton, CA (2018)
 Q-Chem 5.1.1 for Intel X86 EM64T Linux

User input:
--------------------------------------------------------------

$comment
potential surface scanner
$end

$rem
JOBTYPE  PES_SCAN
UNRESTRICTED TRUE
SYM_IGNORE  TRUE
GEOM_OPT_MAX_CYCLES 400
SCF_MAX_CYCLES 400
METHOD   B3LYP
BASIS   6-31G**
PDB_PRINT 2
SCF_CONVERGENCE 6
THRESH 14
SCF_PRINT 1
$end
$molecule
0 1
S 3.040245 0.474037 -0.077780
S -4.474976 1.446117 -0.062075
C 0.320441 -0.000743 0.121952
C 1.665630 -0.763419 -0.100109
C -0.793095 -0.957182 0.104968
H 0.372379 0.533558 1.074918
H 0.214576 0.728910 -0.690578
H 1.817350 -1.495876 0.695567
H 1.647829 -1.278594 -1.062873
H -1.206413 -1.367821 1.019827
H -1.169766 -1.356293 -0.831185
H 4.038202 -0.419169 -0.225951
H -4.364205 1.880072 1.212215
$end
$scan
stre 2 5 4.500000 4.501000 0.100000
$end
--------------------------------------------------------------

   17    -915.3748940988      7.33e-08  Convergence criterion met
 Total energy in the final basis set =     -915.3748940988
   20    -915.3725949326      1.61e-07  Convergence criterion met
 Total energy in the final basis set =     -915.3725949326
   18    -915.3728481848      2.07e-07  Convergence criterion met
 Total energy in the final basis set =     -915.3728481848
   17    -915.3729803974      7.45e-07  Convergence criterion met
 Total energy in the final basis set =     -915.3729803974
   16    -915.3729914983      9.65e-07  Convergence criterion met
 Total energy in the final basis set =     -915.3729914983
   16    -915.3730126158      9.51e-07  Convergence criterion met
 Total energy in the final basis set =     -915.3730126158
   17    -915.3730175079      6.03e-07  Convergence criterion met
 Total energy in the final basis set =     -915.3730175079
   17    -915.3730206283      6.66e-07  Convergence criterion met
 Total energy in the final basis set =     -915.3730206283
   17    -915.3730222784      7.02e-07  Convergence criterion met
 Total energy in the final basis set =     -915.3730222784
   17    -915.3730235338      7.28e-07  Convergence criterion met
 Total energy in the final basis set =     -915.3730235338

             Standard Nuclear Orientation (Angstroms)
    I     Atom           X                Y                Z
 ----------------------------------------------------------------
    1      S       3.0542509740     0.4673917476    -0.0821622528
    2      S      -4.5583949185     1.4802181202    -0.0706168916
    3      C       0.3353845956    -0.0068893234     0.1296985743
    4      C       1.6786020699    -0.7687786404    -0.1053093128
    5      C      -0.7813183936    -0.9591287127     0.1118021836
    6      H       0.3929421810     0.5218740131     1.0854757258
    7      H       0.2268223643     0.7295175766    -0.6769196852
    8      H       1.8338238466    -1.5064976864     0.6847838437
    9      H       1.6547600740    -1.2775980206    -1.0713072393
   10      H      -1.2005602406    -1.3646050220     1.0263216477
   11      H      -1.1564979779    -1.3600336848    -0.8242371573
   12      H       4.0509981618    -0.4260953287    -0.2365392379
   13      H      -4.4226157366     1.8942219616     1.2079058018
 ----------------------------------------------------------------

   17    -915.3730243309      7.36e-07  Convergence criterion met
 Total energy in the final basis set =     -915.3730243309

                    Orbital Energies (a.u.)
 --------------------------------------------------------------

 Alpha MOs
 -- Occupied --
-88.901 -88.838 -10.281 -10.263 -10.244  -7.963  -7.898  -5.928
 -5.925  -5.918  -5.862  -5.862  -5.853  -0.854  -0.778  -0.681
 -0.652  -0.629  -0.529  -0.489  -0.463  -0.439  -0.410  -0.394
 -0.358  -0.345  -0.263  -0.207  -0.204

 Beta MOs
 -- Occupied --
-88.901 -88.838 -10.281 -10.263 -10.244  -7.963  -7.898  -5.928
 -5.925  -5.918  -5.862  -5.862  -5.853  -0.854  -0.778  -0.681
 -0.652  -0.629  -0.529  -0.489  -0.463  -0.439  -0.410  -0.394
 -0.358  -0.345  -0.263  -0.207  -0.204

          Ground-State Mulliken Net Atomic Charges

     Atom                 Charge (a.u.)    Spin (a.u.)
  --------------------------------------------------------
      1 S                    -0.016467      -0.000000
      2 S                    -0.355750       0.000001
      3 C                    -0.225794       0.000000
      4 C                    -0.335135      -0.000000
      5 C                    -0.151636      -0.000001
      6 H                     0.156009      -0.000000
      7 H                     0.171608      -0.000000
      8 H                     0.152382      -0.000000
      9 H                     0.153501      -0.000000
     10 H                     0.169293       0.000000
     11 H                     0.169846       0.000000
     12 H                     0.067514      -0.000000
     13 H                     0.044628      -0.000000
  --------------------------------------------------------
  Sum of atomic charges =     0.000000

                    Cartesian Multipole Moments
 -----------------------------------------------------------------
    Charge (ESU x 10^10)
                -0.0000
    Dipole Moment (Debye)
         X       6.0624      Y      -4.3590      Z       0.9211
       Tot       7.5234
    Quadrupole Moments (Debye-Ang)
        XX     -75.2821     XY       4.2620     YY     -48.8726
        XZ      -4.7077     YZ       2.5987     ZZ     -46.0124

 Final energy is   -915.373024330900
 **  OPTIMIZATION CONVERGED  **
 Total job time:  59.23s(wall), 687.48s(cpu)
        *  Thank you very much for using Q-Chem.  Have a nice day.  *
