 Q-Chem 5.1, Q-Chem, Inc., Pleasanton, CA (2018)
 Q-Chem 5.1.1 for Intel X86 EM64T Linux

User input:
--------------------------------------------------------------

$comment
potential surface scanner
$end

$rem
JOBTYPE  PES_SCAN
UNRESTRICTED TRUE
SYM_IGNORE  TRUE
GEOM_OPT_MAX_CYCLES 400
SCF_MAX_CYCLES 400
METHOD   B3LYP
BASIS   6-31G**
PDB_PRINT 2
SCF_CONVERGENCE 6
THRESH 14
SCF_PRINT 1
$end
$molecule
0 3
S 2.983164 0.013013 0.049676
S -4.252455 -0.514993 0.164575
C 0.262912 0.467166 0.264960
C 1.258677 -0.643362 -0.071435
C -1.192837 -0.016448 0.178517
H 0.465483 0.844594 1.273950
H 0.413706 1.308697 -0.421191
H 1.146303 -1.480531 0.623764
H 1.089491 -1.010817 -1.087665
H -1.379246 -0.830967 0.886749
H -1.427164 -0.386025 -0.825679
H 3.615873 -1.133451 -0.267975
H -1.875707 0.806729 0.410651
$end
$scan
stre 2 5 3.000000 3.001000 0.100000
$end
--------------------------------------------------------------

   10    -915.4425692817      9.13e-07  Convergence criterion met
 Total energy in the final basis set =     -915.4425692817
   10    -915.4413557878      6.80e-07  Convergence criterion met
 Total energy in the final basis set =     -915.4413557878
   10    -915.4414089715      7.77e-07  Convergence criterion met
 Total energy in the final basis set =     -915.4414089715
   10    -915.4414144391      8.16e-07  Convergence criterion met
 Total energy in the final basis set =     -915.4414144391
   10    -915.4414161713      8.31e-07  Convergence criterion met
 Total energy in the final basis set =     -915.4414161713
   10    -915.4414214539      8.78e-07  Convergence criterion met
 Total energy in the final basis set =     -915.4414214539
   10    -915.4414244194      8.92e-07  Convergence criterion met
 Total energy in the final basis set =     -915.4414244194

             Standard Nuclear Orientation (Angstroms)
    I     Atom           X                Y                Z
 ----------------------------------------------------------------
    1      S       2.9759614509     0.0036613164     0.0508521667
    2      S      -4.1545498359    -0.5377011080     0.1415173963
    3      C       0.2572630097     0.4706514294     0.2666309310
    4      C       1.2480518298    -0.6444508027    -0.0698311467
    5      C      -1.2016640750    -0.0098684947     0.1846394417
    6      H       0.4620890769     0.8493696092     1.2748601128
    7      H       0.4064579755     1.3109514875    -0.4216623910
    8      H       1.1323508981    -1.4807634445     0.6258856816
    9      H       1.0766065746    -1.0124674611    -1.0855920932
   10      H      -1.3855877895    -0.8210541526     0.8966876945
   11      H      -1.4343547143    -0.3818709264    -0.8189931198
   12      H       3.6029697807    -1.1419615016    -0.2815860877
   13      H      -1.8773941814     0.8191090491     0.4154884137
 ----------------------------------------------------------------

   10    -915.4414262843      8.91e-07  Convergence criterion met
 Total energy in the final basis set =     -915.4414262843

                    Orbital Energies (a.u.)
 --------------------------------------------------------------

 Alpha MOs
 -- Occupied --
-88.927 -88.873 -10.221 -10.199 -10.191  -7.987  -7.935  -5.957
 -5.956  -5.937  -5.900  -5.897  -5.890  -0.813  -0.746  -0.719
 -0.656  -0.593  -0.479  -0.447  -0.435  -0.409  -0.372  -0.356
 -0.349  -0.328  -0.327  -0.311  -0.280  -0.236

 Beta MOs
 -- Occupied --
-88.917 -88.873 -10.221 -10.199 -10.190  -7.976  -7.935  -5.935
 -5.935  -5.931  -5.900  -5.897  -5.890  -0.812  -0.744  -0.659
 -0.626  -0.592  -0.479  -0.444  -0.434  -0.408  -0.368  -0.351
 -0.347  -0.325  -0.253  -0.236

          Ground-State Mulliken Net Atomic Charges

     Atom                 Charge (a.u.)    Spin (a.u.)
  --------------------------------------------------------
      1 S                    -0.051004       0.001415
      2 S                    -0.024638       1.964120
      3 C                    -0.192521       0.018931
      4 C                    -0.318037       0.000484
      5 C                    -0.344914       0.017122
      6 H                     0.119660       0.000033
      7 H                     0.119614      -0.000056
      8 H                     0.134528       0.000053
      9 H                     0.134441       0.000058
     10 H                     0.120541      -0.000859
     11 H                     0.118903      -0.000856
     12 H                     0.055792       0.000506
     13 H                     0.127636      -0.000953
  --------------------------------------------------------
  Sum of atomic charges =     0.000000

                    Cartesian Multipole Moments
 -----------------------------------------------------------------
    Charge (ESU x 10^10)
                -0.0000
    Dipole Moment (Debye)
         X      -0.7547      Y      -1.1063      Z      -0.2748
       Tot       1.3671
    Quadrupole Moments (Debye-Ang)
        XX     -52.2294     XY      -3.8913     YY     -47.1129
        XZ      -1.0662     YZ       0.1958     ZZ     -47.0545

 Final energy is   -915.441426284274
 **  OPTIMIZATION CONVERGED  **
 Total job time:  32.51s(wall), 368.52s(cpu)
        *  Thank you very much for using Q-Chem.  Have a nice day.  *
