 Q-Chem 5.1, Q-Chem, Inc., Pleasanton, CA (2018)
 Q-Chem 5.1.1 for Intel X86 EM64T Linux

User input:
--------------------------------------------------------------

$comment
potential surface scanner
$end

$rem
JOBTYPE  PES_SCAN
UNRESTRICTED TRUE
SYM_IGNORE  TRUE
GEOM_OPT_MAX_CYCLES 400
SCF_MAX_CYCLES 400
METHOD   B3LYP
BASIS   6-31G**
PDB_PRINT 2
SCF_CONVERGENCE 6
THRESH 14
SCF_PRINT 1
$end
$molecule
0 3
S 2.855084 0.481078 -0.020485
S -3.626500 1.410629 0.384742
C 0.106347 0.170423 0.148628
C 1.397163 -0.658569 -0.030974
C -1.105991 -0.705028 0.137696
H 0.170430 0.722932 1.093072
H 0.050759 0.911208 -0.657897
H 1.498158 -1.381624 0.782304
H 1.369632 -1.199031 -0.980520
H -1.374935 -1.262527 1.031798
H -1.462568 -1.114560 -0.804597
H 3.795374 -0.466808 -0.202514
H -2.564753 0.515482 0.297644
$end
$scan
stre 2 5 3.200000 3.201000 0.100000
$end
--------------------------------------------------------------

   12    -915.4114436776      9.55e-07  Convergence criterion met
 Total energy in the final basis set =     -915.4114436776
   13    -915.4099281659      2.99e-07  Convergence criterion met
 Total energy in the final basis set =     -915.4099281659
   13    -915.4106751263      3.36e-07  Convergence criterion met
 Total energy in the final basis set =     -915.4106751263
   13    -915.4111104305      3.33e-07  Convergence criterion met
 Total energy in the final basis set =     -915.4111104305
   13    -915.4111709280      5.90e-07  Convergence criterion met
 Total energy in the final basis set =     -915.4111709280
   13    -915.4111873129      9.26e-07  Convergence criterion met
 Total energy in the final basis set =     -915.4111873129
   13    -915.4111930656      5.14e-07  Convergence criterion met
 Total energy in the final basis set =     -915.4111930656
   13    -915.4111961296      4.78e-07  Convergence criterion met
 Total energy in the final basis set =     -915.4111961296
   13    -915.4111977740      9.29e-07  Convergence criterion met
 Total energy in the final basis set =     -915.4111977740
   13    -915.4111990659      9.01e-07  Convergence criterion met
 Total energy in the final basis set =     -915.4111990659
   13    -915.4112009667      8.60e-07  Convergence criterion met
 Total energy in the final basis set =     -915.4112009667
   13    -915.4112031793      8.52e-07  Convergence criterion met
 Total energy in the final basis set =     -915.4112031793
   13    -915.4112045649      8.89e-07  Convergence criterion met
 Total energy in the final basis set =     -915.4112045649

             Standard Nuclear Orientation (Angstroms)
    I     Atom           X                Y                Z
 ----------------------------------------------------------------
    1      S       2.8413349151     0.4801725959    -0.0172768069
    2      S      -3.5528178800     1.3781986122     0.4408784778
    3      C       0.0911000867     0.1858773044     0.1315135895
    4      C       1.3780368432    -0.6524908873    -0.0236398514
    5      C      -1.1271791116    -0.6845344300     0.1224300069
    6      H       0.1484856957     0.7516151610     1.0685016189
    7      H       0.0449150304     0.9153241917    -0.6854851851
    8      H       1.4685715444    -1.3634865048     0.8015577191
    9      H       1.3567588818    -1.2075367689    -0.9649389033
   10      H      -1.3706128477    -1.2643199920     1.0104675854
   11      H      -1.4692343467    -1.1063770071    -0.8204427084
   12      H       3.7782128701    -0.4748086129    -0.1785408522
   13      H      -2.4793716815     0.4659713378     0.2938723098
 ----------------------------------------------------------------

   13    -915.4112051177      9.13e-07  Convergence criterion met
 Total energy in the final basis set =     -915.4112051177

                    Orbital Energies (a.u.)
 --------------------------------------------------------------

 Alpha MOs
 -- Occupied --
-88.893 -88.881 -10.235 -10.226 -10.213  -7.954  -7.943  -5.925
 -5.916  -5.908  -5.906  -5.905  -5.898  -0.827  -0.757  -0.718
 -0.660  -0.604  -0.496  -0.460  -0.432  -0.432  -0.393  -0.384
 -0.364  -0.336  -0.306  -0.259  -0.244  -0.233

 Beta MOs
 -- Occupied --
-88.886 -88.881 -10.233 -10.214 -10.213  -7.947  -7.943  -5.909
 -5.908  -5.906  -5.905  -5.902  -5.898  -0.820  -0.745  -0.674
 -0.643  -0.597  -0.493  -0.456  -0.427  -0.412  -0.382  -0.370
 -0.362  -0.335  -0.243  -0.242

          Ground-State Mulliken Net Atomic Charges

     Atom                 Charge (a.u.)    Spin (a.u.)
  --------------------------------------------------------
      1 S                    -0.041635       0.019757
      2 S                    -0.088418       1.206200
      3 C                    -0.187534      -0.056636
      4 C                    -0.321658       0.040447
      5 C                    -0.268196       0.899401
      6 H                     0.135184       0.009453
      7 H                     0.135236       0.010158
      8 H                     0.139741      -0.000835
      9 H                     0.139517      -0.000910
     10 H                     0.136853      -0.032912
     11 H                     0.136924      -0.032884
     12 H                     0.059044       0.000660
     13 H                     0.024942      -0.061901
  --------------------------------------------------------
  Sum of atomic charges =     0.000000

                    Cartesian Multipole Moments
 -----------------------------------------------------------------
    Charge (ESU x 10^10)
                 0.0000
    Dipole Moment (Debye)
         X       1.2759      Y      -2.8645      Z      -0.3344
       Tot       3.1536
    Quadrupole Moments (Debye-Ang)
        XX     -56.6445     XY      -0.7628     YY     -49.4419
        XZ       0.5033     YZ      -0.5697     ZZ     -46.8397

 Final energy is   -915.411205117667
 **  OPTIMIZATION CONVERGED  **
 Total job time:  70.88s(wall), 807.58s(cpu)
        *  Thank you very much for using Q-Chem.  Have a nice day.  *
