 Q-Chem 5.1, Q-Chem, Inc., Pleasanton, CA (2018)
 Q-Chem 5.1.1 for Intel X86 EM64T Linux

User input:
--------------------------------------------------------------

$comment
potential surface scanner
$end

$rem
JOBTYPE  PES_SCAN
UNRESTRICTED TRUE
SYM_IGNORE  TRUE
GEOM_OPT_MAX_CYCLES 400
SCF_MAX_CYCLES 400
METHOD   B3LYP
BASIS   6-31G**
PDB_PRINT 2
SCF_CONVERGENCE 6
THRESH 14
SCF_PRINT 1
$end
$molecule
0 1
S 2.792206 0.474840 -0.006644
S -2.947470 0.546024 -0.011994
C 0.038695 0.244388 0.009518
C 1.305397 -0.623960 -0.008687
C -1.203770 -0.623892 0.016458
H 0.053106 0.887310 0.896351
H 0.026021 0.901227 -0.865588
H 1.340369 -1.272062 0.871751
H 1.326390 -1.251633 -0.904100
H -1.315193 -1.248975 0.902132
H -1.331639 -1.220652 -0.887136
H 3.713377 -0.509109 -0.013421
H -2.689291 1.120093 1.180259
$end
$scan
stre 2 5 2.200000 2.201000 0.100000
$end
--------------------------------------------------------------

    9    -915.5100099301      6.92e-07  Convergence criterion met
 Total energy in the final basis set =     -915.5100099301
    9    -915.5010232284      7.50e-07  Convergence criterion met
 Total energy in the final basis set =     -915.5010232284
    9    -915.5009769946      7.49e-07  Convergence criterion met
 Total energy in the final basis set =     -915.5009769946
    9    -915.5010428496      7.50e-07  Convergence criterion met
 Total energy in the final basis set =     -915.5010428496
    9    -915.5010448764      7.50e-07  Convergence criterion met
 Total energy in the final basis set =     -915.5010448764

             Standard Nuclear Orientation (Angstroms)
    I     Atom           X                Y                Z
 ----------------------------------------------------------------
    1      S       2.7976868830     0.4808414607    -0.0063387073
    2      S      -3.0019664041     0.5905567814    -0.0094506335
    3      C       0.0458142328     0.2326403363     0.0097508894
    4      C       1.3192694877    -0.6292198899    -0.0107976657
    5      C      -1.1829360383    -0.6465890706     0.0150109865
    6      H       0.0568840141     0.8727601074     0.8981532529
    7      H       0.0292726566     0.8893496743    -0.8650357963
    8      H       1.3583600881    -1.2789693477     0.8681515737
    9      H       1.3438816947    -1.2542301752    -0.9078753640
   10      H      -1.3236875605    -1.2541068674     0.9071731135
   11      H      -1.3367231819    -1.2285263762    -0.8924989671
   12      H       3.7260613654    -0.4963423289    -0.0149904442
   13      H      -2.7237192375     1.1454346956     1.1876467622
 ----------------------------------------------------------------

    9    -915.5010452499      7.51e-07  Convergence criterion met
 Total energy in the final basis set =     -915.5010452499

                    Orbital Energies (a.u.)
 --------------------------------------------------------------

 Alpha MOs
 -- Occupied --
-88.882 -88.875 -10.249 -10.234 -10.212  -7.944  -7.935  -5.909
 -5.906  -5.900  -5.899  -5.897  -5.889  -0.827  -0.759  -0.700
 -0.647  -0.605  -0.497  -0.459  -0.433  -0.415  -0.388  -0.379
 -0.363  -0.337  -0.301  -0.245  -0.238

 Beta MOs
 -- Occupied --
-88.882 -88.875 -10.249 -10.234 -10.212  -7.944  -7.935  -5.909
 -5.906  -5.900  -5.899  -5.897  -5.889  -0.827  -0.759  -0.700
 -0.647  -0.605  -0.497  -0.459  -0.433  -0.415  -0.388  -0.379
 -0.363  -0.337  -0.301  -0.245  -0.238

          Ground-State Mulliken Net Atomic Charges

     Atom                 Charge (a.u.)    Spin (a.u.)
  --------------------------------------------------------
      1 S                    -0.036878       0.000000
      2 S                    -0.150606      -0.000000
      3 C                    -0.174271       0.000000
      4 C                    -0.333280      -0.000000
      5 C                    -0.278163      -0.000000
      6 H                     0.128544      -0.000000
      7 H                     0.145142      -0.000000
      8 H                     0.138243       0.000000
      9 H                     0.140274       0.000000
     10 H                     0.150432       0.000000
     11 H                     0.150378      -0.000000
     12 H                     0.059341       0.000000
     13 H                     0.060844       0.000000
  --------------------------------------------------------
  Sum of atomic charges =    -0.000000

                    Cartesian Multipole Moments
 -----------------------------------------------------------------
    Charge (ESU x 10^10)
                -0.0000
    Dipole Moment (Debye)
         X       1.4563      Y      -2.2077      Z       0.7529
       Tot       2.7498
    Quadrupole Moments (Debye-Ang)
        XX     -55.6020     XY      -3.6532     YY     -46.5194
        XZ      -2.0031     YZ       1.9013     ZZ     -46.6529

 Final energy is   -915.501045249942
 **  OPTIMIZATION CONVERGED  **
 Total job time:  23.55s(wall), 267.41s(cpu)
        *  Thank you very much for using Q-Chem.  Have a nice day.  *
