 Q-Chem 5.1, Q-Chem, Inc., Pleasanton, CA (2018)
 Q-Chem 5.1.1 for Intel X86 EM64T Linux

User input:
--------------------------------------------------------------

$comment
potential surface scanner
$end

$rem
JOBTYPE  PES_SCAN
UNRESTRICTED TRUE
SYM_IGNORE  TRUE
GEOM_OPT_MAX_CYCLES 400
SCF_MAX_CYCLES 400
METHOD   B3LYP
BASIS   6-31G**
PDB_PRINT 2
SCF_CONVERGENCE 6
THRESH 14
SCF_PRINT 1
$end
$molecule
0 3
S 3.060673 0.487173 -0.051686
S -4.613460 1.566534 -0.063134
C 0.338146 -0.045005 0.108762
C 1.693576 -0.761746 -0.082523
C -0.803220 -1.005903 0.093834
H 0.365681 0.503060 1.058623
H 0.223771 0.698047 -0.690331
H 1.851334 -1.488189 0.718478
H 1.708496 -1.287334 -1.040535
H -1.124770 -1.503881 1.002706
H -1.233304 -1.342943 -0.843689
H 4.073997 -0.380690 -0.241286
H -4.432721 1.984479 1.209674
$end
$scan
stre 2 5 4.500000 4.501000 0.100000
$end
--------------------------------------------------------------

   12    -915.4089578299      8.54e-07  Convergence criterion met
 Total energy in the final basis set =     -915.4089578299
   12    -915.4084674400      8.96e-07  Convergence criterion met
 Total energy in the final basis set =     -915.4084674400
   12    -915.4087983707      8.76e-07  Convergence criterion met
 Total energy in the final basis set =     -915.4087983707
   12    -915.4089268714      8.53e-07  Convergence criterion met
 Total energy in the final basis set =     -915.4089268714
   12    -915.4089329587      8.53e-07  Convergence criterion met
 Total energy in the final basis set =     -915.4089329587
   12    -915.4089416899      8.53e-07  Convergence criterion met
 Total energy in the final basis set =     -915.4089416899
   12    -915.4089435979      8.53e-07  Convergence criterion met
 Total energy in the final basis set =     -915.4089435979
   12    -915.4089482692      8.55e-07  Convergence criterion met
 Total energy in the final basis set =     -915.4089482692
   12    -915.4089511358      8.56e-07  Convergence criterion met
 Total energy in the final basis set =     -915.4089511358
   12    -915.4089542540      8.56e-07  Convergence criterion met
 Total energy in the final basis set =     -915.4089542540
   12    -915.4089559811      8.56e-07  Convergence criterion met
 Total energy in the final basis set =     -915.4089559811

             Standard Nuclear Orientation (Angstroms)
    I     Atom           X                Y                Z
 ----------------------------------------------------------------
    1      S       3.0546522679     0.4860960029    -0.0489593765
    2      S      -4.5432132569     1.5196887653    -0.0601408464
    3      C       0.3297889550    -0.0367464928     0.1060338840
    4      C       1.6835753054    -0.7585788331    -0.0794686354
    5      C      -0.8141388688    -0.9944728412     0.0915141826
    6      H       0.3573852210     0.5138126594     1.0544881808
    7      H       0.2195946424     0.7034832728    -0.6961407959
    8      H       1.8368097178    -1.4829360369     0.7242808501
    9      H       1.6993936847    -1.2870625678    -1.0358367380
   10      H      -1.1337781612    -1.4951608560     0.9995994685
   11      H      -1.2507341648    -1.3248333109    -0.8453314695
   12      H       4.0652547383    -0.3848897648    -0.2387713684
   13      H      -4.3963910807     1.9652020032     1.2076256640
 ----------------------------------------------------------------

   12    -915.4089569563      8.56e-07  Convergence criterion met
 Total energy in the final basis set =     -915.4089569563

                    Orbital Energies (a.u.)
 --------------------------------------------------------------

 Alpha MOs
 -- Occupied --
-88.911 -88.872 -10.223 -10.200 -10.200  -7.972  -7.934  -5.944
 -5.934  -5.924  -5.899  -5.896  -5.889  -0.812  -0.739  -0.738
 -0.646  -0.589  -0.482  -0.447  -0.418  -0.413  -0.402  -0.373
 -0.350  -0.326  -0.321  -0.273  -0.235  -0.213

 Beta MOs
 -- Occupied --
-88.905 -88.872 -10.222 -10.201 -10.186  -7.967  -7.934  -5.930
 -5.926  -5.921  -5.899  -5.896  -5.889  -0.806  -0.728  -0.698
 -0.630  -0.578  -0.478  -0.444  -0.412  -0.399  -0.392  -0.365
 -0.348  -0.325  -0.259  -0.235

          Ground-State Mulliken Net Atomic Charges

     Atom                 Charge (a.u.)    Spin (a.u.)
  --------------------------------------------------------
      1 S                    -0.055944       0.021341
      2 S                    -0.074783       1.028328
      3 C                    -0.200620      -0.074266
      4 C                    -0.314027       0.046754
      5 C                    -0.227606       1.075108
      6 H                     0.121092       0.012217
      7 H                     0.126338       0.014069
      8 H                     0.136440      -0.000440
      9 H                     0.137127      -0.000606
     10 H                     0.109523      -0.047533
     11 H                     0.112426      -0.047502
     12 H                     0.056394      -0.000006
     13 H                     0.073640      -0.027464
  --------------------------------------------------------
  Sum of atomic charges =    -0.000000

                    Cartesian Multipole Moments
 -----------------------------------------------------------------
    Charge (ESU x 10^10)
                 0.0000
    Dipole Moment (Debye)
         X      -0.4166      Y      -1.3138      Z       0.8059
       Tot       1.5966
    Quadrupole Moments (Debye-Ang)
        XX     -49.0753     XY      -6.9271     YY     -46.8085
        XZ      -4.4769     YZ       2.6900     ZZ     -46.2889

 Final energy is   -915.408956956265
 **  OPTIMIZATION CONVERGED  **
 Total job time:  54.70s(wall), 574.91s(cpu)
        *  Thank you very much for using Q-Chem.  Have a nice day.  *
