 Q-Chem 5.1, Q-Chem, Inc., Pleasanton, CA (2018)
 Q-Chem 5.1.1 for Intel X86 EM64T Linux

User input:
--------------------------------------------------------------

$comment
potential surface scanner
$end

$rem
JOBTYPE  PES_SCAN
UNRESTRICTED TRUE
SYM_IGNORE  TRUE
GEOM_OPT_MAX_CYCLES 400
SCF_MAX_CYCLES 400
METHOD   B3LYP
BASIS   6-31G**
PDB_PRINT 2
SCF_CONVERGENCE 6
THRESH 14
SCF_PRINT 1
$end
$molecule
0 1
S 2.749000 0.445300 -0.001100
S -2.750400 0.444400 -0.000400
C 0.000900 0.283600 0.001800
C 1.255600 -0.587300 0.000700
C -1.255100 -0.586000 -0.001000
H 0.001400 0.930000 0.889200
H 0.001400 0.933800 -0.882900
H 1.280200 -1.230100 0.886500
H 1.278600 -1.230200 -0.885100
H -1.279500 -1.231800 0.882600
H -1.278100 -1.225300 -0.889300
H 3.631700 -0.564200 -0.001900
H -2.527500 1.041400 1.179800
$end
$scan
stre 2 5 1.100000 1.101000 0.100000
$end
--------------------------------------------------------------

    9    -915.5215846885      2.52e-07  Convergence criterion met
 Total energy in the final basis set =     -915.5215846885
    9    -915.5087000570      3.60e-07  Convergence criterion met
 Total energy in the final basis set =     -915.5087000570
    9    -915.4645237063      3.04e-07  Convergence criterion met
 Total energy in the final basis set =     -915.4645237063
    9    -915.3807690974      3.30e-07  Convergence criterion met
 Total energy in the final basis set =     -915.3807690974
    9    -915.2558977254      3.96e-07  Convergence criterion met
 Total energy in the final basis set =     -915.2558977254
    9    -915.0373824188      5.32e-07  Convergence criterion met
 Total energy in the final basis set =     -915.0373824188
    9    -914.8544267610      6.60e-07  Convergence criterion met
 Total energy in the final basis set =     -914.8544267610
    9    -914.7925678257      6.99e-07  Convergence criterion met
    9    -914.7837628873      6.36e-07  Convergence criterion met
 Total energy in the final basis set =     -914.7837628873
    9    -914.7837694848      6.34e-07  Convergence criterion met
 Total energy in the final basis set =     -914.7837694848
    9    -914.7837746614      6.31e-07  Convergence criterion met
 Total energy in the final basis set =     -914.7837746614
    9    -914.7837785417      6.29e-07  Convergence criterion met
 Total energy in the final basis set =     -914.7837785417
    9    -914.7837813373      6.27e-07  Convergence criterion met
 Total energy in the final basis set =     -914.7837813373
    9    -914.7837828804      6.27e-07  Convergence criterion met
 Total energy in the final basis set =     -914.7837828804

             Standard Nuclear Orientation (Angstroms)
    I     Atom           X                Y                Z
 ----------------------------------------------------------------
    1      S       2.7964315951     0.3799071371     0.0725963093
    2      S      -2.4503448334     0.0937850814     0.0510763451
    3      C       0.0284714168     0.3804154103    -0.0597320863
    4      C       1.2110609116    -0.5666771994    -0.0556552132
    5      C      -1.4765284109    -0.4165134029     0.0868155893
    6      H       0.0529667739     1.0595705283     0.8017819579
    7      H      -0.0278859012     0.9845083341    -0.9729172925
    8      H       1.1427237967    -1.2489025274     0.7987606758
    9      H       1.2332564201    -1.1651245391    -0.9722835811
   10      H      -1.1262775705    -1.1915847781     0.8783147170
   11      H      -1.3017877735    -1.1036770804    -0.7633130710
   12      H       3.6271285625    -0.6814727908     0.1415067038
   13      H      -2.6010149871     0.8993658270     1.1719489459
 ----------------------------------------------------------------

    9    -914.7837835106      6.27e-07  Convergence criterion met
 Total energy in the final basis set =     -914.7837835106

                    Orbital Energies (a.u.)
 --------------------------------------------------------------

 Alpha MOs
 -- Occupied --
-88.873 -88.838 -10.224 -10.222 -10.191  -7.957  -7.935  -5.925
 -5.908  -5.902  -5.900  -5.897  -5.890  -0.973  -0.799  -0.705
 -0.620  -0.607  -0.543  -0.484  -0.471  -0.454  -0.412  -0.383
 -0.364  -0.327  -0.276  -0.235  -0.192

 Beta MOs
 -- Occupied --
-88.873 -88.838 -10.224 -10.222 -10.191  -7.957  -7.935  -5.925
 -5.908  -5.902  -5.900  -5.897  -5.890  -0.973  -0.799  -0.705
 -0.620  -0.607  -0.543  -0.484  -0.471  -0.454  -0.412  -0.383
 -0.364  -0.327  -0.276  -0.235  -0.192

          Ground-State Mulliken Net Atomic Charges

     Atom                 Charge (a.u.)    Spin (a.u.)
  --------------------------------------------------------
      1 S                    -0.044687      -0.000000
      2 S                     0.188698      -0.000000
      3 C                    -0.246505      -0.000000
      4 C                    -0.328980       0.000000
      5 C                    -0.341775       0.000000
      6 H                     0.113172      -0.000000
      7 H                     0.115332       0.000000
      8 H                     0.133487       0.000000
      9 H                     0.129908      -0.000000
     10 H                     0.051942      -0.000000
     11 H                     0.180238      -0.000000
     12 H                     0.051076      -0.000000
     13 H                    -0.001906       0.000000
  --------------------------------------------------------
  Sum of atomic charges =     0.000000

                    Cartesian Multipole Moments
 -----------------------------------------------------------------
    Charge (ESU x 10^10)
                 0.0000
    Dipole Moment (Debye)
         X      -0.2687      Y      -2.0211      Z       0.0754
       Tot       2.0403
    Quadrupole Moments (Debye-Ang)
        XX     -52.8857     XY      -3.7246     YY     -45.6052
        XZ      -0.9937     YZ       1.5557     ZZ     -46.6549

 Final energy is   -914.783783510559
 **  OPTIMIZATION CONVERGED  **
 Total job time:  140.93s(wall), 1628.35s(cpu)
        *  Thank you very much for using Q-Chem.  Have a nice day.  *
