 Q-Chem 5.1, Q-Chem, Inc., Pleasanton, CA (2018)
 Q-Chem 5.1.1 for Intel X86 EM64T Linux

User input:
--------------------------------------------------------------

$comment
potential surface scanner
$end

$rem
JOBTYPE  PES_SCAN
UNRESTRICTED TRUE
SYM_IGNORE  TRUE
GEOM_OPT_MAX_CYCLES 400
SCF_MAX_CYCLES 400
METHOD   B3LYP
BASIS   6-31G**
PDB_PRINT 2
SCF_CONVERGENCE 6
THRESH 14
SCF_PRINT 1
$end
$molecule
0 1
S 2.835326 0.499979 -0.009300
S -3.281235 0.814916 -0.031116
C 0.091894 0.174937 0.026907
C 1.394654 -0.658891 -0.024820
C -1.079429 -0.746689 0.027468
H 0.097478 0.794259 0.928446
H 0.052091 0.839168 -0.840499
H 1.459183 -1.325427 0.839328
H 1.425232 -1.260936 -0.936631
H -1.350961 -1.264442 0.941733
H -1.338910 -1.264767 -0.889939
H 3.791535 -0.448720 -0.058149
H -2.988665 1.270212 1.205470
$end
$scan
stre 2 5 2.800000 2.801000 0.100000
$end
--------------------------------------------------------------

   10    -915.4544204239      2.10e-07  Convergence criterion met
 Total energy in the final basis set =     -915.4544204239
   10    -915.4462843646      2.58e-07  Convergence criterion met
 Total energy in the final basis set =     -915.4462843646
   10    -915.4461656555      2.63e-07  Convergence criterion met
 Total energy in the final basis set =     -915.4461656555
   10    -915.4461875427      2.67e-07  Convergence criterion met
 Total energy in the final basis set =     -915.4461875427

             Standard Nuclear Orientation (Angstroms)
    I     Atom           X                Y                Z
 ----------------------------------------------------------------
    1      S       2.8430553578     0.5029943999    -0.0103876282
    2      S      -3.3436016477     0.8549081445    -0.0288853156
    3      C       0.1014244075     0.1629648485     0.0293109686
    4      C       1.4097975916    -0.6650720502    -0.0271514006
    5      C      -1.0607471270    -0.7653556675     0.0287207757
    6      H       0.1060597177     0.7787901359     0.9331108850
    7      H       0.0581502561     0.8283684939    -0.8370522405
    8      H       1.4788511555    -1.3335894307     0.8349828498
    9      H       1.4416329207    -1.2638718344    -0.9409345101
   10      H      -1.3493128335    -1.2712462536     0.9441034078
   11      H      -1.3380371915    -1.2687022528    -0.8912906790
   12      H       3.8045794819    -0.4400133750    -0.0642234734
   13      H      -3.0436590891     1.3034238417     1.2085943605
 ----------------------------------------------------------------

   10    -915.4461882905      2.67e-07  Convergence criterion met
 Total energy in the final basis set =     -915.4461882905

                    Orbital Energies (a.u.)
 --------------------------------------------------------------

 Alpha MOs
 -- Occupied --
-88.891 -88.860 -10.272 -10.248 -10.226  -7.953  -7.919  -5.918
 -5.915  -5.908  -5.883  -5.882  -5.873  -0.840  -0.764  -0.677
 -0.661  -0.616  -0.512  -0.472  -0.447  -0.424  -0.398  -0.378
 -0.363  -0.347  -0.254  -0.253  -0.222

 Beta MOs
 -- Occupied --
-88.891 -88.860 -10.272 -10.248 -10.226  -7.953  -7.919  -5.918
 -5.915  -5.908  -5.883  -5.882  -5.873  -0.840  -0.764  -0.677
 -0.661  -0.616  -0.512  -0.472  -0.447  -0.424  -0.398  -0.378
 -0.363  -0.347  -0.254  -0.253  -0.222

          Ground-State Mulliken Net Atomic Charges

     Atom                 Charge (a.u.)    Spin (a.u.)
  --------------------------------------------------------
      1 S                    -0.024373       0.000000
      2 S                    -0.310496       0.000000
      3 C                    -0.201437      -0.000000
      4 C                    -0.340488       0.000000
      5 C                    -0.163126       0.000000
      6 H                     0.146117       0.000000
      7 H                     0.162238       0.000000
      8 H                     0.144407      -0.000000
      9 H                     0.146504      -0.000000
     10 H                     0.162427      -0.000000
     11 H                     0.164384       0.000000
     12 H                     0.062916      -0.000000
     13 H                     0.050928      -0.000000
  --------------------------------------------------------
  Sum of atomic charges =     0.000000

                    Cartesian Multipole Moments
 -----------------------------------------------------------------
    Charge (ESU x 10^10)
                 0.0000
    Dipole Moment (Debye)
         X       3.1649      Y      -3.0468      Z       0.7810
       Tot       4.4620
    Quadrupole Moments (Debye-Ang)
        XX     -60.4804     XY      -1.4203     YY     -46.8485
        XZ      -2.4994     YZ       1.9860     ZZ     -46.3525

 Final energy is   -915.446188290458
 **  OPTIMIZATION CONVERGED  **
 Total job time:  20.46s(wall), 232.74s(cpu)
        *  Thank you very much for using Q-Chem.  Have a nice day.  *
