 Q-Chem 5.1, Q-Chem, Inc., Pleasanton, CA (2018)
 Q-Chem 5.1.1 for Intel X86 EM64T Linux

User input:
--------------------------------------------------------------

$comment
potential surface scanner
$end

$rem
JOBTYPE  PES_SCAN
UNRESTRICTED TRUE
SYM_IGNORE  TRUE
GEOM_OPT_MAX_CYCLES 400
SCF_MAX_CYCLES 400
METHOD   B3LYP
BASIS   6-31G**
PDB_PRINT 2
SCF_CONVERGENCE 6
THRESH 14
SCF_PRINT 1
$end
$molecule
0 1
S 2.875801 0.502933 -0.017641
S -3.547117 0.964850 -0.025788
C 0.138185 0.130841 0.038840
C 1.458283 -0.684418 -0.037182
C -1.005677 -0.809201 0.036041
H 0.145010 0.735502 0.949988
H 0.085337 0.802725 -0.822498
H 1.540009 -1.361091 0.817105
H 1.488431 -1.271869 -0.958058
H -1.338257 -1.280098 0.954384
H -1.322324 -1.279407 -0.888230
H 3.848020 -0.427869 -0.087261
H -3.257508 1.400698 1.219195
$end
$scan
stre 2 5 3.200000 3.201000 0.100000
$end
--------------------------------------------------------------

   11    -915.4246713748      2.31e-07  Convergence criterion met
 Total energy in the final basis set =     -915.4246713748
   11    -915.4183369746      4.12e-07  Convergence criterion met
 Total energy in the final basis set =     -915.4183369746
   11    -915.4183298772      4.28e-07  Convergence criterion met
 Total energy in the final basis set =     -915.4183298772
   11    -915.4185056635      4.56e-07  Convergence criterion met
 Total energy in the final basis set =     -915.4185056635
   11    -915.4185119715      4.58e-07  Convergence criterion met
 Total energy in the final basis set =     -915.4185119715
   11    -915.4185334775      4.60e-07  Convergence criterion met
 Total energy in the final basis set =     -915.4185334775
   11    -915.4185445972      4.58e-07  Convergence criterion met
 Total energy in the final basis set =     -915.4185445972
   11    -915.4185494437      4.54e-07  Convergence criterion met
 Total energy in the final basis set =     -915.4185494437
   11    -915.4185506108      4.52e-07  Convergence criterion met
 Total energy in the final basis set =     -915.4185506108

             Standard Nuclear Orientation (Angstroms)
    I     Atom           X                Y                Z
 ----------------------------------------------------------------
    1      S       2.8851935531     0.5045644935    -0.0199860973
    2      S      -3.6112508302     1.0060539622    -0.0256905569
    3      C       0.1492811456     0.1187825454     0.0422360128
    4      C       1.4743485405    -0.6906587675    -0.0406599152
    5      C      -0.9882759355    -0.8258478984     0.0386277341
    6      H       0.1569085833     0.7193379476     0.9560105647
    7      H       0.0927197615     0.7923988139    -0.8176619328
    8      H       1.5609858459    -1.3700472471     0.8108613583
    9      H       1.5042374809    -1.2740262855    -0.9640291723
   10      H      -1.3348103965    -1.2851070500     0.9573389589
   11      H      -1.3167274714    -1.2853114001    -0.8867366924
   12      H       3.8621109324    -0.4208718731    -0.0945396483
   13      H      -3.3265282095     1.4343287592     1.2231243864
 ----------------------------------------------------------------

   11    -915.4185515560      4.50e-07  Convergence criterion met
 Total energy in the final basis set =     -915.4185515560

                    Orbital Energies (a.u.)
 --------------------------------------------------------------

 Alpha MOs
 -- Occupied --
-88.895 -88.852 -10.280 -10.254 -10.234  -7.958  -7.910  -5.923
 -5.919  -5.912  -5.874  -5.874  -5.865  -0.846  -0.770  -0.674
 -0.662  -0.622  -0.519  -0.480  -0.454  -0.431  -0.403  -0.385
 -0.355  -0.351  -0.257  -0.234  -0.214

 Beta MOs
 -- Occupied --
-88.895 -88.852 -10.280 -10.254 -10.234  -7.958  -7.910  -5.923
 -5.919  -5.912  -5.874  -5.874  -5.865  -0.846  -0.770  -0.674
 -0.662  -0.622  -0.519  -0.480  -0.454  -0.431  -0.403  -0.385
 -0.355  -0.351  -0.257  -0.234  -0.214

          Ground-State Mulliken Net Atomic Charges

     Atom                 Charge (a.u.)    Spin (a.u.)
  --------------------------------------------------------
      1 S                    -0.019070      -0.000000
      2 S                    -0.355518      -0.000000
      3 C                    -0.215730       0.000000
      4 C                    -0.341542       0.000000
      5 C                    -0.138057       0.000000
      6 H                     0.153610       0.000000
      7 H                     0.168970       0.000000
      8 H                     0.147903      -0.000000
      9 H                     0.149781      -0.000000
     10 H                     0.167746       0.000000
     11 H                     0.170192       0.000000
     12 H                     0.064813       0.000000
     13 H                     0.046901      -0.000000
  --------------------------------------------------------
  Sum of atomic charges =    -0.000000

                    Cartesian Multipole Moments
 -----------------------------------------------------------------
    Charge (ESU x 10^10)
                -0.0000
    Dipole Moment (Debye)
         X       4.1574      Y      -3.4919      Z       0.7939
       Tot       5.4870
    Quadrupole Moments (Debye-Ang)
        XX     -64.0492     XY       0.0184     YY     -47.1726
        XZ      -2.8612     YZ       2.0902     ZZ     -46.2049

 Final energy is   -915.418551556011
 **  OPTIMIZATION CONVERGED  **
 Total job time:  41.90s(wall), 482.32s(cpu)
        *  Thank you very much for using Q-Chem.  Have a nice day.  *
