 Q-Chem 5.1, Q-Chem, Inc., Pleasanton, CA (2018)
 Q-Chem 5.1.1 for Intel X86 EM64T Linux

User input:
--------------------------------------------------------------

$comment
potential surface scanner
$end

$rem
JOBTYPE  PES_SCAN
UNRESTRICTED TRUE
SYM_IGNORE  TRUE
GEOM_OPT_MAX_CYCLES 400
SCF_MAX_CYCLES 400
METHOD   B3LYP
BASIS   6-31G**
PDB_PRINT 2
SCF_CONVERGENCE 6
THRESH 14
SCF_PRINT 1
$end
$molecule
0 3
S 2.877102 0.484611 -0.022056
S -3.763921 1.481577 0.377653
C 0.130968 0.142862 0.150537
C 1.431549 -0.670749 -0.035167
C -1.071985 -0.742478 0.138783
H 0.192673 0.692533 1.096983
H 0.067730 0.886190 -0.653373
H 1.541434 -1.396452 0.774492
H 1.407770 -1.206991 -0.987160
H -1.368305 -1.274337 1.038778
H -1.455848 -1.126276 -0.802701
H 3.827680 -0.451815 -0.209845
H -2.708647 0.604931 0.311972
$end
$scan
stre 2 5 3.400000 3.401000 0.100000
$end
--------------------------------------------------------------

   12    -915.4118406290      8.74e-07  Convergence criterion met
 Total energy in the final basis set =     -915.4118406290
   13    -915.4104989351      2.86e-07  Convergence criterion met
 Total energy in the final basis set =     -915.4104989351
   12    -915.4113567202      9.37e-07  Convergence criterion met
 Total energy in the final basis set =     -915.4113567202
   12    -915.4116698813      8.41e-07  Convergence criterion met
 Total energy in the final basis set =     -915.4116698813
   12    -915.4116856046      8.28e-07  Convergence criterion met
 Total energy in the final basis set =     -915.4116856046
   12    -915.4116888474      8.26e-07  Convergence criterion met
 Total energy in the final basis set =     -915.4116888474
   12    -915.4116920415      8.27e-07  Convergence criterion met
 Total energy in the final basis set =     -915.4116920415
   12    -915.4116934710      8.31e-07  Convergence criterion met
 Total energy in the final basis set =     -915.4116934710

             Standard Nuclear Orientation (Angstroms)
    I     Atom           X                Y                Z
 ----------------------------------------------------------------
    1      S       2.8659361729     0.4834426780    -0.0213298805
    2      S      -3.6939278563     1.4465692052     0.3780845211
    3      C       0.1186347090     0.1558222329     0.1506388178
    4      C       1.4147270082    -0.6647839706    -0.0333256361
    5      C      -1.0885911948    -0.7248688404     0.1391750067
    6      H       0.1818717075     0.7062258762     1.0964725145
    7      H       0.0587385535     0.8984834292    -0.6540256061
    8      H       1.5208708169    -1.3897915266     0.7774908377
    9      H       1.3888289945    -1.2023363574    -0.9845421507
   10      H      -1.3729175454    -1.2682968426     1.0365743069
   11      H      -1.4600262901    -1.1205812402    -0.8027745520
   12      H       3.8117704354    -0.4580653046    -0.2076689016
   13      H      -2.6377155114     0.5617866608     0.3041267224
 ----------------------------------------------------------------

   12    -915.4116940796      8.32e-07  Convergence criterion met
 Total energy in the final basis set =     -915.4116940796

                    Orbital Energies (a.u.)
 --------------------------------------------------------------

 Alpha MOs
 -- Occupied --
-88.896 -88.880 -10.233 -10.221 -10.212  -7.957  -7.942  -5.929
 -5.919  -5.910  -5.907  -5.904  -5.897  -0.824  -0.753  -0.723
 -0.658  -0.602  -0.495  -0.458  -0.431  -0.424  -0.394  -0.384
 -0.363  -0.335  -0.309  -0.262  -0.243  -0.232

 Beta MOs
 -- Occupied --
-88.890 -88.880 -10.232 -10.212 -10.208  -7.951  -7.942  -5.914
 -5.910  -5.907  -5.906  -5.903  -5.897  -0.818  -0.741  -0.680
 -0.642  -0.594  -0.491  -0.454  -0.425  -0.408  -0.381  -0.376
 -0.360  -0.333  -0.246  -0.242

          Ground-State Mulliken Net Atomic Charges

     Atom                 Charge (a.u.)    Spin (a.u.)
  --------------------------------------------------------
      1 S                    -0.044124       0.020456
      2 S                    -0.085915       1.119652
      3 C                    -0.193307      -0.065167
      4 C                    -0.320006       0.044680
      5 C                    -0.256639       0.975798
      6 H                     0.132655       0.009681
      7 H                     0.133521       0.012766
      8 H                     0.139543      -0.000736
      9 H                     0.139249      -0.000930
     10 H                     0.130738      -0.038859
     11 H                     0.130693      -0.038823
     12 H                     0.058802       0.000477
     13 H                     0.034790      -0.038994
  --------------------------------------------------------
  Sum of atomic charges =     0.000000

                    Cartesian Multipole Moments
 -----------------------------------------------------------------
    Charge (ESU x 10^10)
                 0.0000
    Dipole Moment (Debye)
         X       1.1104      Y      -2.7572      Z      -0.2602
       Tot       2.9838
    Quadrupole Moments (Debye-Ang)
        XX     -56.3441     XY      -0.8983     YY     -49.5886
        XZ       0.0248     YZ      -0.4527     ZZ     -46.7409

 Final energy is   -915.411694079554
 **  OPTIMIZATION CONVERGED  **
 Total job time:  40.41s(wall), 463.04s(cpu)
        *  Thank you very much for using Q-Chem.  Have a nice day.  *
