 Q-Chem 5.1, Q-Chem, Inc., Pleasanton, CA (2018)
 Q-Chem 5.1.1 for Intel X86 EM64T Linux

User input:
--------------------------------------------------------------

$comment
potential surface scanner
$end

$rem
JOBTYPE  PES_SCAN
UNRESTRICTED TRUE
SYM_IGNORE  TRUE
GEOM_OPT_MAX_CYCLES 400
SCF_MAX_CYCLES 400
METHOD   B3LYP
BASIS   6-31G**
PDB_PRINT 2
SCF_CONVERGENCE 6
THRESH 14
SCF_PRINT 1
$end
$molecule
0 1
S 2.749000 0.445300 -0.001100
S -2.750400 0.444400 -0.000400
C 0.000900 0.283600 0.001800
C 1.255600 -0.587300 0.000700
C -1.255100 -0.586000 -0.001000
H 0.001400 0.930000 0.889200
H 0.001400 0.933800 -0.882900
H 1.280200 -1.230100 0.886500
H 1.278600 -1.230200 -0.885100
H -1.279500 -1.231800 0.882600
H -1.278100 -1.225300 -0.889300
H 3.631700 -0.564200 -0.001900
H -2.527500 1.041400 1.179800
$end
$scan
stre 2 5 1.400000 1.401000 0.100000
$end
--------------------------------------------------------------

    9    -915.5215846885      2.52e-07  Convergence criterion met
 Total energy in the final basis set =     -915.5215846885
    9    -915.5087000570      3.60e-07  Convergence criterion met
 Total energy in the final basis set =     -915.5087000570
    9    -915.4645237064      3.04e-07  Convergence criterion met
 Total energy in the final basis set =     -915.4645237064
    9    -915.3939117439      3.23e-07  Convergence criterion met
 Total energy in the final basis set =     -915.3939117439
    9    -915.3888911229      3.23e-07  Convergence criterion met
 Total energy in the final basis set =     -915.3888911229
    9    -915.3895474017      3.23e-07  Convergence criterion met
 Total energy in the final basis set =     -915.3895474017
    9    -915.3896055058      3.24e-07  Convergence criterion met
 Total energy in the final basis set =     -915.3896055058
    9    -915.3896433156      3.26e-07  Convergence criterion met
    9    -915.3896513614      3.27e-07  Convergence criterion met
 Total energy in the final basis set =     -915.3896513614
    9    -915.3896533652      3.27e-07  Convergence criterion met
 Total energy in the final basis set =     -915.3896533652
    9    -915.3896563501      3.27e-07  Convergence criterion met
 Total energy in the final basis set =     -915.3896563501
    9    -915.3896584573      3.27e-07  Convergence criterion met
 Total energy in the final basis set =     -915.3896584573
    9    -915.3896604865      3.26e-07  Convergence criterion met
 Total energy in the final basis set =     -915.3896604865
    9    -915.3896618719      3.26e-07  Convergence criterion met
 Total energy in the final basis set =     -915.3896618719

             Standard Nuclear Orientation (Angstroms)
    I     Atom           X                Y                Z
 ----------------------------------------------------------------
    1      S       2.7664694804     0.4252397031    -0.0017289156
    2      S      -2.5761159913     0.2188871679    -0.0102579904
    3      C       0.0046272987     0.3234078161     0.0015621588
    4      C       1.2244919830    -0.5936663691    -0.0098934317
    5      C      -1.3581731509    -0.4687972158     0.0506145806
    6      H       0.0398059224     0.9798460799     0.8811156199
    7      H      -0.0013800866     0.9725239324    -0.8819885230
    8      H       1.2252559337    -1.2418301486     0.8715666948
    9      H       1.2218068402    -1.2253653261    -0.9035346813
   10      H      -1.2030386966    -1.2085531627     0.8720370814
   11      H      -1.3049959363    -1.1365895972    -0.8278871428
   12      H       3.6388735127    -0.6021783122     0.0217797438
   13      H      -2.5694271093     0.9806754322     1.1155148054
 ----------------------------------------------------------------

    9    -915.3896628326      3.26e-07  Convergence criterion met
 Total energy in the final basis set =     -915.3896628326

                    Orbital Energies (a.u.)
 --------------------------------------------------------------

 Alpha MOs
 -- Occupied --
-88.876 -88.860 -10.226 -10.208 -10.200  -7.939  -7.937  -5.904
 -5.902  -5.900  -5.897  -5.893  -5.891  -0.901  -0.803  -0.713
 -0.619  -0.604  -0.514  -0.470  -0.457  -0.436  -0.399  -0.379
 -0.363  -0.331  -0.307  -0.239  -0.222

 Beta MOs
 -- Occupied --
-88.876 -88.860 -10.226 -10.208 -10.200  -7.939  -7.937  -5.904
 -5.902  -5.900  -5.897  -5.893  -5.891  -0.901  -0.803  -0.713
 -0.619  -0.604  -0.514  -0.470  -0.457  -0.436  -0.399  -0.379
 -0.363  -0.331  -0.307  -0.239  -0.222

          Ground-State Mulliken Net Atomic Charges

     Atom                 Charge (a.u.)    Spin (a.u.)
  --------------------------------------------------------
      1 S                    -0.043381      -0.000000
      2 S                    -0.004570      -0.000000
      3 C                    -0.199114       0.000000
      4 C                    -0.331448      -0.000000
      5 C                    -0.286532       0.000000
      6 H                     0.115310      -0.000000
      7 H                     0.128053      -0.000000
      8 H                     0.135472       0.000000
      9 H                     0.134588      -0.000000
     10 H                     0.109375       0.000000
     11 H                     0.150465       0.000000
     12 H                     0.055684       0.000000
     13 H                     0.036097      -0.000000
  --------------------------------------------------------
  Sum of atomic charges =    -0.000000

                    Cartesian Multipole Moments
 -----------------------------------------------------------------
    Charge (ESU x 10^10)
                 0.0000
    Dipole Moment (Debye)
         X       0.3642      Y      -1.8249      Z       0.5942
       Tot       1.9534
    Quadrupole Moments (Debye-Ang)
        XX     -53.1959     XY      -4.4426     YY     -45.9835
        XZ      -1.7804     YZ       1.7172     ZZ     -46.8323

 Final energy is   -915.389662832552
 **  OPTIMIZATION CONVERGED  **
 Total job time:  62.13s(wall), 716.97s(cpu)
        *  Thank you very much for using Q-Chem.  Have a nice day.  *
