 Q-Chem 5.1, Q-Chem, Inc., Pleasanton, CA (2018)
 Q-Chem 5.1.1 for Intel X86 EM64T Linux

User input:
--------------------------------------------------------------

$comment
potential surface scanner
$end

$rem
JOBTYPE  PES_SCAN
UNRESTRICTED TRUE
SYM_IGNORE  TRUE
GEOM_OPT_MAX_CYCLES 400
SCF_MAX_CYCLES 400
METHOD   B3LYP
BASIS   6-31G**
PDB_PRINT 2
SCF_CONVERGENCE 6
THRESH 14
SCF_PRINT 1
$end
$molecule
0 3
S 2.896031 -0.060077 0.034805
S -3.310394 -0.737172 0.067292
C 0.200951 0.492537 0.272515
C 1.145990 -0.650798 -0.071947
C -1.359397 0.028276 0.200331
H 0.396878 0.862649 1.284533
H 0.338484 1.328897 -0.421243
H 1.010235 -1.484219 0.624259
H 0.955420 -1.013896 -1.086494
H -1.363537 -0.769736 0.944047
H -1.425138 -0.295321 -0.839245
H 3.481211 -1.229756 -0.291784
H -1.858535 0.952224 0.461823
$end
$scan
stre 2 5 2.000000 2.001000 0.100000
$end
--------------------------------------------------------------

   10    -915.3763471170      5.32e-07  Convergence criterion met
 Total energy in the final basis set =     -915.3763471170
   10    -915.3571360422      6.03e-07  Convergence criterion met
 Total energy in the final basis set =     -915.3571360422
   10    -915.3573699105      6.32e-07  Convergence criterion met
 Total energy in the final basis set =     -915.3573699105
   10    -915.3586870876      7.17e-07  Convergence criterion met
 Total energy in the final basis set =     -915.3586870876
   10    -915.3591902731      8.22e-07  Convergence criterion met
 Total energy in the final basis set =     -915.3591902731
   11    -915.3611816428      5.19e-07  Convergence criterion met
 Total energy in the final basis set =     -915.3611816428
   11    -915.3659820712      5.31e-07  Convergence criterion met
 Total energy in the final basis set =     -915.3659820712
   10    -915.3735633862      8.48e-07  Convergence criterion met
   10    -915.4057214882      9.01e-07  Convergence criterion met
 Total energy in the final basis set =     -915.4057214882
   10    -915.4057968652      8.95e-07  Convergence criterion met
 Total energy in the final basis set =     -915.4057968652
   10    -915.4058456631      8.95e-07  Convergence criterion met
 Total energy in the final basis set =     -915.4058456631
   10    -915.4058984489      9.00e-07  Convergence criterion met
 Total energy in the final basis set =     -915.4058984489
   10    -915.4059043860      9.03e-07  Convergence criterion met
 Total energy in the final basis set =     -915.4059043860
   10    -915.4059058493      9.05e-07  Convergence criterion met
 Total energy in the final basis set =     -915.4059058493

             Standard Nuclear Orientation (Angstroms)
    I     Atom           X                Y                Z
 ----------------------------------------------------------------
    1      S       3.6148593696    -0.1423206114    -0.0414591863
    2      S      -4.5535803773    -0.6603863247     0.0532961717
    3      C       0.9978572202     0.6701350077     0.2991352322
    4      C       1.7671827872    -0.5406405155    -0.0473859324
    5      C      -2.6107133054    -0.2079577104     0.1967418334
    6      H       0.8466426192     0.9457421627     1.3371312770
    7      H       0.7707952981     1.4105217536    -0.4602256150
    8      H       1.6089156040    -1.3413057006     0.6787241745
    9      H       1.5216258709    -0.9013379820    -1.0489817181
   10      H      -2.1679828765    -0.8757251406     0.9331234731
   11      H      -2.2028583690    -0.3983213186    -0.7973031455
   12      H       4.0374099024    -1.3764136980    -0.3908278773
   13      H      -2.5219547435     0.8416180778     0.4669233127
 ----------------------------------------------------------------

   10    -915.4059065479      9.07e-07  Convergence criterion met
 Total energy in the final basis set =     -915.4059065479

                    Orbital Energies (a.u.)
 --------------------------------------------------------------

 Alpha MOs
 -- Occupied --
-88.898 -88.878 -10.234 -10.233 -10.216  -7.956  -7.941  -5.927
 -5.918  -5.909  -5.906  -5.902  -5.895  -0.807  -0.754  -0.708
 -0.644  -0.607  -0.483  -0.450  -0.440  -0.437  -0.406  -0.388
 -0.349  -0.341  -0.293  -0.248  -0.242  -0.228

 Beta MOs
 -- Occupied --
-88.892 -88.878 -10.235 -10.234 -10.203  -7.951  -7.940  -5.915
 -5.910  -5.906  -5.905  -5.901  -5.894  -0.796  -0.740  -0.691
 -0.612  -0.592  -0.477  -0.442  -0.437  -0.434  -0.397  -0.383
 -0.340  -0.335  -0.240  -0.234

          Ground-State Mulliken Net Atomic Charges

     Atom                 Charge (a.u.)    Spin (a.u.)
  --------------------------------------------------------
      1 S                    -0.047308       0.095848
      2 S                    -0.030587       1.016973
      3 C                    -0.211733       1.034027
      4 C                    -0.336270      -0.086898
      5 C                    -0.451521      -0.040401
      6 H                     0.125418      -0.044678
      7 H                     0.125468      -0.044625
      8 H                     0.147362       0.011637
      9 H                     0.146956       0.012548
     10 H                     0.158912       0.006411
     11 H                     0.158870       0.018946
     12 H                     0.054076       0.016325
     13 H                     0.160358       0.003885
  --------------------------------------------------------
  Sum of atomic charges =    -0.000000

                    Cartesian Multipole Moments
 -----------------------------------------------------------------
    Charge (ESU x 10^10)
                 0.0000
    Dipole Moment (Debye)
         X       0.7165      Y      -0.6354      Z      -0.1155
       Tot       0.9646
    Quadrupole Moments (Debye-Ang)
        XX     -66.6078     XY      -6.5553     YY     -46.4834
        XZ      -1.4800     YZ       1.2502     ZZ     -46.3400

 Final energy is   -915.405906547887
 **  OPTIMIZATION CONVERGED  **
 Total job time:  97.01s(wall), 1118.91s(cpu)
        *  Thank you very much for using Q-Chem.  Have a nice day.  *
