 Q-Chem 5.1, Q-Chem, Inc., Pleasanton, CA (2018)
 Q-Chem 5.1.1 for Intel X86 EM64T Linux

User input:
--------------------------------------------------------------

$comment
potential surface scanner
$end

$rem
JOBTYPE  PES_SCAN
UNRESTRICTED TRUE
SYM_IGNORE  TRUE
GEOM_OPT_MAX_CYCLES 400
SCF_MAX_CYCLES 400
METHOD   B3LYP
BASIS   6-31G**
PDB_PRINT 2
SCF_CONVERGENCE 6
THRESH 14
SCF_PRINT 1
$end
$molecule
0 3
S 3.021175 0.507820 -0.044700
S -4.361687 1.458171 -0.063886
C 0.300080 -0.035041 0.106277
C 1.659388 -0.746842 -0.077303
C -0.837369 -1.000508 0.091293
H 0.323150 0.515604 1.055005
H 0.184828 0.705264 -0.694954
H 1.816659 -1.469878 0.726901
H 1.680547 -1.275492 -1.033459
H -1.145464 -1.511138 0.997942
H -1.283992 -1.320592 -0.844277
H 4.038454 -0.355851 -0.232230
H -4.287568 1.952087 1.192284
$end
$scan
stre 2 5 4.200000 4.201000 0.100000
$end
--------------------------------------------------------------

   12    -915.4089296266      8.33e-07  Convergence criterion met
 Total energy in the final basis set =     -915.4089296266
   12    -915.4087688047      8.49e-07  Convergence criterion met
 Total energy in the final basis set =     -915.4087688047
   12    -915.4088661957      8.42e-07  Convergence criterion met
 Total energy in the final basis set =     -915.4088661957
   12    -915.4089024947      8.36e-07  Convergence criterion met
 Total energy in the final basis set =     -915.4089024947
   12    -915.4089042596      8.36e-07  Convergence criterion met
 Total energy in the final basis set =     -915.4089042596
   12    -915.4089086729      8.36e-07  Convergence criterion met
 Total energy in the final basis set =     -915.4089086729
   12    -915.4089104528      8.36e-07  Convergence criterion met
 Total energy in the final basis set =     -915.4089104528
   12    -915.4089195343      8.36e-07  Convergence criterion met
   13    -915.4106746956      2.68e-07  Convergence criterion met
 Total energy in the final basis set =     -915.4106746956
   13    -915.4106947682      2.50e-07  Convergence criterion met
 Total energy in the final basis set =     -915.4106947682
   13    -915.4107409669      2.31e-07  Convergence criterion met
 Total energy in the final basis set =     -915.4107409669
   13    -915.4107851084      2.31e-07  Convergence criterion met
 Total energy in the final basis set =     -915.4107851084
   13    -915.4107964981      2.36e-07  Convergence criterion met
 Total energy in the final basis set =     -915.4107964981
   13    -915.4108033538      2.33e-07  Convergence criterion met
 Total energy in the final basis set =     -915.4108033538

             Standard Nuclear Orientation (Angstroms)
    I     Atom           X                Y                Z
 ----------------------------------------------------------------
    1      S       2.9758101101     0.4572374466    -0.0323527324
    2      S      -4.3331765862     1.6854519627     0.3746739040
    3      C       0.2329095567     0.0829685110     0.1576559211
    4      C       1.5418657890    -0.7131863079    -0.0461242319
    5      C      -0.9626302930    -0.8099533216     0.1458257997
    6      H       0.2983840732     0.6231118665     1.1098346271
    7      H       0.1581689682     0.8351899423    -0.6372615440
    8      H       1.6656229579    -1.4456478236     0.7553394689
    9      H       1.5166300706    -1.2404103884    -1.0030652669
   10      H      -1.2810323698    -1.3208485207     1.0487963573
   11      H      -1.3964581056    -1.1414902891    -0.7927572634
   12      H       3.9355939457    -0.4662520723    -0.2368167868
   13      H      -3.2434871170     0.8774329946     0.3351447474
 ----------------------------------------------------------------

   13    -915.4108040160      2.32e-07  Convergence criterion met
 Total energy in the final basis set =     -915.4108040160

                    Orbital Energies (a.u.)
 --------------------------------------------------------------

 Alpha MOs
 -- Occupied --
-88.906 -88.877 -10.229 -10.211 -10.207  -7.968  -7.939  -5.939
 -5.929  -5.920  -5.904  -5.900  -5.893  -0.819  -0.746  -0.733
 -0.653  -0.596  -0.489  -0.453  -0.425  -0.413  -0.404  -0.380
 -0.358  -0.331  -0.317  -0.269  -0.240  -0.224

 Beta MOs
 -- Occupied --
-88.901 -88.876 -10.227 -10.208 -10.198  -7.962  -7.939  -5.926
 -5.921  -5.917  -5.904  -5.900  -5.893  -0.812  -0.735  -0.693
 -0.637  -0.587  -0.485  -0.450  -0.420  -0.400  -0.392  -0.372
 -0.355  -0.330  -0.255  -0.239

          Ground-State Mulliken Net Atomic Charges

     Atom                 Charge (a.u.)    Spin (a.u.)
  --------------------------------------------------------
      1 S                    -0.050099       0.020623
      2 S                    -0.083711       1.039778
      3 C                    -0.202735      -0.072333
      4 C                    -0.316165       0.047425
      5 C                    -0.236105       1.053189
      6 H                     0.126939       0.011294
      7 H                     0.128154       0.013857
      8 H                     0.138387      -0.000563
      9 H                     0.138124      -0.000760
     10 H                     0.116858      -0.045498
     11 H                     0.116006      -0.045451
     12 H                     0.057943       0.000170
     13 H                     0.066405      -0.021730
  --------------------------------------------------------
  Sum of atomic charges =    -0.000000

                    Cartesian Multipole Moments
 -----------------------------------------------------------------
    Charge (ESU x 10^10)
                -0.0000
    Dipole Moment (Debye)
         X       0.6612      Y      -2.4241      Z      -0.2024
       Tot       2.5208
    Quadrupole Moments (Debye-Ang)
        XX     -56.0695     XY      -1.3745     YY     -49.8766
        XZ      -0.0235     YZ      -0.0141     ZZ     -46.6994

 Final energy is   -915.410804015965
 **  OPTIMIZATION CONVERGED  **
 Total job time:  303.83s(wall), 3510.21s(cpu)
        *  Thank you very much for using Q-Chem.  Have a nice day.  *
