 Q-Chem 5.1, Q-Chem, Inc., Pleasanton, CA (2018)
 Q-Chem 5.1.1 for Intel X86 EM64T Linux

User input:
--------------------------------------------------------------

$comment
potential surface scanner
$end

$rem
JOBTYPE  PES_SCAN
UNRESTRICTED TRUE
SYM_IGNORE  TRUE
GEOM_OPT_MAX_CYCLES 400
SCF_MAX_CYCLES 400
METHOD   B3LYP
BASIS   6-31G**
PDB_PRINT 2
SCF_CONVERGENCE 6
THRESH 14
SCF_PRINT 1
$end
$molecule
0 3
S 3.614859 -0.142321 -0.041459
S -4.553580 -0.660386 0.053296
C 0.997857 0.670135 0.299135
C 1.767183 -0.540641 -0.047386
C -2.610713 -0.207958 0.196742
H 0.846643 0.945742 1.337131
H 0.770795 1.410522 -0.460226
H 1.608916 -1.341306 0.678724
H 1.521626 -0.901338 -1.048982
H -2.167983 -0.875725 0.933123
H -2.202858 -0.398321 -0.797303
H 4.037410 -1.376414 -0.390828
H -2.521955 0.841618 0.466923
$end
$scan
stre 2 5 1.900000 1.901000 0.100000
$end
--------------------------------------------------------------

   10    -915.4059065623      9.07e-07  Convergence criterion met
 Total energy in the final basis set =     -915.4059065623
   10    -915.4118910926      7.96e-07  Convergence criterion met
 Total energy in the final basis set =     -915.4118910926
   10    -915.4119954656      7.88e-07  Convergence criterion met
 Total energy in the final basis set =     -915.4119954656
   10    -915.4122006690      8.10e-07  Convergence criterion met
 Total energy in the final basis set =     -915.4122006690
   10    -915.4122266476      8.09e-07  Convergence criterion met
 Total energy in the final basis set =     -915.4122266476
   10    -915.4122785875      8.02e-07  Convergence criterion met
 Total energy in the final basis set =     -915.4122785875
   10    -915.4122819218      7.97e-07  Convergence criterion met
 Total energy in the final basis set =     -915.4122819218

             Standard Nuclear Orientation (Angstroms)
    I     Atom           X                Y                Z
 ----------------------------------------------------------------
    1      S       3.6100208967    -0.1418188459    -0.0416006271
    2      S      -4.4843725065    -0.6444983193     0.0521613989
    3      C       0.9918938123     0.6693230419     0.2990866971
    4      C       1.7625783280    -0.5406435034    -0.0473835441
    5      C      -2.6391723997    -0.2159616531     0.1991066486
    6      H       0.8394730155     0.9442878914     1.3370363338
    7      H       0.7631410425     1.4086578023    -0.4607027358
    8      H       1.6042500689    -1.3413813199     0.6786411954
    9      H       1.5166252063    -0.9011711244    -1.0489472588
   10      H      -2.1643721003    -0.8728966256     0.9279430596
   11      H      -2.2071323879    -0.3984411534    -0.7895036237
   12      H       4.0327298052    -1.3760741176    -0.3901709499
   13      H      -2.5174627810     0.8342249269     0.4632234059
 ----------------------------------------------------------------

   10    -915.4122822319      7.96e-07  Convergence criterion met
 Total energy in the final basis set =     -915.4122822319

                    Orbital Energies (a.u.)
 --------------------------------------------------------------

 Alpha MOs
 -- Occupied --
-88.896 -88.878 -10.234 -10.228 -10.216  -7.955  -7.940  -5.926
 -5.917  -5.908  -5.906  -5.902  -5.894  -0.807  -0.768  -0.708
 -0.639  -0.607  -0.483  -0.449  -0.442  -0.437  -0.406  -0.388
 -0.361  -0.341  -0.290  -0.247  -0.241  -0.227

 Beta MOs
 -- Occupied --
-88.890 -88.877 -10.235 -10.228 -10.203  -7.950  -7.939  -5.914
 -5.909  -5.905  -5.904  -5.901  -5.894  -0.796  -0.753  -0.691
 -0.610  -0.592  -0.477  -0.442  -0.436  -0.432  -0.396  -0.383
 -0.351  -0.335  -0.239  -0.233

          Ground-State Mulliken Net Atomic Charges

     Atom                 Charge (a.u.)    Spin (a.u.)
  --------------------------------------------------------
      1 S                    -0.047310       0.095874
      2 S                    -0.008760       0.997463
      3 C                    -0.211625       1.034798
      4 C                    -0.336276      -0.086903
      5 C                    -0.466649      -0.034021
      6 H                     0.125393      -0.044722
      7 H                     0.125329      -0.044674
      8 H                     0.147341       0.011669
      9 H                     0.146785       0.012545
     10 H                     0.155878       0.007667
     11 H                     0.158635       0.028027
     12 H                     0.053990       0.016282
     13 H                     0.157270       0.005995
  --------------------------------------------------------
  Sum of atomic charges =     0.000000

                    Cartesian Multipole Moments
 -----------------------------------------------------------------
    Charge (ESU x 10^10)
                -0.0000
    Dipole Moment (Debye)
         X       0.6477      Y      -0.6533      Z      -0.1292
       Tot       0.9290
    Quadrupole Moments (Debye-Ang)
        XX     -66.1254     XY      -6.4979     YY     -46.3883
        XZ      -1.4862     YZ       1.3383     ZZ     -46.3824

 Final energy is   -915.412282231860
 **  OPTIMIZATION CONVERGED  **
 Total job time:  29.40s(wall), 335.26s(cpu)
        *  Thank you very much for using Q-Chem.  Have a nice day.  *
