 Q-Chem 5.1, Q-Chem, Inc., Pleasanton, CA (2018)
 Q-Chem 5.1.1 for Intel X86 EM64T Linux

User input:
--------------------------------------------------------------

$comment
potential surface scanner
$end

$rem
JOBTYPE  PES_SCAN
UNRESTRICTED TRUE
SYM_IGNORE  TRUE
GEOM_OPT_MAX_CYCLES 400
SCF_MAX_CYCLES 400
METHOD   B3LYP
BASIS   6-31G**
PDB_PRINT 2
SCF_CONVERGENCE 6
THRESH 14
SCF_PRINT 1
$end
$molecule
0 3
S 2.910639 -0.055195 0.031692
S -3.444167 -0.757007 0.055790
C 0.212873 0.493015 0.274594
C 1.162917 -0.650807 -0.070600
C -1.294994 0.048420 0.205264
H 0.424773 0.864756 1.283521
H 0.366981 1.329572 -0.416488
H 1.029181 -1.482955 0.627128
H 0.969870 -1.014962 -1.084063
H -1.399172 -0.758883 0.933704
H -1.453522 -0.300787 -0.817531
H 3.497839 -1.222410 -0.298537
H -1.875018 0.930852 0.454420
$end
$scan
stre 2 5 2.200000 2.201000 0.100000
$end
--------------------------------------------------------------

   10    -915.4057257328      3.79e-07  Convergence criterion met
 Total energy in the final basis set =     -915.4057257328
   10    -915.3924647642      3.75e-07  Convergence criterion met
 Total energy in the final basis set =     -915.3924647642
   10    -915.3923700597      3.95e-07  Convergence criterion met
 Total energy in the final basis set =     -915.3923700597
   10    -915.3925112368      4.22e-07  Convergence criterion met
 Total energy in the final basis set =     -915.3925112368
   10    -915.3925147118      4.23e-07  Convergence criterion met
 Total energy in the final basis set =     -915.3925147118
   10    -915.3925164179      4.24e-07  Convergence criterion met
 Total energy in the final basis set =     -915.3925164179

             Standard Nuclear Orientation (Angstroms)
    I     Atom           X                Y                Z
 ----------------------------------------------------------------
    1      S       2.9021035165    -0.0575496492     0.0350911604
    2      S      -3.3696599963    -0.7477337596     0.0650580765
    3      C       0.2050330605     0.4922912421     0.2727578323
    4      C       1.1537033746    -0.6511644833    -0.0719867958
    5      C      -1.3205776112     0.0411650389     0.2025395508
    6      H       0.4111841115     0.8631019945     1.2829920957
    7      H       0.3537853104     1.3291025347    -0.4188398583
    8      H       1.0182765310    -1.4844051463     0.6242782286
    9      H       0.9630213291    -1.0141288538    -1.0864227437
   10      H      -1.3845497607    -0.7638038167     0.9366851022
   11      H      -1.4439849000    -0.2976255716    -0.8274910210
   12      H       3.4888939278    -1.2256529286    -0.2931857880
   13      H      -1.8690288932     0.9400123991     0.4574181603
 ----------------------------------------------------------------

   10    -915.3925169807      4.23e-07  Convergence criterion met
 Total energy in the final basis set =     -915.3925169807

                    Orbital Energies (a.u.)
 --------------------------------------------------------------

 Alpha MOs
 -- Occupied --
-88.886 -88.879 -10.229 -10.215 -10.212  -7.949  -7.942  -5.918
 -5.917  -5.907  -5.903  -5.900  -5.896  -0.828  -0.775  -0.714
 -0.649  -0.600  -0.500  -0.467  -0.453  -0.440  -0.392  -0.373
 -0.370  -0.334  -0.293  -0.251  -0.242  -0.231

 Beta MOs
 -- Occupied --
-88.879 -88.876 -10.229 -10.214 -10.210  -7.942  -7.939  -5.907
 -5.903  -5.898  -5.898  -5.896  -5.894  -0.822  -0.764  -0.688
 -0.619  -0.576  -0.494  -0.463  -0.446  -0.432  -0.381  -0.365
 -0.361  -0.331  -0.242  -0.227

          Ground-State Mulliken Net Atomic Charges

     Atom                 Charge (a.u.)    Spin (a.u.)
  --------------------------------------------------------
      1 S                    -0.043957       0.003058
      2 S                    -0.095811       1.790615
      3 C                    -0.208802       0.122688
      4 C                    -0.319577      -0.004307
      5 C                    -0.438045       0.018772
      6 H                     0.126658       0.001872
      7 H                     0.126462       0.001912
      8 H                     0.137014       0.001099
      9 H                     0.137098       0.001063
     10 H                     0.167280       0.023387
     11 H                     0.167033       0.023169
     12 H                     0.058323       0.002838
     13 H                     0.186323       0.013833
  --------------------------------------------------------
  Sum of atomic charges =    -0.000000

                    Cartesian Multipole Moments
 -----------------------------------------------------------------
    Charge (ESU x 10^10)
                -0.0000
    Dipole Moment (Debye)
         X       0.7800      Y      -0.4249      Z      -0.1451
       Tot       0.9000
    Quadrupole Moments (Debye-Ang)
        XX     -59.7185     XY      -6.3322     YY     -46.9514
        XZ      -1.1182     YZ       0.0954     ZZ     -46.6888

 Final energy is   -915.392516980671
 **  OPTIMIZATION CONVERGED  **
 Total job time:  29.09s(wall), 329.95s(cpu)
        *  Thank you very much for using Q-Chem.  Have a nice day.  *
