 Q-Chem 5.1, Q-Chem, Inc., Pleasanton, CA (2018)
 Q-Chem 5.1.1 for Intel X86 EM64T Linux

User input:
--------------------------------------------------------------

$comment
potential surface scanner
$end

$rem
JOBTYPE  PES_SCAN
UNRESTRICTED TRUE
SYM_IGNORE  TRUE
GEOM_OPT_MAX_CYCLES 400
SCF_MAX_CYCLES 400
METHOD   B3LYP
BASIS   6-31G**
PDB_PRINT 2
SCF_CONVERGENCE 6
THRESH 14
SCF_PRINT 1
$end
$molecule
0 3
S 2.975810 0.457237 -0.032353
S -4.333177 1.685452 0.374674
C 0.232910 0.082969 0.157656
C 1.541866 -0.713186 -0.046124
C -0.962630 -0.809953 0.145826
H 0.298384 0.623112 1.109835
H 0.158169 0.835190 -0.637262
H 1.665623 -1.445648 0.755339
H 1.516630 -1.240410 -1.003065
H -1.281032 -1.320849 1.048796
H -1.396458 -1.141490 -0.792757
H 3.935594 -0.466252 -0.236817
H -3.243487 0.877433 0.335145
$end
$scan
stre 2 5 4.100000 4.101000 0.100000
$end
--------------------------------------------------------------

   13    -915.4108040151      2.32e-07  Convergence criterion met
 Total energy in the final basis set =     -915.4108040151
   13    -915.4086514430      2.28e-07  Convergence criterion met
 Total energy in the final basis set =     -915.4086514430
   13    -915.4104836240      2.36e-07  Convergence criterion met
 Total energy in the final basis set =     -915.4104836240
   13    -915.4110168077      2.38e-07  Convergence criterion met
 Total energy in the final basis set =     -915.4110168077
   13    -915.4110336471      2.41e-07  Convergence criterion met
 Total energy in the final basis set =     -915.4110336471

             Standard Nuclear Orientation (Angstroms)
    I     Atom           X                Y                Z
 ----------------------------------------------------------------
    1      S       2.9591294703     0.4638798240    -0.0315363380
    2      S      -4.2453305589     1.6625358054     0.3707765282
    3      C       0.2162116022     0.0897055744     0.1576846807
    4      C       1.5252877402    -0.7066090097    -0.0450998992
    5      C      -0.9784241069    -0.8046513330     0.1464776049
    6      H       0.2811818478     0.6305347899     1.1094470485
    7      H       0.1412996623     0.8410465368    -0.6380210708
    8      H       1.6486293464    -1.4384947394     0.7569441737
    9      H       1.5003789943    -1.2343693181    -1.0017440763
   10      H      -1.2912368341    -1.3213884737     1.0486504959
   11      H      -1.4055165724    -1.1420196209    -0.7932104639
   12      H       3.9191683857    -0.4599684087    -0.2330727687
   13      H      -3.1625769768     0.8434033730     0.3315970850
 ----------------------------------------------------------------

   13    -915.4110339974      2.41e-07  Convergence criterion met
 Total energy in the final basis set =     -915.4110339974

                    Orbital Energies (a.u.)
 --------------------------------------------------------------

 Alpha MOs
 -- Occupied --
-88.905 -88.877 -10.229 -10.213 -10.207  -7.967  -7.939  -5.938
 -5.928  -5.919  -5.904  -5.901  -5.894  -0.819  -0.747  -0.732
 -0.654  -0.597  -0.490  -0.454  -0.426  -0.413  -0.403  -0.380
 -0.358  -0.332  -0.316  -0.269  -0.240  -0.225

 Beta MOs
 -- Occupied --
-88.900 -88.877 -10.228 -10.208 -10.199  -7.961  -7.939  -5.925
 -5.920  -5.916  -5.904  -5.901  -5.894  -0.813  -0.736  -0.692
 -0.638  -0.587  -0.486  -0.450  -0.420  -0.401  -0.391  -0.373
 -0.356  -0.330  -0.254  -0.240

          Ground-State Mulliken Net Atomic Charges

     Atom                 Charge (a.u.)    Spin (a.u.)
  --------------------------------------------------------
      1 S                    -0.049497       0.020648
      2 S                    -0.084256       1.043072
      3 C                    -0.202609      -0.071892
      4 C                    -0.316571       0.047456
      5 C                    -0.236660       1.048469
      6 H                     0.127531       0.011199
      7 H                     0.128599       0.013719
      8 H                     0.138497      -0.000590
      9 H                     0.138247      -0.000779
     10 H                     0.117781      -0.045078
     11 H                     0.117098      -0.044999
     12 H                     0.058040       0.000207
     13 H                     0.063799      -0.021433
  --------------------------------------------------------
  Sum of atomic charges =     0.000000

                    Cartesian Multipole Moments
 -----------------------------------------------------------------
    Charge (ESU x 10^10)
                -0.0000
    Dipole Moment (Debye)
         X       0.7093      Y      -2.4629      Z      -0.2041
       Tot       2.5711
    Quadrupole Moments (Debye-Ang)
        XX     -56.0403     XY      -1.3350     YY     -49.8553
        XZ      -0.0787     YZ      -0.1285     ZZ     -46.6918

 Final energy is   -915.411033997367
 **  OPTIMIZATION CONVERGED  **
 Total job time:  28.24s(wall), 317.81s(cpu)
        *  Thank you very much for using Q-Chem.  Have a nice day.  *
