 Q-Chem 5.1, Q-Chem, Inc., Pleasanton, CA (2018)
 Q-Chem 5.1.1 for Intel X86 EM64T Linux

User input:
--------------------------------------------------------------

$comment
potential surface scanner
$end

$rem
JOBTYPE  PES_SCAN
UNRESTRICTED TRUE
SYM_IGNORE  TRUE
GEOM_OPT_MAX_CYCLES 400
SCF_MAX_CYCLES 400
METHOD   B3LYP
BASIS   6-31G**
PDB_PRINT 2
SCF_CONVERGENCE 6
THRESH 14
SCF_PRINT 1
$end
$molecule
0 1
S 2.787174 0.468633 -0.007509
S -2.892818 0.502239 -0.015927
C 0.032227 0.255329 0.010046
C 1.292474 -0.619350 -0.006653
C -1.225004 -0.601027 0.018728
H 0.050286 0.900514 0.895701
H 0.023186 0.912469 -0.865258
H 1.323880 -1.266002 0.875070
H 1.309459 -1.249329 -0.900636
H -1.307058 -1.242451 0.897645
H -1.326711 -1.211490 -0.880916
H 3.701943 -0.521233 -0.013656
H -2.660839 1.095296 1.172264
$end
$scan
stre 2 5 2.100000 2.101000 0.100000
$end
--------------------------------------------------------------

    9    -915.5175745269      6.31e-07  Convergence criterion met
 Total energy in the final basis set =     -915.5175745269
    9    -915.5099289330      6.91e-07  Convergence criterion met
 Total energy in the final basis set =     -915.5099289330
    9    -915.5099493125      6.91e-07  Convergence criterion met
 Total energy in the final basis set =     -915.5099493125
    9    -915.5100080928      6.92e-07  Convergence criterion met
 Total energy in the final basis set =     -915.5100080928

             Standard Nuclear Orientation (Angstroms)
    I     Atom           X                Y                Z
 ----------------------------------------------------------------
    1      S       2.7922063628     0.4748401182    -0.0066438557
    2      S      -2.9474697122     0.5460235204    -0.0119941817
    3      C       0.0386952590     0.2443875046     0.0095182890
    4      C       1.3053966519    -0.6239604761    -0.0086866701
    5      C      -1.2037702838    -0.6238920850     0.0164582350
    6      H       0.0531062880     0.8873104049     0.8963509905
    7      H       0.0260212656     0.9012271573    -0.8655877412
    8      H       1.3403687434    -1.2720619001     0.8717512712
    9      H       1.3263895086    -1.2516328732    -0.9041001149
   10      H      -1.3151932833    -1.2489750929     0.9021315483
   11      H      -1.3316386284    -1.2206524714    -0.8871363748
   12      H       3.7133773794    -0.5091091544    -0.0134211521
   13      H      -2.6892905510     1.1200933479     1.1802587566
 ----------------------------------------------------------------

    9    -915.5100099880      6.92e-07  Convergence criterion met
 Total energy in the final basis set =     -915.5100099880

                    Orbital Energies (a.u.)
 --------------------------------------------------------------

 Alpha MOs
 -- Occupied --
-88.881 -88.877 -10.243 -10.232 -10.210  -7.943  -7.937  -5.908
 -5.905  -5.902  -5.899  -5.898  -5.892  -0.826  -0.762  -0.704
 -0.643  -0.603  -0.495  -0.457  -0.433  -0.415  -0.387  -0.379
 -0.361  -0.335  -0.310  -0.243  -0.240

 Beta MOs
 -- Occupied --
-88.881 -88.877 -10.243 -10.232 -10.210  -7.943  -7.937  -5.908
 -5.905  -5.902  -5.899  -5.898  -5.892  -0.826  -0.762  -0.704
 -0.643  -0.603  -0.495  -0.457  -0.433  -0.415  -0.387  -0.379
 -0.361  -0.335  -0.310  -0.243  -0.240

          Ground-State Mulliken Net Atomic Charges

     Atom                 Charge (a.u.)    Spin (a.u.)
  --------------------------------------------------------
      1 S                    -0.038848       0.000000
      2 S                    -0.116047      -0.000000
      3 C                    -0.172076      -0.000000
      4 C                    -0.332074       0.000000
      5 C                    -0.301272       0.000000
      6 H                     0.125499       0.000000
      7 H                     0.142353       0.000000
      8 H                     0.137345      -0.000000
      9 H                     0.139321      -0.000000
     10 H                     0.147572      -0.000000
     11 H                     0.147687      -0.000000
     12 H                     0.058740      -0.000000
     13 H                     0.061800       0.000000
  --------------------------------------------------------
  Sum of atomic charges =    -0.000000

                    Cartesian Multipole Moments
 -----------------------------------------------------------------
    Charge (ESU x 10^10)
                 0.0000
    Dipole Moment (Debye)
         X       1.1985      Y      -2.0902      Z       0.7576
       Tot       2.5258
    Quadrupole Moments (Debye-Ang)
        XX     -54.9467     XY      -3.9429     YY     -46.4845
        XZ      -2.0115     YZ       1.8871     ZZ     -46.6938

 Final energy is   -915.510009988005
 **  OPTIMIZATION CONVERGED  **
 Total job time:  19.53s(wall), 221.72s(cpu)
        *  Thank you very much for using Q-Chem.  Have a nice day.  *
