 Q-Chem 5.1, Q-Chem, Inc., Pleasanton, CA (2018)
 Q-Chem 5.1.1 for Intel X86 EM64T Linux

User input:
--------------------------------------------------------------

$comment
potential surface scanner
$end

$rem
JOBTYPE  PES_SCAN
UNRESTRICTED TRUE
SYM_IGNORE  TRUE
GEOM_OPT_MAX_CYCLES 400
SCF_MAX_CYCLES 400
METHOD   B3LYP
BASIS   6-31G**
PDB_PRINT 2
SCF_CONVERGENCE 6
THRESH 14
SCF_PRINT 1
$end
$molecule
0 1
S 2.782878 0.461759 -0.009251
S -2.838428 0.457918 -0.020532
C 0.026475 0.266350 0.011204
C 1.280162 -0.615040 -0.004430
C -1.246009 -0.577653 0.021816
H 0.048249 0.913478 0.895910
H 0.020906 0.923704 -0.864347
H 1.308313 -1.260094 0.878636
H 1.292434 -1.247376 -0.896930
H -1.297609 -1.235628 0.892928
H -1.321559 -1.200417 -0.874098
H 3.690920 -0.534245 -0.015555
H -2.638532 1.070842 1.163549
$end
$scan
stre 2 5 2.000000 2.001000 0.100000
$end
--------------------------------------------------------------

    9    -915.5224934659      4.89e-07  Convergence criterion met
 Total energy in the final basis set =     -915.5224934659
    9    -915.5174045775      6.30e-07  Convergence criterion met
 Total energy in the final basis set =     -915.5174045775
    9    -915.5175187284      6.30e-07  Convergence criterion met
 Total energy in the final basis set =     -915.5175187284
    9    -915.5175727264      6.31e-07  Convergence criterion met
 Total energy in the final basis set =     -915.5175727264

             Standard Nuclear Orientation (Angstroms)
    I     Atom           X                Y                Z
 ----------------------------------------------------------------
    1      S       2.7871740572     0.4686326931    -0.0075087619
    2      S      -2.8928178347     0.5022386049    -0.0159270463
    3      C       0.0322274308     0.2553287465     0.0100462117
    4      C       1.2924739803    -0.6193502794    -0.0066526223
    5      C      -1.2250035176    -0.6010266546     0.0187280164
    6      H       0.0502855431     0.9005142744     0.8957014630
    7      H       0.0231861734     0.9124689696    -0.8652575991
    8      H       1.3238797908    -1.2660016240     0.8750695391
    9      H       1.3094588626    -1.2493290695    -0.9006361171
   10      H      -1.3070582674    -1.2424507402     0.8976454209
   11      H      -1.3267107794    -1.2114899746    -0.8809162224
   12      H       3.7019433936    -0.5212332610    -0.0136558719
   13      H      -2.6608388328     1.0952963148     1.1722635898
 ----------------------------------------------------------------

    9    -915.5175745360      6.31e-07  Convergence criterion met
 Total energy in the final basis set =     -915.5175745360

                    Orbital Energies (a.u.)
 --------------------------------------------------------------

 Alpha MOs
 -- Occupied --
-88.880 -88.878 -10.238 -10.231 -10.208  -7.942  -7.939  -5.907
 -5.904  -5.903  -5.901  -5.896  -5.893  -0.826  -0.766  -0.707
 -0.640  -0.602  -0.494  -0.456  -0.434  -0.416  -0.387  -0.379
 -0.358  -0.334  -0.317  -0.242  -0.241

 Beta MOs
 -- Occupied --
-88.880 -88.878 -10.238 -10.231 -10.208  -7.942  -7.939  -5.907
 -5.904  -5.903  -5.901  -5.896  -5.893  -0.826  -0.766  -0.707
 -0.640  -0.602  -0.494  -0.456  -0.434  -0.416  -0.387  -0.379
 -0.358  -0.334  -0.317  -0.242  -0.241

          Ground-State Mulliken Net Atomic Charges

     Atom                 Charge (a.u.)    Spin (a.u.)
  --------------------------------------------------------
      1 S                    -0.040616      -0.000000
      2 S                    -0.082973       0.000000
      3 C                    -0.171516       0.000000
      4 C                    -0.331030      -0.000000
      5 C                    -0.321376      -0.000000
      6 H                     0.122704      -0.000000
      7 H                     0.139759       0.000000
      8 H                     0.136549       0.000000
      9 H                     0.138431       0.000000
     10 H                     0.144545      -0.000000
     11 H                     0.145237       0.000000
     12 H                     0.058180       0.000000
     13 H                     0.062106      -0.000000
  --------------------------------------------------------
  Sum of atomic charges =    -0.000000

                    Cartesian Multipole Moments
 -----------------------------------------------------------------
    Charge (ESU x 10^10)
                 0.0000
    Dipole Moment (Debye)
         X       0.9697      Y      -1.9922      Z       0.7640
       Tot       2.3437
    Quadrupole Moments (Debye-Ang)
        XX     -54.3773     XY      -4.1805     YY     -46.4553
        XZ      -2.0405     YZ       1.8706     ZZ     -46.7239

 Final energy is   -915.517574535961
 **  OPTIMIZATION CONVERGED  **
 Total job time:  20.14s(wall), 225.51s(cpu)
        *  Thank you very much for using Q-Chem.  Have a nice day.  *
