 Q-Chem 5.1, Q-Chem, Inc., Pleasanton, CA (2018)
 Q-Chem 5.1.1 for Intel X86 EM64T Linux

User input:
--------------------------------------------------------------

$comment
potential surface scanner
$end

$rem
JOBTYPE  PES_SCAN
UNRESTRICTED TRUE
SYM_IGNORE  TRUE
GEOM_OPT_MAX_CYCLES 400
SCF_MAX_CYCLES 400
METHOD   B3LYP
BASIS   6-31G**
PDB_PRINT 2
SCF_CONVERGENCE 6
THRESH 14
SCF_PRINT 1
$end
$molecule
0 1
S 2.828411 0.496204 -0.008456
S -3.220999 0.774178 -0.033678
C 0.083022 0.186809 0.025008
C 1.379925 -0.652884 -0.022773
C -1.098961 -0.726927 0.026658
H 0.090269 0.809239 0.924571
H 0.046976 0.850378 -0.843089
H 1.440041 -1.317821 0.843056
H 1.408700 -1.257739 -0.932896
H -1.351670 -1.257236 0.939501
H -1.338410 -1.260797 -0.887653
H 3.779222 -0.458148 -0.053019
H -2.938333 1.238344 1.201667
$end
$scan
stre 2 5 2.700000 2.701000 0.100000
$end
--------------------------------------------------------------

    9    -915.4631468691      9.69e-07  Convergence criterion met
 Total energy in the final basis set =     -915.4631468691
    9    -915.4545109094      9.99e-07  Convergence criterion met
 Total energy in the final basis set =     -915.4545109094
    9    -915.4543991191      1.00e-06  Convergence criterion met
 Total energy in the final basis set =     -915.4543991191
   10    -915.4544194893      2.09e-07  Convergence criterion met
 Total energy in the final basis set =     -915.4544194893

             Standard Nuclear Orientation (Angstroms)
    I     Atom           X                Y                Z
 ----------------------------------------------------------------
    1      S       2.8353255601     0.4999788361    -0.0093003207
    2      S      -3.2812351716     0.8149164022    -0.0311161460
    3      C       0.0918938682     0.1749370962     0.0269065262
    4      C       1.3946542269    -0.6588905978    -0.0248203676
    5      C      -1.0794285265    -0.7466893758     0.0274675550
    6      H       0.0974781621     0.7942586343     0.9284455302
    7      H       0.0520909286     0.8391682470    -0.8404992336
    8      H       1.4591828973    -1.3254265537     0.8393282952
    9      H       1.4252319236    -1.2609360105    -0.9366305726
   10      H      -1.3509611449    -1.2644419341     0.9417333397
   11      H      -1.3389095075    -1.2647666759    -0.8899387527
   12      H       3.7915349151    -0.4487203882    -0.0581490485
   13      H      -2.9886651314     1.2702123203     1.2054701954
 ----------------------------------------------------------------

   10    -915.4544203417      2.10e-07  Convergence criterion met
 Total energy in the final basis set =     -915.4544203417

                    Orbital Energies (a.u.)
 --------------------------------------------------------------

 Alpha MOs
 -- Occupied --
-88.890 -88.863 -10.270 -10.245 -10.224  -7.952  -7.921  -5.917
 -5.913  -5.906  -5.886  -5.884  -5.876  -0.837  -0.763  -0.680
 -0.660  -0.614  -0.509  -0.470  -0.444  -0.422  -0.396  -0.376
 -0.365  -0.345  -0.261  -0.251  -0.225

 Beta MOs
 -- Occupied --
-88.890 -88.863 -10.270 -10.245 -10.224  -7.952  -7.921  -5.917
 -5.913  -5.906  -5.886  -5.884  -5.876  -0.837  -0.763  -0.680
 -0.660  -0.614  -0.509  -0.470  -0.444  -0.422  -0.396  -0.376
 -0.365  -0.345  -0.261  -0.251  -0.225

          Ground-State Mulliken Net Atomic Charges

     Atom                 Charge (a.u.)    Spin (a.u.)
  --------------------------------------------------------
      1 S                    -0.026184      -0.000000
      2 S                    -0.292294       0.000000
      3 C                    -0.196737      -0.000000
      4 C                    -0.339681       0.000000
      5 C                    -0.175633      -0.000000
      6 H                     0.143556       0.000000
      7 H                     0.159946       0.000000
      8 H                     0.143386      -0.000000
      9 H                     0.145519      -0.000000
     10 H                     0.160855       0.000000
     11 H                     0.162411       0.000000
     12 H                     0.062356       0.000000
     13 H                     0.052500      -0.000000
  --------------------------------------------------------
  Sum of atomic charges =     0.000000

                    Cartesian Multipole Moments
 -----------------------------------------------------------------
    Charge (ESU x 10^10)
                 0.0000
    Dipole Moment (Debye)
         X       2.8806      Y      -2.9166      Z       0.7830
       Tot       4.1735
    Quadrupole Moments (Debye-Ang)
        XX     -59.5813     XY      -1.8064     YY     -46.7974
        XZ      -2.4525     YZ       1.9634     ZZ     -46.3865

 Final energy is   -915.454420341673
 **  OPTIMIZATION CONVERGED  **
 Total job time:  19.89s(wall), 225.32s(cpu)
        *  Thank you very much for using Q-Chem.  Have a nice day.  *
