 Q-Chem 5.1, Q-Chem, Inc., Pleasanton, CA (2018)
 Q-Chem 5.1.1 for Intel X86 EM64T Linux

User input:
--------------------------------------------------------------

$comment
potential surface scanner
$end

$rem
JOBTYPE  PES_SCAN
UNRESTRICTED TRUE
SYM_IGNORE  TRUE
GEOM_OPT_MAX_CYCLES 400
SCF_MAX_CYCLES 400
METHOD   B3LYP
BASIS   6-31G**
PDB_PRINT 2
SCF_CONVERGENCE 6
THRESH 14
SCF_PRINT 1
$end
$molecule
0 3
S 2.841335 0.480173 -0.017277
S -3.552818 1.378199 0.440878
C 0.091100 0.185877 0.131514
C 1.378037 -0.652491 -0.023640
C -1.127179 -0.684534 0.122430
H 0.148486 0.751615 1.068502
H 0.044915 0.915324 -0.685485
H 1.468572 -1.363487 0.801558
H 1.356759 -1.207537 -0.964939
H -1.370613 -1.264320 1.010468
H -1.469234 -1.106377 -0.820443
H 3.778213 -0.474809 -0.178541
H -2.479372 0.465971 0.293872
$end
$scan
stre 2 5 3.100000 3.101000 0.100000
$end
--------------------------------------------------------------

   13    -915.4112051181      9.13e-07  Convergence criterion met
 Total energy in the final basis set =     -915.4112051181
   13    -915.4098889259      3.35e-07  Convergence criterion met
 Total energy in the final basis set =     -915.4098889259
   13    -915.4105113113      3.22e-07  Convergence criterion met
 Total energy in the final basis set =     -915.4105113113
   11    -915.4112643743      3.63e-07  Convergence criterion met
 Total energy in the final basis set =     -915.4112643743
   10    -915.4116347700      8.30e-07  Convergence criterion met
 Total energy in the final basis set =     -915.4116347700
   10    -915.4129118421      8.15e-07  Convergence criterion met
 Total energy in the final basis set =     -915.4129118421
   10    -915.4171574942      9.09e-07  Convergence criterion met
 Total energy in the final basis set =     -915.4171574942
   10    -915.4252176496      6.34e-07  Convergence criterion met
   10    -915.4425562390      9.12e-07  Convergence criterion met
 Total energy in the final basis set =     -915.4425562390
   10    -915.4425595478      9.11e-07  Convergence criterion met
 Total energy in the final basis set =     -915.4425595478
   10    -915.4425628224      9.14e-07  Convergence criterion met
 Total energy in the final basis set =     -915.4425628224
   10    -915.4425654329      9.16e-07  Convergence criterion met
 Total energy in the final basis set =     -915.4425654329
   10    -915.4425673055      9.17e-07  Convergence criterion met
 Total energy in the final basis set =     -915.4425673055
   10    -915.4425685259      9.15e-07  Convergence criterion met
 Total energy in the final basis set =     -915.4425685259

             Standard Nuclear Orientation (Angstroms)
    I     Atom           X                Y                Z
 ----------------------------------------------------------------
    1      S       2.9831636679     0.0130130468     0.0496761827
    2      S      -4.2524545047    -0.5149932905     0.1645745430
    3      C       0.2629117507     0.4671655369     0.2649596626
    4      C       1.2586774507    -0.6433620026    -0.0714349781
    5      C      -1.1928371533    -0.0164478407     0.1785167037
    6      H       0.4654828456     0.8445939453     1.2739495668
    7      H       0.4137055713     1.3086973028    -0.4211908940
    8      H       1.1463034174    -1.4805309412     0.6237643855
    9      H       1.0894911454    -1.0108170361    -1.0876649077
   10      H      -1.3792460160    -0.8309666570     0.8867485565
   11      H      -1.4271636926    -0.3860253034    -0.8256785648
   12      H       3.6158733951    -1.1334513566    -0.2679745024
   13      H      -1.8757068774     0.8067285962     0.4106512461
 ----------------------------------------------------------------

   10    -915.4425692700      9.13e-07  Convergence criterion met
 Total energy in the final basis set =     -915.4425692700

                    Orbital Energies (a.u.)
 --------------------------------------------------------------

 Alpha MOs
 -- Occupied --
-88.930 -88.873 -10.221 -10.198 -10.190  -7.989  -7.935  -5.959
 -5.958  -5.939  -5.900  -5.896  -5.889  -0.812  -0.744  -0.720
 -0.656  -0.593  -0.478  -0.446  -0.434  -0.407  -0.371  -0.355
 -0.347  -0.328  -0.327  -0.315  -0.282  -0.236

 Beta MOs
 -- Occupied --
-88.919 -88.873 -10.221 -10.198 -10.189  -7.978  -7.935  -5.937
 -5.937  -5.933  -5.900  -5.896  -5.889  -0.812  -0.743  -0.657
 -0.627  -0.591  -0.478  -0.444  -0.433  -0.407  -0.367  -0.351
 -0.346  -0.325  -0.255  -0.236

          Ground-State Mulliken Net Atomic Charges

     Atom                 Charge (a.u.)    Spin (a.u.)
  --------------------------------------------------------
      1 S                    -0.051404       0.001212
      2 S                    -0.020011       1.971471
      3 C                    -0.191555       0.014976
      4 C                    -0.317883       0.000538
      5 C                    -0.339563       0.014532
      6 H                     0.119237      -0.000030
      7 H                     0.119062      -0.000066
      8 H                     0.134205       0.000034
      9 H                     0.134273       0.000036
     10 H                     0.117848      -0.000909
     11 H                     0.116457      -0.000883
     12 H                     0.055607       0.000411
     13 H                     0.123726      -0.001322
  --------------------------------------------------------
  Sum of atomic charges =     0.000000

                    Cartesian Multipole Moments
 -----------------------------------------------------------------
    Charge (ESU x 10^10)
                 0.0000
    Dipole Moment (Debye)
         X      -0.8479      Y      -1.1381      Z      -0.2706
       Tot       1.4448
    Quadrupole Moments (Debye-Ang)
        XX     -51.7111     XY      -3.8447     YY     -47.1463
        XZ      -1.0187     YZ       0.1436     ZZ     -47.0915

 Final energy is   -915.442569269981
 **  OPTIMIZATION CONVERGED  **
 Total job time:  407.10s(wall), 4643.86s(cpu)
        *  Thank you very much for using Q-Chem.  Have a nice day.  *
