 Q-Chem 5.1, Q-Chem, Inc., Pleasanton, CA (2018)
 Q-Chem 5.1.1 for Intel X86 EM64T Linux

User input:
--------------------------------------------------------------

$comment
potential surface scanner
$end

$rem
JOBTYPE  PES_SCAN
UNRESTRICTED TRUE
SYM_IGNORE  TRUE
GEOM_OPT_MAX_CYCLES 400
SCF_MAX_CYCLES 400
METHOD   B3LYP
BASIS   6-31G**
PDB_PRINT 2
SCF_CONVERGENCE 6
THRESH 14
SCF_PRINT 1
$end
$molecule
0 3
S 2.942500 0.470711 -0.030309
S -4.157120 1.639574 0.367054
C 0.199759 0.096083 0.157752
C 1.509077 -0.700182 -0.043871
C -0.994287 -0.799265 0.146718
H 0.263942 0.637692 1.109075
H 0.124749 0.846606 -0.638653
H 1.632221 -1.431551 0.758683
H 1.484746 -1.228510 -1.000224
H -1.302173 -1.320647 1.048055
H -1.416244 -1.142335 -0.793349
H 3.902859 -0.453227 -0.229905
H -3.081828 0.808658 0.327867
$end
$scan
stre 2 5 3.900000 3.901000 0.100000
$end
--------------------------------------------------------------

   13    -915.4112598052      2.53e-07  Convergence criterion met
 Total energy in the final basis set =     -915.4112598052
   13    -915.4091199805      2.47e-07  Convergence criterion met
 Total energy in the final basis set =     -915.4091199805
   13    -915.4109095666      2.46e-07  Convergence criterion met
 Total energy in the final basis set =     -915.4109095666
   13    -915.4114529981      2.60e-07  Convergence criterion met
 Total energy in the final basis set =     -915.4114529981
   13    -915.4114710000      2.65e-07  Convergence criterion met
 Total energy in the final basis set =     -915.4114710000

             Standard Nuclear Orientation (Angstroms)
    I     Atom           X                Y                Z
 ----------------------------------------------------------------
    1      S       2.9260685072     0.4773519507    -0.0289864492
    2      S      -4.0688425057     1.6161984762     0.3634008984
    3      C       0.1835029753     0.1025501054     0.1578512731
    4      C       1.4929606282    -0.6938139830    -0.0425422887
    5      C      -1.0100956309    -0.7936149872     0.1469135255
    6      H       0.2468649386     0.6449318681     1.1087400041
    7      H       0.1084356330     0.8522937961    -0.6392210153
    8      H       1.6157991650    -1.4246402501     0.7605625482
    9      H       1.4691916697    -1.2227514327    -0.9985790267
   10      H      -1.3136938313    -1.3190991204     1.0474564185
   11      H      -1.4272028197    -1.1419157493    -0.7935118887
   12      H       3.8865990212    -0.4467116902    -0.2271717856
   13      H      -3.0013867507     0.7728280164     0.3239807865
 ----------------------------------------------------------------

   13    -915.4114715818      2.65e-07  Convergence criterion met
 Total energy in the final basis set =     -915.4114715818

                    Orbital Energies (a.u.)
 --------------------------------------------------------------

 Alpha MOs
 -- Occupied --
-88.903 -88.878 -10.230 -10.215 -10.209  -7.965  -7.940  -5.936
 -5.926  -5.917  -5.905  -5.902  -5.894  -0.821  -0.748  -0.730
 -0.655  -0.598  -0.491  -0.455  -0.427  -0.415  -0.401  -0.381
 -0.359  -0.332  -0.315  -0.267  -0.241  -0.227

 Beta MOs
 -- Occupied --
-88.898 -88.877 -10.229 -10.209 -10.201  -7.959  -7.940  -5.922
 -5.918  -5.914  -5.905  -5.901  -5.894  -0.814  -0.737  -0.689
 -0.639  -0.589  -0.487  -0.451  -0.422  -0.402  -0.389  -0.374
 -0.357  -0.331  -0.252  -0.240

          Ground-State Mulliken Net Atomic Charges

     Atom                 Charge (a.u.)    Spin (a.u.)
  --------------------------------------------------------
      1 S                    -0.048174       0.020612
      2 S                    -0.084970       1.052618
      3 C                    -0.201597      -0.070907
      4 C                    -0.317441       0.047377
      5 C                    -0.239057       1.036853
      6 H                     0.128775       0.011027
      7 H                     0.129715       0.013495
      8 H                     0.138750      -0.000638
      9 H                     0.138526      -0.000815
     10 H                     0.120187      -0.044083
     11 H                     0.119832      -0.043969
     12 H                     0.058237       0.000271
     13 H                     0.057215      -0.021841
  --------------------------------------------------------
  Sum of atomic charges =     0.000000

                    Cartesian Multipole Moments
 -----------------------------------------------------------------
    Charge (ESU x 10^10)
                 0.0000
    Dipole Moment (Debye)
         X       0.8081      Y      -2.5452      Z      -0.2108
       Tot       2.6787
    Quadrupole Moments (Debye-Ang)
        XX     -55.9741     XY      -1.2242     YY     -49.8142
        XZ      -0.1202     YZ      -0.2484     ZZ     -46.6955

 Final energy is   -915.411471581761
 **  OPTIMIZATION CONVERGED  **
 Total job time:  27.90s(wall), 318.86s(cpu)
        *  Thank you very much for using Q-Chem.  Have a nice day.  *
