 Q-Chem 5.1, Q-Chem, Inc., Pleasanton, CA (2018)
 Q-Chem 5.1.1 for Intel X86 EM64T Linux

User input:
--------------------------------------------------------------

$comment
potential surface scanner
$end

$rem
JOBTYPE  PES_SCAN
UNRESTRICTED TRUE
SYM_IGNORE  TRUE
GEOM_OPT_MAX_CYCLES 400
SCF_MAX_CYCLES 400
METHOD   B3LYP
BASIS   6-31G**
PDB_PRINT 2
SCF_CONVERGENCE 6
THRESH 14
SCF_PRINT 1
$end
$molecule
0 1
S 2.803460 0.486550 -0.006459
S -3.056519 0.635222 -0.008142
C 0.053499 0.220815 0.010627
C 1.333508 -0.634736 -0.012909
C -1.161964 -0.668678 0.014332
H 0.061560 0.857881 0.900820
H 0.032926 0.877763 -0.863585
H 1.377057 -1.286222 0.864426
H 1.361253 -1.256886 -0.911760
H -1.331593 -1.258704 0.911946
H -1.340929 -1.235857 -0.896491
H 3.738502 -0.484258 -0.018246
H -2.762563 1.170710 1.194339
$end
$scan
stre 2 5 2.400000 2.401000 0.100000
$end
--------------------------------------------------------------

    9    -915.4914752362      8.06e-07  Convergence criterion met
 Total energy in the final basis set =     -915.4914752362
    9    -915.4818474406      8.60e-07  Convergence criterion met
 Total energy in the final basis set =     -915.4818474406
    9    -915.4817133956      8.61e-07  Convergence criterion met
 Total energy in the final basis set =     -915.4817133956
    9    -915.4817981446      8.61e-07  Convergence criterion met
 Total energy in the final basis set =     -915.4817981446
    9    -915.4818001104      8.61e-07  Convergence criterion met
 Total energy in the final basis set =     -915.4818001104

             Standard Nuclear Orientation (Angstroms)
    I     Atom           X                Y                Z
 ----------------------------------------------------------------
    1      S       2.8097393463     0.4917316887    -0.0068146646
    2      S      -3.1115540224     0.6797953172    -0.0087539868
    3      C       0.0617690178     0.2087770089     0.0126638729
    4      C       1.3482256260    -0.6405392779    -0.0152025052
    5      C      -1.1411549438    -0.6902301866     0.0148498899
    6      H       0.0673826159     0.8422057336     0.9050974516
    7      H       0.0369094625     0.8665659806    -0.8605532047
    8      H       1.3966665245    -1.2944147196     0.8599695223
    9      H       1.3783731841    -1.2590996855    -0.9163252345
   10      H      -1.3386796169    -1.2625145827     0.9172177750
   11      H      -1.3437516203    -1.2428154323    -0.8988255931
   12      H       3.7512228896    -0.4727744033    -0.0238926707
   13      H      -2.8069514634     1.1969125589     1.1994673478
 ----------------------------------------------------------------

    9    -915.4818007796      8.62e-07  Convergence criterion met
 Total energy in the final basis set =     -915.4818007796

                    Orbital Energies (a.u.)
 --------------------------------------------------------------

 Alpha MOs
 -- Occupied --
-88.885 -88.871 -10.258 -10.239 -10.217  -7.947  -7.930  -5.912
 -5.909  -5.902  -5.894  -5.892  -5.884  -0.831  -0.759  -0.692
 -0.653  -0.608  -0.502  -0.463  -0.437  -0.417  -0.391  -0.375
 -0.368  -0.340  -0.284  -0.247  -0.233

 Beta MOs
 -- Occupied --
-88.885 -88.871 -10.258 -10.239 -10.217  -7.947  -7.930  -5.912
 -5.909  -5.902  -5.894  -5.892  -5.884  -0.831  -0.759  -0.692
 -0.653  -0.608  -0.502  -0.463  -0.437  -0.417  -0.391  -0.375
 -0.368  -0.340  -0.284  -0.247  -0.233

          Ground-State Mulliken Net Atomic Charges

     Atom                 Charge (a.u.)    Spin (a.u.)
  --------------------------------------------------------
      1 S                    -0.032502      -0.000000
      2 S                    -0.216493      -0.000000
      3 C                    -0.182151       0.000000
      4 C                    -0.336021      -0.000000
      5 C                    -0.230846      -0.000000
      6 H                     0.134934       0.000000
      7 H                     0.151069      -0.000000
      8 H                     0.140282       0.000000
      9 H                     0.142345       0.000000
     10 H                     0.155409       0.000000
     11 H                     0.155658      -0.000000
     12 H                     0.060581       0.000000
     13 H                     0.057736      -0.000000
  --------------------------------------------------------
  Sum of atomic charges =    -0.000000

                    Cartesian Multipole Moments
 -----------------------------------------------------------------
    Charge (ESU x 10^10)
                -0.0000
    Dipole Moment (Debye)
         X       2.0264      Y      -2.4797      Z       0.7491
       Tot       3.2888
    Quadrupole Moments (Debye-Ang)
        XX     -57.1228     XY      -2.9577     YY     -46.5961
        XZ      -2.0516     YZ       1.9252     ZZ     -46.5591

 Final energy is   -915.481800779585
 **  OPTIMIZATION CONVERGED  **
 Total job time:  23.17s(wall), 264.18s(cpu)
        *  Thank you very much for using Q-Chem.  Have a nice day.  *
