 Q-Chem 5.1, Q-Chem, Inc., Pleasanton, CA (2018)
 Q-Chem 5.1.1 for Intel X86 EM64T Linux

User input:
--------------------------------------------------------------

$comment
potential surface scanner
$end

$rem
JOBTYPE  PES_SCAN
UNRESTRICTED TRUE
SYM_IGNORE  TRUE
GEOM_OPT_MAX_CYCLES 400
SCF_MAX_CYCLES 400
METHOD   B3LYP
BASIS   6-31G**
PDB_PRINT 2
SCF_CONVERGENCE 6
THRESH 14
SCF_PRINT 1
$end
$molecule
0 3
S 2.895630 0.488432 -0.024886
S -3.896705 1.562781 0.373049
C 0.152637 0.117061 0.152484
C 1.461904 -0.681741 -0.038754
C -1.041486 -0.778970 0.140815
H 0.211903 0.664252 1.100717
H 0.080849 0.862615 -0.648767
H 1.580896 -1.408908 0.768264
H 1.441530 -1.215127 -0.992406
H -1.346195 -1.302414 1.042381
H -1.444981 -1.142221 -0.800096
H 3.855941 -0.437445 -0.215484
H -2.843723 0.695293 0.321579
$end
$scan
stre 2 5 3.600000 3.601000 0.100000
$end
--------------------------------------------------------------

   13    -915.4117994734      3.02e-07  Convergence criterion met
 Total energy in the final basis set =     -915.4117994734
   13    -915.4101639238      2.68e-07  Convergence criterion met
 Total energy in the final basis set =     -915.4101639238
   13    -915.4114398614      2.89e-07  Convergence criterion met
 Total energy in the final basis set =     -915.4114398614
   13    -915.4118541157      3.17e-07  Convergence criterion met
 Total energy in the final basis set =     -915.4118541157
   13    -915.4118680094      3.22e-07  Convergence criterion met
 Total energy in the final basis set =     -915.4118680094

             Standard Nuclear Orientation (Angstroms)
    I     Atom           X                Y                Z
 ----------------------------------------------------------------
    1      S       2.8825552854     0.4913332359    -0.0224121491
    2      S      -3.8168783036     1.5310450072     0.3832170231
    3      C       0.1387555602     0.1264326716     0.1484377099
    4      C       1.4465998553    -0.6759939860    -0.0365001272
    5      C      -1.0572587833    -0.7675286573     0.1361152452
    6      H       0.1960527774     0.6767897693     1.0948490473
    7      H       0.0705487563     0.8692990764    -0.6556126363
    8      H       1.5618924766    -1.4008344051     0.7731578470
    9      H       1.4277831489    -1.2123825084    -0.9885094982
   10      H      -1.3636647815    -1.2886695624     1.0386033215
   11      H      -1.4505307396    -1.1419538037    -0.8049014544
   12      H       3.8412902884    -0.4371035068    -0.2084056409
   13      H      -2.7689455405     0.6531746693     0.3208573121
 ----------------------------------------------------------------

   13    -915.4118687682      3.23e-07  Convergence criterion met
 Total energy in the final basis set =     -915.4118687682

                    Orbital Energies (a.u.)
 --------------------------------------------------------------

 Alpha MOs
 -- Occupied --
-88.899 -88.879 -10.232 -10.218 -10.210  -7.961  -7.941  -5.932
 -5.922  -5.913  -5.906  -5.903  -5.896  -0.823  -0.751  -0.727
 -0.657  -0.600  -0.493  -0.457  -0.429  -0.420  -0.397  -0.383
 -0.361  -0.334  -0.312  -0.264  -0.242  -0.230

 Beta MOs
 -- Occupied --
-88.894 -88.879 -10.230 -10.211 -10.205  -7.955  -7.941  -5.918
 -5.914  -5.910  -5.906  -5.902  -5.896  -0.816  -0.739  -0.685
 -0.641  -0.592  -0.489  -0.453  -0.424  -0.405  -0.384  -0.376
 -0.359  -0.332  -0.249  -0.241

          Ground-State Mulliken Net Atomic Charges

     Atom                 Charge (a.u.)    Spin (a.u.)
  --------------------------------------------------------
      1 S                    -0.046016       0.020463
      2 S                    -0.085077       1.080882
      3 C                    -0.197655      -0.068881
      4 C                    -0.318790       0.046439
      5 C                    -0.247496       1.010515
      6 H                     0.130885       0.010290
      7 H                     0.131903       0.013634
      8 H                     0.139241      -0.000671
      9 H                     0.138932      -0.000889
     10 H                     0.125870      -0.042068
     11 H                     0.125595      -0.042026
     12 H                     0.058543       0.000358
     13 H                     0.044065      -0.028046
  --------------------------------------------------------
  Sum of atomic charges =    -0.000000

                    Cartesian Multipole Moments
 -----------------------------------------------------------------
    Charge (ESU x 10^10)
                 0.0000
    Dipole Moment (Debye)
         X       0.9630      Y      -2.6736      Z      -0.2391
       Tot       2.8518
    Quadrupole Moments (Debye-Ang)
        XX     -55.9724     XY      -1.0290     YY     -49.7400
        XZ      -0.0293     YZ      -0.3995     ZZ     -46.7199

 Final energy is   -915.411868768202
 **  OPTIMIZATION CONVERGED  **
 Total job time:  28.31s(wall), 324.64s(cpu)
        *  Thank you very much for using Q-Chem.  Have a nice day.  *
