 Q-Chem 5.1, Q-Chem, Inc., Pleasanton, CA (2018)
 Q-Chem 5.1.1 for Intel X86 EM64T Linux

User input:
--------------------------------------------------------------

$comment
potential surface scanner
$end

$rem
JOBTYPE  PES_SCAN
UNRESTRICTED TRUE
SYM_IGNORE  TRUE
GEOM_OPT_MAX_CYCLES 400
SCF_MAX_CYCLES 400
METHOD   B3LYP
BASIS   6-31G**
PDB_PRINT 2
SCF_CONVERGENCE 6
THRESH 14
SCF_PRINT 1
$end
$molecule
0 1
S 2.749000 0.445300 -0.001100
S -2.750400 0.444400 -0.000400
C 0.000900 0.283600 0.001800
C 1.255600 -0.587300 0.000700
C -1.255100 -0.586000 -0.001000
H 0.001400 0.930000 0.889200
H 0.001400 0.933800 -0.882900
H 1.280200 -1.230100 0.886500
H 1.278600 -1.230200 -0.885100
H -1.279500 -1.231800 0.882600
H -1.278100 -1.225300 -0.889300
H 3.631700 -0.564200 -0.001900
H -2.527500 1.041400 1.179800
$end
$scan
stre 2 5 1.300000 1.301000 0.100000
$end
--------------------------------------------------------------

    9    -915.5215846885      2.52e-07  Convergence criterion met
 Total energy in the final basis set =     -915.5215846885
    9    -915.5087000570      3.60e-07  Convergence criterion met
 Total energy in the final basis set =     -915.5087000570
    9    -915.4645237063      3.04e-07  Convergence criterion met
 Total energy in the final basis set =     -915.4645237063
    9    -915.3807690974      3.30e-07  Convergence criterion met
 Total energy in the final basis set =     -915.3807690974
    9    -915.2868161938      3.72e-07  Convergence criterion met
 Total energy in the final basis set =     -915.2868161938
    9    -915.2745577410      3.68e-07  Convergence criterion met
 Total energy in the final basis set =     -915.2745577410
    9    -915.2742995526      3.58e-07  Convergence criterion met
 Total energy in the final basis set =     -915.2742995526
    9    -915.2743971418      3.55e-07  Convergence criterion met
    9    -915.2744365634      3.57e-07  Convergence criterion met
 Total energy in the final basis set =     -915.2744365634
    9    -915.2744408964      3.56e-07  Convergence criterion met
 Total energy in the final basis set =     -915.2744408964
    9    -915.2744452236      3.56e-07  Convergence criterion met
 Total energy in the final basis set =     -915.2744452236
    9    -915.2744492542      3.56e-07  Convergence criterion met
 Total energy in the final basis set =     -915.2744492542
    9    -915.2744516337      3.55e-07  Convergence criterion met
 Total energy in the final basis set =     -915.2744516337
    9    -915.2744526690      3.55e-07  Convergence criterion met
 Total energy in the final basis set =     -915.2744526690

             Standard Nuclear Orientation (Angstroms)
    I     Atom           X                Y                Z
 ----------------------------------------------------------------
    1      S       2.7684124814     0.4149592756     0.0068624805
    2      S      -2.5262812459     0.1793178592     0.0057521367
    3      C       0.0059292007     0.3374812222    -0.0132011655
    4      C       1.2165175457    -0.5886406840    -0.0173359580
    5      C      -1.3881375667    -0.4468202395     0.0565534861
    6      H       0.0406694006     1.0017396498     0.8605007459
    7      H      -0.0070941610     0.9755571156    -0.9047827585
    8      H       1.2036942449    -1.2385841785     0.8628075663
    9      H       1.2163313636    -1.2189195216    -0.9122136158
   10      H      -1.1782668726    -1.2042301275     0.8648900221
   11      H      -1.3089135606    -1.1202963033    -0.8181421197
   12      H       3.6323097409    -0.6191131918     0.0549137997
   13      H      -2.5669705711     0.9511491236     1.1322953801
 ----------------------------------------------------------------

    9    -915.2744531483      3.55e-07  Convergence criterion met
 Total energy in the final basis set =     -915.2744531483

                    Orbital Energies (a.u.)
 --------------------------------------------------------------

 Alpha MOs
 -- Occupied --
-88.876 -88.852 -10.226 -10.207 -10.199  -7.938  -7.938  -5.903
 -5.903  -5.900  -5.896  -5.893  -5.890  -0.930  -0.803  -0.712
 -0.617  -0.606  -0.522  -0.472  -0.464  -0.443  -0.404  -0.381
 -0.364  -0.331  -0.297  -0.239  -0.213

 Beta MOs
 -- Occupied --
-88.876 -88.852 -10.226 -10.207 -10.199  -7.938  -7.938  -5.903
 -5.903  -5.900  -5.896  -5.893  -5.890  -0.930  -0.803  -0.712
 -0.617  -0.606  -0.522  -0.472  -0.464  -0.443  -0.404  -0.381
 -0.364  -0.331  -0.297  -0.239  -0.213

          Ground-State Mulliken Net Atomic Charges

     Atom                 Charge (a.u.)    Spin (a.u.)
  --------------------------------------------------------
      1 S                    -0.043084       0.000000
      2 S                     0.011827      -0.000000
      3 C                    -0.209048       0.000000
      4 C                    -0.331689       0.000000
      5 C                    -0.269206      -0.000000
      6 H                     0.115220      -0.000000
      7 H                     0.125331      -0.000000
      8 H                     0.135687      -0.000000
      9 H                     0.133577      -0.000000
     10 H                     0.093911       0.000000
     11 H                     0.157414      -0.000000
     12 H                     0.054919      -0.000000
     13 H                     0.025142       0.000000
  --------------------------------------------------------
  Sum of atomic charges =     0.000000

                    Cartesian Multipole Moments
 -----------------------------------------------------------------
    Charge (ESU x 10^10)
                 0.0000
    Dipole Moment (Debye)
         X       0.2832      Y      -1.8791      Z       0.4811
       Tot       1.9603
    Quadrupole Moments (Debye-Ang)
        XX     -53.1762     XY      -4.2275     YY     -45.9124
        XZ      -1.5200     YZ       1.6649     ZZ     -46.7572

 Final energy is   -915.274453148284
 **  OPTIMIZATION CONVERGED  **
 Total job time:  74.26s(wall), 857.24s(cpu)
        *  Thank you very much for using Q-Chem.  Have a nice day.  *
