 Q-Chem 5.1, Q-Chem, Inc., Pleasanton, CA (2018)
 Q-Chem 5.1.1 for Intel X86 EM64T Linux

User input:
--------------------------------------------------------------

$comment
potential surface scanner
$end

$rem
JOBTYPE  PES_SCAN
UNRESTRICTED TRUE
SYM_IGNORE  TRUE
GEOM_OPT_MAX_CYCLES 400
SCF_MAX_CYCLES 400
METHOD   B3LYP
BASIS   6-31G**
PDB_PRINT 2
SCF_CONVERGENCE 6
THRESH 14
SCF_PRINT 1
$end
$molecule
0 1
S 3.025974 0.478479 -0.071369
S -4.399853 1.411990 -0.058047
C 0.304365 0.009275 0.112186
C 1.649785 -0.757265 -0.093597
C -0.808906 -0.948243 0.098138
H 0.350734 0.551555 1.060986
H 0.203336 0.731155 -0.707277
H 1.795082 -1.483768 0.708748
H 1.638459 -1.280041 -1.052372
H -1.214652 -1.364490 1.013914
H -1.188423 -1.347803 -0.836638
H 4.023352 -0.416512 -0.212596
H -4.271058 1.839266 1.216820
$end
$scan
stre 2 5 4.400000 4.401000 0.100000
$end
--------------------------------------------------------------

   19    -915.3769588285      5.67e-07  Convergence criterion met
 Total energy in the final basis set =     -915.3769588285
   19    -915.3744591580      2.28e-07  Convergence criterion met
 Total energy in the final basis set =     -915.3744591580
   20    -915.3747052241      2.22e-07  Convergence criterion met
 Total energy in the final basis set =     -915.3747052241
   17    -915.3748393993      4.77e-07  Convergence criterion met
 Total energy in the final basis set =     -915.3748393993
   19    -915.3748505705      3.75e-08  Convergence criterion met
 Total energy in the final basis set =     -915.3748505705
   18    -915.3748716835      8.31e-07  Convergence criterion met
 Total energy in the final basis set =     -915.3748716835
   17    -915.3748767774      3.45e-07  Convergence criterion met
 Total energy in the final basis set =     -915.3748767774
   17    -915.3748800675      1.34e-07  Convergence criterion met
   17    -915.3748843900      1.05e-07  Convergence criterion met
 Total energy in the final basis set =     -915.3748843900
   17    -915.3748855761      1.27e-07  Convergence criterion met
 Total energy in the final basis set =     -915.3748855761
   17    -915.3748873856      1.33e-07  Convergence criterion met
 Total energy in the final basis set =     -915.3748873856
   17    -915.3748899763      1.21e-07  Convergence criterion met
 Total energy in the final basis set =     -915.3748899763
   17    -915.3748924449      6.83e-08  Convergence criterion met
 Total energy in the final basis set =     -915.3748924449
   17    -915.3748937310      8.19e-08  Convergence criterion met
 Total energy in the final basis set =     -915.3748937310

             Standard Nuclear Orientation (Angstroms)
    I     Atom           X                Y                Z
 ----------------------------------------------------------------
    1      S       3.0402451775     0.4740371454    -0.0777795575
    2      S      -4.4749761821     1.4461168698    -0.0620746574
    3      C       0.3204407679    -0.0007428607     0.1219524050
    4      C       1.6656296731    -0.7634192664    -0.1001088684
    5      C      -0.7930949333    -0.9571817060     0.1049680551
    6      H       0.3723790009     0.5335581167     1.0749176496
    7      H       0.2145759880     0.7289099227    -0.6905783196
    8      H       1.8173497317    -1.4958761124     0.6955665099
    9      H       1.6478289306    -1.2785935677    -1.0628731835
   10      H      -1.2064132153    -1.3678207014     1.0198274116
   11      H      -1.1697664607    -1.3562925460    -0.8311852864
   12      H       4.0382015008    -0.4191688349    -0.2259507303
   13      H      -4.3642049791     1.8800715409     1.2122145719
 ----------------------------------------------------------------

   17    -915.3748940992      7.33e-08  Convergence criterion met
 Total energy in the final basis set =     -915.3748940992

                    Orbital Energies (a.u.)
 --------------------------------------------------------------

 Alpha MOs
 -- Occupied --
-88.901 -88.839 -10.281 -10.262 -10.244  -7.963  -7.899  -5.928
 -5.925  -5.917  -5.862  -5.862  -5.853  -0.854  -0.778  -0.681
 -0.652  -0.629  -0.528  -0.488  -0.463  -0.438  -0.410  -0.394
 -0.357  -0.345  -0.262  -0.208  -0.204

 Beta MOs
 -- Occupied --
-88.901 -88.839 -10.281 -10.262 -10.244  -7.963  -7.899  -5.928
 -5.925  -5.917  -5.862  -5.862  -5.853  -0.854  -0.778  -0.681
 -0.652  -0.629  -0.528  -0.488  -0.463  -0.438  -0.410  -0.394
 -0.357  -0.345  -0.262  -0.208  -0.204

          Ground-State Mulliken Net Atomic Charges

     Atom                 Charge (a.u.)    Spin (a.u.)
  --------------------------------------------------------
      1 S                    -0.016292      -0.000000
      2 S                    -0.359076       0.000001
      3 C                    -0.225717       0.000000
      4 C                    -0.335760      -0.000000
      5 C                    -0.150037      -0.000001
      6 H                     0.156535      -0.000000
      7 H                     0.171915      -0.000000
      8 H                     0.152265      -0.000000
      9 H                     0.153443      -0.000000
     10 H                     0.169708       0.000000
     11 H                     0.170539       0.000000
     12 H                     0.067393      -0.000000
     13 H                     0.045083      -0.000000
  --------------------------------------------------------
  Sum of atomic charges =     0.000000

                    Cartesian Multipole Moments
 -----------------------------------------------------------------
    Charge (ESU x 10^10)
                -0.0000
    Dipole Moment (Debye)
         X       5.9384      Y      -4.3120      Z       0.9032
       Tot       7.3941
    Quadrupole Moments (Debye-Ang)
        XX     -74.1657     XY       3.8543     YY     -48.6793
        XZ      -4.5524     YZ       2.5603     ZZ     -46.0096

 Final energy is   -915.374894099232
 **  OPTIMIZATION CONVERGED  **
 Total job time:  93.18s(wall), 1080.13s(cpu)
        *  Thank you very much for using Q-Chem.  Have a nice day.  *
