 Q-Chem 5.1, Q-Chem, Inc., Pleasanton, CA (2018)
 Q-Chem 5.1.1 for Intel X86 EM64T Linux

User input:
--------------------------------------------------------------

$comment
potential surface scanner
$end

$rem
JOBTYPE  PES_SCAN
UNRESTRICTED TRUE
SYM_IGNORE  TRUE
GEOM_OPT_MAX_CYCLES 400
SCF_MAX_CYCLES 400
METHOD   B3LYP
BASIS   6-31G**
PDB_PRINT 2
SCF_CONVERGENCE 6
THRESH 14
SCF_PRINT 1
$end
$molecule
0 3
S 2.940931 -0.017319 0.033311
S -3.766000 -0.607681 0.071902
C 0.231064 0.478076 0.270483
C 1.205815 -0.649579 -0.066910
C -1.244185 0.011254 0.203691
H 0.443256 0.859883 1.275877
H 0.379164 1.313180 -0.423976
H 1.087855 -1.479491 0.636062
H 1.021416 -1.023222 -1.078367
H -1.401050 -0.802816 0.915871
H -1.463118 -0.351088 -0.806196
H 3.552975 -1.171334 -0.297879
H -1.879923 0.863742 0.445025
$end
$scan
stre 2 5 2.500000 2.501000 0.100000
$end
--------------------------------------------------------------

   10    -915.4298401223      5.00e-07  Convergence criterion met
 Total energy in the final basis set =     -915.4298401223
   10    -915.4238266430      4.80e-07  Convergence criterion met
 Total energy in the final basis set =     -915.4238266430
   10    -915.4238221588      4.64e-07  Convergence criterion met
 Total energy in the final basis set =     -915.4238221588
   10    -915.4238603973      4.58e-07  Convergence criterion met
 Total energy in the final basis set =     -915.4238603973
   10    -915.4238784703      4.60e-07  Convergence criterion met
 Total energy in the final basis set =     -915.4238784703
   10    -915.4238831907      4.64e-07  Convergence criterion met
 Total energy in the final basis set =     -915.4238831907
   10    -915.4238854983      4.66e-07  Convergence criterion met
 Total energy in the final basis set =     -915.4238854983
   10    -915.4238887937      4.67e-07  Convergence criterion met
   10    -915.4239367067      3.89e-07  Convergence criterion met
 Total energy in the final basis set =     -915.4239367067
   10    -915.4239421061      3.88e-07  Convergence criterion met
 Total energy in the final basis set =     -915.4239421061
   10    -915.4239506893      3.90e-07  Convergence criterion met
 Total energy in the final basis set =     -915.4239506893
   10    -915.4239595407      3.95e-07  Convergence criterion met
 Total energy in the final basis set =     -915.4239595407
   10    -915.4239644322      3.96e-07  Convergence criterion met
 Total energy in the final basis set =     -915.4239644322
   10    -915.4239657151      3.94e-07  Convergence criterion met
 Total energy in the final basis set =     -915.4239657151

             Standard Nuclear Orientation (Angstroms)
    I     Atom           X                Y                Z
 ----------------------------------------------------------------
    1      S       2.9280311685    -0.0556311695     0.0267938790
    2      S      -3.6010032929    -0.7993424344     0.0434465536
    3      C       0.2303477634     0.4982090196     0.2772201030
    4      C       1.1790605451    -0.6484161779    -0.0685296098
    5      C      -1.2598186255     0.0619055770     0.2080880676
    6      H       0.4496319576     0.8697240447     1.2848710848
    7      H       0.3930966923     1.3338952397    -0.4133254260
    8      H       1.0457118193    -1.4786947224     0.6313143439
    9      H       0.9818290583    -1.0139144309    -1.0805834871
   10      H      -1.4101105367    -0.7478269838     0.9284200168
   11      H      -1.4615715761    -0.2954023886    -0.8061526361
   12      H       3.5122542599    -1.2239203574    -0.3045140487
   13      H      -1.8792592333     0.9230197838     0.4518451590
 ----------------------------------------------------------------

   10    -915.4239659446      3.93e-07  Convergence criterion met
 Total energy in the final basis set =     -915.4239659446

                    Orbital Energies (a.u.)
 --------------------------------------------------------------

 Alpha MOs
 -- Occupied --
-88.907 -88.876 -10.226 -10.206 -10.202  -7.968  -7.939  -5.938
 -5.937  -5.919  -5.904  -5.900  -5.893  -0.820  -0.759  -0.712
 -0.657  -0.599  -0.488  -0.453  -0.447  -0.424  -0.385  -0.364
 -0.361  -0.331  -0.309  -0.275  -0.266  -0.239

 Beta MOs
 -- Occupied --
-88.897 -88.876 -10.226 -10.205 -10.201  -7.958  -7.939  -5.917
 -5.916  -5.913  -5.904  -5.900  -5.893  -0.818  -0.752  -0.673
 -0.619  -0.588  -0.486  -0.450  -0.444  -0.419  -0.374  -0.359
 -0.356  -0.329  -0.240  -0.239

          Ground-State Mulliken Net Atomic Charges

     Atom                 Charge (a.u.)    Spin (a.u.)
  --------------------------------------------------------
      1 S                    -0.047355       0.001844
      2 S                    -0.064873       1.889667
      3 C                    -0.200288       0.057591
      4 C                    -0.319136      -0.002019
      5 C                    -0.392350       0.035905
      6 H                     0.123905       0.001617
      7 H                     0.123846       0.001551
      8 H                     0.136260       0.000464
      9 H                     0.136257       0.000474
     10 H                     0.142809       0.004695
     11 H                     0.142924       0.004789
     12 H                     0.057425       0.001216
     13 H                     0.160577       0.002205
  --------------------------------------------------------
  Sum of atomic charges =     0.000000

                    Cartesian Multipole Moments
 -----------------------------------------------------------------
    Charge (ESU x 10^10)
                -0.0000
    Dipole Moment (Debye)
         X       0.0347      Y      -0.6996      Z      -0.1773
       Tot       0.7226
    Quadrupole Moments (Debye-Ang)
        XX     -56.2227     XY      -5.1243     YY     -46.9002
        XZ      -1.0644     YZ       0.0788     ZZ     -46.9464

 Final energy is   -915.423965944577
 **  OPTIMIZATION CONVERGED  **
 Total job time:  96.90s(wall), 1120.55s(cpu)
        *  Thank you very much for using Q-Chem.  Have a nice day.  *
