 Q-Chem 5.1, Q-Chem, Inc., Pleasanton, CA (2018)
 Q-Chem 5.1.1 for Intel X86 EM64T Linux

User input:
--------------------------------------------------------------

$comment
potential surface scanner
$end

$rem
JOBTYPE  PES_SCAN
UNRESTRICTED TRUE
SYM_IGNORE  TRUE
GEOM_OPT_MAX_CYCLES 400
SCF_MAX_CYCLES 400
METHOD   B3LYP
BASIS   6-31G**
PDB_PRINT 2
SCF_CONVERGENCE 6
THRESH 14
SCF_PRINT 1
$end
$molecule
0 3
S 3.135206 0.450133 -0.058515
S -5.111068 1.794458 -0.019792
C 0.408575 -0.063412 0.093282
C 1.760716 -0.790864 -0.081640
C -0.738227 -1.017647 0.081842
H 0.433925 0.494859 1.037095
H 0.304766 0.671122 -0.715257
H 1.909433 -1.508334 0.729094
H 1.777793 -1.328253 -1.033040
H -1.079748 -1.491392 0.996237
H -1.155951 -1.373119 -0.854535
H 4.143720 -0.425167 -0.239294
H -4.680944 2.011217 1.243419
$end
$scan
stre 2 5 5.100000 5.101000 0.100000
$end
--------------------------------------------------------------

   12    -915.4089154731      8.03e-07  Convergence criterion met
 Total energy in the final basis set =     -915.4089154731
   12    -915.4086511286      8.24e-07  Convergence criterion met
 Total energy in the final basis set =     -915.4086511286
   12    -915.4088315188      8.21e-07  Convergence criterion met
 Total energy in the final basis set =     -915.4088315188
   12    -915.4088981726      8.14e-07  Convergence criterion met
 Total energy in the final basis set =     -915.4088981726
   12    -915.4089012449      8.14e-07  Convergence criterion met
 Total energy in the final basis set =     -915.4089012449
   12    -915.4089073329      8.15e-07  Convergence criterion met
 Total energy in the final basis set =     -915.4089073329
   12    -915.4089084906      8.16e-07  Convergence criterion met
 Total energy in the final basis set =     -915.4089084906
   12    -915.4089113369      8.16e-07  Convergence criterion met
 Total energy in the final basis set =     -915.4089113369
   12    -915.4089133901      8.17e-07  Convergence criterion met
 Total energy in the final basis set =     -915.4089133901
   12    -915.4089155542      8.17e-07  Convergence criterion met
 Total energy in the final basis set =     -915.4089155542
   12    -915.4089169051      8.17e-07  Convergence criterion met
 Total energy in the final basis set =     -915.4089169051

             Standard Nuclear Orientation (Angstroms)
    I     Atom           X                Y                Z
 ----------------------------------------------------------------
    1      S       3.1241678988     0.4549668573    -0.0568302038
    2      S      -5.0307039356     1.7540973299    -0.0295729282
    3      C       0.3976509439    -0.0594901216     0.0950415454
    4      C       1.7499085929    -0.7862214904    -0.0822613786
    5      C      -0.7488681143    -1.0140985315     0.0843395402
    6      H       0.4237559374     0.4975106461     1.0396124692
    7      H       0.2924932835     0.6756502276    -0.7127533012
    8      H       1.8992308376    -1.5056334137     0.7266269908
    9      H       1.7664606265    -1.3211443426    -1.0350475391
   10      H      -1.0856126591    -1.4922567730     0.9982588963
   11      H      -1.1722020216    -1.3642936036    -0.8514856908
   12      H       4.1329467478    -0.4200349525    -0.2375711429
   13      H      -4.6410321378     2.0045491680     1.2405387429
 ----------------------------------------------------------------

   12    -915.4089178436      8.16e-07  Convergence criterion met
 Total energy in the final basis set =     -915.4089178436

                    Orbital Energies (a.u.)
 --------------------------------------------------------------

 Alpha MOs
 -- Occupied --
-88.911 -88.872 -10.223 -10.200 -10.200  -7.973  -7.935  -5.944
 -5.934  -5.925  -5.900  -5.896  -5.889  -0.812  -0.740  -0.739
 -0.646  -0.589  -0.482  -0.447  -0.418  -0.413  -0.402  -0.373
 -0.351  -0.326  -0.321  -0.273  -0.236  -0.213

 Beta MOs
 -- Occupied --
-88.906 -88.872 -10.222 -10.201 -10.186  -7.967  -7.935  -5.931
 -5.926  -5.921  -5.899  -5.896  -5.889  -0.806  -0.729  -0.699
 -0.630  -0.579  -0.478  -0.444  -0.413  -0.400  -0.393  -0.366
 -0.348  -0.325  -0.259  -0.235

          Ground-State Mulliken Net Atomic Charges

     Atom                 Charge (a.u.)    Spin (a.u.)
  --------------------------------------------------------
      1 S                    -0.055900       0.021329
      2 S                    -0.074087       1.027604
      3 C                    -0.200304      -0.074627
      4 C                    -0.313997       0.046562
      5 C                    -0.227175       1.076360
      6 H                     0.121316       0.011376
      7 H                     0.125552       0.015113
      8 H                     0.136593      -0.000392
      9 H                     0.137005      -0.000654
     10 H                     0.109320      -0.047671
     11 H                     0.111313      -0.047555
     12 H                     0.056491      -0.000012
     13 H                     0.073873      -0.027432
  --------------------------------------------------------
  Sum of atomic charges =     0.000000

                    Cartesian Multipole Moments
 -----------------------------------------------------------------
    Charge (ESU x 10^10)
                 0.0000
    Dipole Moment (Debye)
         X      -0.2444      Y      -1.4527      Z       0.8270
       Tot       1.6894
    Quadrupole Moments (Debye-Ang)
        XX     -51.1137     XY      -6.1155     YY     -47.0700
        XZ      -4.7758     YZ       2.8113     ZZ     -46.2183

 Final energy is   -915.408917843564
 **  OPTIMIZATION CONVERGED  **
 Total job time:  54.62s(wall), 573.07s(cpu)
        *  Thank you very much for using Q-Chem.  Have a nice day.  *
