 Q-Chem 5.1, Q-Chem, Inc., Pleasanton, CA (2018)
 Q-Chem 5.1.1 for Intel X86 EM64T Linux

User input:
--------------------------------------------------------------

$comment
potential surface scanner
$end

$rem
JOBTYPE  PES_SCAN
UNRESTRICTED TRUE
SYM_IGNORE  TRUE
GEOM_OPT_MAX_CYCLES 400
SCF_MAX_CYCLES 400
METHOD   B3LYP
BASIS   6-31G**
PDB_PRINT 2
SCF_CONVERGENCE 6
THRESH 14
SCF_PRINT 1
$end
$molecule
0 3
S 3.124168 0.454967 -0.056830
S -5.030704 1.754097 -0.029573
C 0.397651 -0.059490 0.095042
C 1.749909 -0.786221 -0.082261
C -0.748868 -1.014099 0.084340
H 0.423756 0.497511 1.039612
H 0.292493 0.675650 -0.712753
H 1.899231 -1.505633 0.726627
H 1.766461 -1.321144 -1.035048
H -1.085613 -1.492257 0.998259
H -1.172202 -1.364294 -0.851486
H 4.132947 -0.420035 -0.237571
H -4.641032 2.004549 1.240539
$end
$scan
stre 2 5 5.000000 5.001000 0.100000
$end
--------------------------------------------------------------

   12    -915.4089178434      8.16e-07  Convergence criterion met
 Total energy in the final basis set =     -915.4089178434
   12    -915.4084978833      8.53e-07  Convergence criterion met
 Total energy in the final basis set =     -915.4084978833
   12    -915.4087841946      8.44e-07  Convergence criterion met
 Total energy in the final basis set =     -915.4087841946
   12    -915.4088998190      8.31e-07  Convergence criterion met
 Total energy in the final basis set =     -915.4088998190
   12    -915.4089041659      8.31e-07  Convergence criterion met
 Total energy in the final basis set =     -915.4089041659
   12    -915.4089128790      8.32e-07  Convergence criterion met
 Total energy in the final basis set =     -915.4089128790
   12    -915.4089144765      8.32e-07  Convergence criterion met
 Total energy in the final basis set =     -915.4089144765
   12    -915.4089179853      8.33e-07  Convergence criterion met
 Total energy in the final basis set =     -915.4089179853
   12    -915.4089204779      8.34e-07  Convergence criterion met
 Total energy in the final basis set =     -915.4089204779
   12    -915.4089233094      8.34e-07  Convergence criterion met
 Total energy in the final basis set =     -915.4089233094
   12    -915.4089250310      8.33e-07  Convergence criterion met
 Total energy in the final basis set =     -915.4089250310
   12    -915.4089261223      8.33e-07  Convergence criterion met
 Total energy in the final basis set =     -915.4089261223

             Standard Nuclear Orientation (Angstroms)
    I     Atom           X                Y                Z
 ----------------------------------------------------------------
    1      S       3.1188663520     0.4525523410    -0.0552229544
    2      S      -4.9615320804     1.7070399280    -0.0336921634
    3      C       0.3902582453    -0.0510993900     0.0939136853
    4      C       1.7399213934    -0.7833481945    -0.0800207420
    5      C      -0.7601693835    -1.0012370287     0.0837420808
    6      H       0.4176389322     0.5080286151     1.0373098477
    7      H       0.2880530913     0.6828663808    -0.7152617335
    8      H       1.8851027469    -1.5014942781     0.7307533922
    9      H       1.7558304791    -1.3204297026    -1.0315783880
   10      H      -1.0940468336    -1.4828781810     0.9969959621
   11      H      -1.1885807396    -1.3452600286    -0.8520242732
   12      H       4.1240334737    -0.4264159252    -0.2368255728
   13      H      -4.6071786768     1.9852764637     1.2408078594
 ----------------------------------------------------------------

   12    -915.4089267403      8.33e-07  Convergence criterion met
 Total energy in the final basis set =     -915.4089267403

                    Orbital Energies (a.u.)
 --------------------------------------------------------------

 Alpha MOs
 -- Occupied --
-88.911 -88.872 -10.223 -10.200 -10.200  -7.973  -7.935  -5.944
 -5.934  -5.925  -5.900  -5.896  -5.889  -0.812  -0.740  -0.739
 -0.646  -0.589  -0.482  -0.447  -0.418  -0.413  -0.402  -0.373
 -0.351  -0.326  -0.321  -0.273  -0.236  -0.213

 Beta MOs
 -- Occupied --
-88.906 -88.872 -10.222 -10.201 -10.186  -7.967  -7.935  -5.931
 -5.926  -5.921  -5.899  -5.896  -5.889  -0.806  -0.729  -0.699
 -0.630  -0.579  -0.478  -0.444  -0.412  -0.400  -0.393  -0.366
 -0.348  -0.325  -0.259  -0.235

          Ground-State Mulliken Net Atomic Charges

     Atom                 Charge (a.u.)    Spin (a.u.)
  --------------------------------------------------------
      1 S                    -0.055848       0.021319
      2 S                    -0.074160       1.027663
      3 C                    -0.200379      -0.074565
      4 C                    -0.313979       0.046567
      5 C                    -0.227266       1.076298
      6 H                     0.121296       0.011738
      7 H                     0.125558       0.014668
      8 H                     0.136569      -0.000411
      9 H                     0.137033      -0.000635
     10 H                     0.109300      -0.047642
     11 H                     0.111528      -0.047559
     12 H                     0.056482      -0.000012
     13 H                     0.073865      -0.027430
  --------------------------------------------------------
  Sum of atomic charges =    -0.000000

                    Cartesian Multipole Moments
 -----------------------------------------------------------------
    Charge (ESU x 10^10)
                 0.0000
    Dipole Moment (Debye)
         X      -0.2763      Y      -1.4303      Z       0.8282
       Tot       1.6757
    Quadrupole Moments (Debye-Ang)
        XX     -50.7947     XY      -6.2478     YY     -47.0634
        XZ      -4.7644     YZ       2.7908     ZZ     -46.2159

 Final energy is   -915.408926740343
 **  OPTIMIZATION CONVERGED  **
 Total job time:  53.45s(wall), 617.55s(cpu)
        *  Thank you very much for using Q-Chem.  Have a nice day.  *
