 Q-Chem 5.1, Q-Chem, Inc., Pleasanton, CA (2018)
 Q-Chem 5.1.1 for Intel X86 EM64T Linux

User input:
--------------------------------------------------------------

$comment
potential surface scanner
$end

$rem
JOBTYPE  PES_SCAN
UNRESTRICTED TRUE
SYM_IGNORE  TRUE
GEOM_OPT_MAX_CYCLES 400
SCF_MAX_CYCLES 400
METHOD   B3LYP
BASIS   6-31G**
PDB_PRINT 2
SCF_CONVERGENCE 6
THRESH 14
SCF_PRINT 1
$end
$molecule
0 1
S 2.852628 0.504926 -0.012011
S -3.408758 0.891181 -0.029595
C 0.112854 0.150676 0.034285
C 1.426448 -0.671676 -0.030338
C -1.041624 -0.782995 0.032149
H 0.118018 0.761257 0.941519
H 0.065445 0.818838 -0.829829
H 1.500913 -1.343878 0.828344
H 1.457904 -1.265428 -0.947308
H -1.348744 -1.275498 0.948412
H -1.335560 -1.271942 -0.890126
H 3.819286 -0.432188 -0.074875
H -3.110618 1.340325 1.208271
$end
$scan
stre 2 5 3.000000 3.001000 0.100000
$end
--------------------------------------------------------------

   10    -915.4384802694      5.32e-07  Convergence criterion met
 Total energy in the final basis set =     -915.4384802694
   11    -915.4310414257      1.31e-07  Convergence criterion met
 Total energy in the final basis set =     -915.4310414257
   11    -915.4310808160      1.37e-07  Convergence criterion met
 Total energy in the final basis set =     -915.4310808160
   11    -915.4312648081      1.46e-07  Convergence criterion met
 Total energy in the final basis set =     -915.4312648081
   11    -915.4312728550      1.46e-07  Convergence criterion met
 Total energy in the final basis set =     -915.4312728550
   11    -915.4312931558      1.47e-07  Convergence criterion met
 Total energy in the final basis set =     -915.4312931558
   11    -915.4313011341      1.47e-07  Convergence criterion met
 Total energy in the final basis set =     -915.4313011341
   11    -915.4313045925      1.46e-07  Convergence criterion met
 Total energy in the final basis set =     -915.4313045925
   11    -915.4313057234      1.46e-07  Convergence criterion met
 Total energy in the final basis set =     -915.4313057234

             Standard Nuclear Orientation (Angstroms)
    I     Atom           X                Y                Z
 ----------------------------------------------------------------
    1      S       2.8618593997     0.5062033739    -0.0132976836
    2      S      -3.4744656568     0.9318291813    -0.0252587633
    3      C       0.1235161727     0.1397170699     0.0348897722
    4      C       1.4414315569    -0.6774887730    -0.0329630872
    5      C      -1.0245034431    -0.7986031084     0.0320702964
    6      H       0.1272916464     0.7482769336     0.9434448575
    7      H       0.0734115280     0.8086981114    -0.8286299784
    8      H       1.5192857215    -1.3511482013     0.8241801796
    9      H       1.4742113012    -1.2689400567    -0.9512945640
   10      H      -1.3468218225    -1.2777755116     0.9496483079
   11      H      -1.3288880295    -1.2790755546    -0.8909578155
   12      H       3.8324827568    -0.4265905673    -0.0788163164
   13      H      -3.1706191314     1.3684951027     1.2158827949
 ----------------------------------------------------------------

   11    -915.4313066980      1.45e-07  Convergence criterion met
 Total energy in the final basis set =     -915.4313066980

                    Orbital Energies (a.u.)
 --------------------------------------------------------------

 Alpha MOs
 -- Occupied --
-88.893 -88.856 -10.277 -10.251 -10.230  -7.956  -7.914  -5.921
 -5.917  -5.910  -5.878  -5.877  -5.869  -0.843  -0.768  -0.674
 -0.663  -0.619  -0.516  -0.476  -0.451  -0.428  -0.401  -0.382
 -0.358  -0.349  -0.255  -0.243  -0.218

 Beta MOs
 -- Occupied --
-88.893 -88.856 -10.277 -10.251 -10.230  -7.956  -7.914  -5.921
 -5.917  -5.910  -5.878  -5.877  -5.869  -0.843  -0.768  -0.674
 -0.663  -0.619  -0.516  -0.476  -0.451  -0.428  -0.401  -0.382
 -0.358  -0.349  -0.255  -0.243  -0.218

          Ground-State Mulliken Net Atomic Charges

     Atom                 Charge (a.u.)    Spin (a.u.)
  --------------------------------------------------------
      1 S                    -0.021352       0.000000
      2 S                    -0.337798      -0.000000
      3 C                    -0.209593      -0.000000
      4 C                    -0.341341       0.000000
      5 C                    -0.146354       0.000000
      6 H                     0.150343       0.000000
      7 H                     0.166144      -0.000000
      8 H                     0.146289      -0.000000
      9 H                     0.148252      -0.000000
     10 H                     0.165503       0.000000
     11 H                     0.167582      -0.000000
     12 H                     0.063940      -0.000000
     13 H                     0.048385      -0.000000
  --------------------------------------------------------
  Sum of atomic charges =     0.000000

                    Cartesian Multipole Moments
 -----------------------------------------------------------------
    Charge (ESU x 10^10)
                -0.0000
    Dipole Moment (Debye)
         X       3.6921      Y      -3.2851      Z       0.7810
       Tot       5.0033
    Quadrupole Moments (Debye-Ang)
        XX     -62.2803     XY      -0.6738     YY     -46.9906
        XZ      -2.6506     YZ       2.0380     ZZ     -46.2815

 Final energy is   -915.431306697956
 **  OPTIMIZATION CONVERGED  **
 Total job time:  42.19s(wall), 484.00s(cpu)
        *  Thank you very much for using Q-Chem.  Have a nice day.  *
