 Q-Chem 5.1, Q-Chem, Inc., Pleasanton, CA (2018)
 Q-Chem 5.1.1 for Intel X86 EM64T Linux

User input:
--------------------------------------------------------------

$comment
potential surface scanner
$end

$rem
JOBTYPE  PES_SCAN
UNRESTRICTED TRUE
SYM_IGNORE  TRUE
GEOM_OPT_MAX_CYCLES 400
SCF_MAX_CYCLES 400
METHOD   B3LYP
BASIS   6-31G**
PDB_PRINT 2
SCF_CONVERGENCE 6
THRESH 14
SCF_PRINT 1
$end
$molecule
0 1
S 2.749000 0.445300 -0.001100
S -2.750400 0.444400 -0.000400
C 0.000900 0.283600 0.001800
C 1.255600 -0.587300 0.000700
C -1.255100 -0.586000 -0.001000
H 0.001400 0.930000 0.889200
H 0.001400 0.933800 -0.882900
H 1.280200 -1.230100 0.886500
H 1.278600 -1.230200 -0.885100
H -1.279500 -1.231800 0.882600
H -1.278100 -1.225300 -0.889300
H 3.631700 -0.564200 -0.001900
H -2.527500 1.041400 1.179800
$end
$scan
stre 2 5 1.800000 1.801000 0.100000
$end
--------------------------------------------------------------

    9    -915.5215846885      2.52e-07  Convergence criterion met
 Total energy in the final basis set =     -915.5215846885
    9    -915.5226169639      3.73e-07  Convergence criterion met
 Total energy in the final basis set =     -915.5226169639
    9    -915.5227748849      3.92e-07  Convergence criterion met
 Total energy in the final basis set =     -915.5227748849
    9    -915.5227938824      3.92e-07  Convergence criterion met
 Total energy in the final basis set =     -915.5227938824
    9    -915.5227953057      3.92e-07  Convergence criterion met
 Total energy in the final basis set =     -915.5227953057

             Standard Nuclear Orientation (Angstroms)
    I     Atom           X                Y                Z
 ----------------------------------------------------------------
    1      S       2.7792046065     0.4538982742    -0.0117596746
    2      S      -2.7842919555     0.4132534570    -0.0248297490
    3      C       0.0215036591     0.2776704348     0.0121465434
    4      C       1.2683384336    -0.6110273940    -0.0022256930
    5      C      -1.2669763402    -0.5538188141     0.0254252693
    6      H       0.0469756603     0.9263104299     0.8962232379
    7      H       0.0194262158     0.9352342903    -0.8636560166
    8      H       1.2931434134    -1.2537699093     0.8826902966
    9      H       1.2755721319    -1.2461800213    -0.8928842390
   10      H      -1.2853863957    -1.2283965828     0.8878906984
   11      H      -1.3164199270    -1.1872944993    -0.8671317820
   12      H       3.6801731357    -0.5484841253    -0.0180676573
   13      H      -2.6230626378     1.0462044599     1.1550787658
 ----------------------------------------------------------------

    9    -915.5227958340      3.93e-07  Convergence criterion met
 Total energy in the final basis set =     -915.5227958340

                    Orbital Energies (a.u.)
 --------------------------------------------------------------

 Alpha MOs
 -- Occupied --
-88.878 -88.878 -10.228 -10.227 -10.204  -7.941  -7.940  -5.906
 -5.905  -5.902  -5.902  -5.895  -5.895  -0.830  -0.782  -0.711
 -0.633  -0.601  -0.494  -0.456  -0.441  -0.419  -0.388  -0.376
 -0.356  -0.333  -0.326  -0.242  -0.240

 Beta MOs
 -- Occupied --
-88.878 -88.878 -10.228 -10.227 -10.204  -7.941  -7.940  -5.906
 -5.905  -5.902  -5.902  -5.895  -5.895  -0.830  -0.782  -0.711
 -0.633  -0.601  -0.494  -0.456  -0.441  -0.419  -0.388  -0.376
 -0.356  -0.333  -0.326  -0.242  -0.240

          Ground-State Mulliken Net Atomic Charges

     Atom                 Charge (a.u.)    Spin (a.u.)
  --------------------------------------------------------
      1 S                    -0.043090       0.000000
      2 S                    -0.030051       0.000000
      3 C                    -0.175141       0.000000
      4 C                    -0.329963      -0.000000
      5 C                    -0.344593      -0.000000
      6 H                     0.118267      -0.000000
      7 H                     0.135273      -0.000000
      8 H                     0.135425      -0.000000
      9 H                     0.136921      -0.000000
     10 H                     0.137805      -0.000000
     11 H                     0.142027       0.000000
     12 H                     0.057218      -0.000000
     13 H                     0.059902      -0.000000
  --------------------------------------------------------
  Sum of atomic charges =    -0.000000

                    Cartesian Multipole Moments
 -----------------------------------------------------------------
    Charge (ESU x 10^10)
                 0.0000
    Dipole Moment (Debye)
         X       0.6228      Y      -1.8582      Z       0.7736
       Tot       2.1070
    Quadrupole Moments (Debye-Ang)
        XX     -53.5683     XY      -4.4954     YY     -46.3783
        XZ      -2.1202     YZ       1.8256     ZZ     -46.7615

 Final energy is   -915.522795834026
 **  OPTIMIZATION CONVERGED  **
 Total job time:  23.54s(wall), 267.88s(cpu)
        *  Thank you very much for using Q-Chem.  Have a nice day.  *
