 Q-Chem 5.1, Q-Chem, Inc., Pleasanton, CA (2018)
 Q-Chem 5.1.1 for Intel X86 EM64T Linux

User input:
--------------------------------------------------------------

$comment
potential surface scanner
$end

$rem
JOBTYPE  PES_SCAN
UNRESTRICTED TRUE
SYM_IGNORE  TRUE
GEOM_OPT_MAX_CYCLES 400
SCF_MAX_CYCLES 400
METHOD   B3LYP
BASIS   6-31G**
PDB_PRINT 2
SCF_CONVERGENCE 6
THRESH 14
SCF_PRINT 1
$end
$molecule
0 3
S 3.054652 0.486096 -0.048959
S -4.543213 1.519689 -0.060141
C 0.329789 -0.036746 0.106034
C 1.683575 -0.758579 -0.079469
C -0.814139 -0.994473 0.091514
H 0.357385 0.513813 1.054488
H 0.219595 0.703483 -0.696141
H 1.836810 -1.482936 0.724281
H 1.699394 -1.287063 -1.035837
H -1.133778 -1.495161 0.999599
H -1.250734 -1.324833 -0.845331
H 4.065255 -0.384890 -0.238771
H -4.396391 1.965202 1.207626
$end
$scan
stre 2 5 4.400000 4.401000 0.100000
$end
--------------------------------------------------------------

   12    -915.4089569560      8.56e-07  Convergence criterion met
 Total energy in the final basis set =     -915.4089569560
   12    -915.4087563033      8.49e-07  Convergence criterion met
 Total energy in the final basis set =     -915.4087563033
   12    -915.4088827681      8.42e-07  Convergence criterion met
 Total energy in the final basis set =     -915.4088827681
   12    -915.4089289542      8.37e-07  Convergence criterion met
 Total energy in the final basis set =     -915.4089289542
   12    -915.4089302289      8.37e-07  Convergence criterion met
 Total energy in the final basis set =     -915.4089302289
   12    -915.4089335734      8.38e-07  Convergence criterion met
 Total energy in the final basis set =     -915.4089335734

             Standard Nuclear Orientation (Angstroms)
    I     Atom           X                Y                Z
 ----------------------------------------------------------------
    1      S       3.0308382689     0.5041735519    -0.0466593336
    2      S      -4.4405726446     1.5014006482    -0.0622833269
    3      C       0.3098922375    -0.0387357287     0.1076525453
    4      C       1.6687004511    -0.7502544774    -0.0788217851
    5      C      -0.8271650955    -1.0044925707     0.0919459643
    6      H       0.3329287068     0.5107470091     1.0569163982
    7      H       0.1935586048     0.7023595165    -0.6927430516
    8      H       1.8274219478    -1.4746486293     0.7238606563
    9      H       1.6883498929    -1.2774121214    -1.0358796307
   10      H      -1.1354110167    -1.5192336139     0.9965027780
   11      H      -1.2545513775    -1.3446923371    -0.8458745570
   12      H       4.0476881453    -0.3597540866    -0.2353590198
   13      H      -4.3334781208     1.9741448394     1.1996353625
 ----------------------------------------------------------------

   12    -915.4089343815      8.38e-07  Convergence criterion met
 Total energy in the final basis set =     -915.4089343815

                    Orbital Energies (a.u.)
 --------------------------------------------------------------

 Alpha MOs
 -- Occupied --
-88.911 -88.872 -10.223 -10.200 -10.200  -7.972  -7.934  -5.943
 -5.933  -5.924  -5.899  -5.896  -5.889  -0.812  -0.739  -0.738
 -0.646  -0.589  -0.481  -0.447  -0.417  -0.413  -0.402  -0.373
 -0.350  -0.326  -0.320  -0.273  -0.235  -0.213

 Beta MOs
 -- Occupied --
-88.905 -88.872 -10.222 -10.201 -10.186  -7.967  -7.934  -5.930
 -5.926  -5.921  -5.899  -5.896  -5.889  -0.806  -0.728  -0.698
 -0.630  -0.578  -0.478  -0.444  -0.412  -0.399  -0.392  -0.365
 -0.347  -0.325  -0.258  -0.235

          Ground-State Mulliken Net Atomic Charges

     Atom                 Charge (a.u.)    Spin (a.u.)
  --------------------------------------------------------
      1 S                    -0.055734       0.021411
      2 S                    -0.074964       1.028550
      3 C                    -0.200802      -0.073973
      4 C                    -0.314185       0.046862
      5 C                    -0.227090       1.074209
      6 H                     0.121050       0.012133
      7 H                     0.126782       0.013860
      8 H                     0.136375      -0.000465
      9 H                     0.137112      -0.000621
     10 H                     0.109319      -0.047275
     11 H                     0.112239      -0.047248
     12 H                     0.056367       0.000024
     13 H                     0.073532      -0.027467
  --------------------------------------------------------
  Sum of atomic charges =    -0.000000

                    Cartesian Multipole Moments
 -----------------------------------------------------------------
    Charge (ESU x 10^10)
                 0.0000
    Dipole Moment (Debye)
         X      -0.4191      Y      -1.3076      Z       0.7973
       Tot       1.5878
    Quadrupole Moments (Debye-Ang)
        XX     -48.8017     XY      -7.0196     YY     -46.7031
        XZ      -4.3611     YZ       2.6516     ZZ     -46.3069

 Final energy is   -915.408934381463
 **  OPTIMIZATION CONVERGED  **
 Total job time:  29.52s(wall), 339.26s(cpu)
        *  Thank you very much for using Q-Chem.  Have a nice day.  *
