 Q-Chem 5.1, Q-Chem, Inc., Pleasanton, CA (2018)
 Q-Chem 5.1.1 for Intel X86 EM64T Linux

User input:
--------------------------------------------------------------

$comment
potential surface scanner
$end

$rem
JOBTYPE  PES_SCAN
UNRESTRICTED TRUE
SYM_IGNORE  TRUE
GEOM_OPT_MAX_CYCLES 400
SCF_MAX_CYCLES 400
METHOD   B3LYP
BASIS   6-31G**
PDB_PRINT 2
SCF_CONVERGENCE 6
THRESH 14
SCF_PRINT 1
$end
$molecule
0 3
S 2.909730 0.483868 -0.027583
S -3.980295 1.592741 0.360063
C 0.167344 0.109137 0.157869
C 1.476848 -0.687460 -0.041163
C -1.025956 -0.787697 0.146999
H 0.229833 0.652316 1.108305
H 0.092263 0.858111 -0.639869
H 1.599260 -1.417688 0.762561
H 1.453675 -1.217083 -0.996840
H -1.325545 -1.316991 1.046787
H -1.438138 -1.141259 -0.793753
H 3.870342 -0.440377 -0.224522
H -2.921160 0.735989 0.320042
$end
$scan
stre 2 5 3.700000 3.701000 0.100000
$end
--------------------------------------------------------------

   13    -915.4116559582      2.82e-07  Convergence criterion met
 Total energy in the final basis set =     -915.4116559582
   13    -915.4100752488      2.56e-07  Convergence criterion met
 Total energy in the final basis set =     -915.4100752488
   13    -915.4113797645      2.73e-07  Convergence criterion met
 Total energy in the final basis set =     -915.4113797645
   13    -915.4117870900      2.96e-07  Convergence criterion met
 Total energy in the final basis set =     -915.4117870900
   13    -915.4117991138      3.01e-07  Convergence criterion met
 Total energy in the final basis set =     -915.4117991138

             Standard Nuclear Orientation (Angstroms)
    I     Atom           X                Y                Z
 ----------------------------------------------------------------
    1      S       2.8956300422     0.4884320534    -0.0248863446
    2      S      -3.8967048920     1.5627806742     0.3730494974
    3      C       0.1526374984     0.1170606439     0.1524839417
    4      C       1.4619039005    -0.6817406899    -0.0387535881
    5      C      -1.0414862846    -0.7789695480     0.1408154207
    6      H       0.2119030436     0.6642515962     1.1007166092
    7      H       0.0808492966     0.8626153579    -0.6487672028
    8      H       1.5808960185    -1.4089081704     0.7682635510
    9      H       1.4415304535    -1.2151273268    -0.9924057391
   10      H      -1.3461947364    -1.3024137947     1.0423808159
   11      H      -1.4449811941    -1.1422213311    -0.8000956699
   12      H       3.8559411230    -0.4374450693    -0.2154844879
   13      H      -2.8437232692     0.6952926044     0.3215791965
 ----------------------------------------------------------------

   13    -915.4117994745      3.02e-07  Convergence criterion met
 Total energy in the final basis set =     -915.4117994745

                    Orbital Energies (a.u.)
 --------------------------------------------------------------

 Alpha MOs
 -- Occupied --
-88.901 -88.878 -10.231 -10.217 -10.210  -7.962  -7.941  -5.934
 -5.924  -5.915  -5.906  -5.902  -5.895  -0.822  -0.750  -0.728
 -0.656  -0.599  -0.492  -0.456  -0.428  -0.418  -0.398  -0.383
 -0.361  -0.333  -0.313  -0.265  -0.241  -0.229

 Beta MOs
 -- Occupied --
-88.895 -88.878 -10.230 -10.211 -10.204  -7.957  -7.941  -5.920
 -5.915  -5.911  -5.905  -5.902  -5.895  -0.815  -0.738  -0.687
 -0.640  -0.591  -0.488  -0.452  -0.423  -0.404  -0.386  -0.375
 -0.358  -0.332  -0.250  -0.241

          Ground-State Mulliken Net Atomic Charges

     Atom                 Charge (a.u.)    Spin (a.u.)
  --------------------------------------------------------
      1 S                    -0.046784       0.020517
      2 S                    -0.085002       1.068897
      3 C                    -0.199342      -0.069773
      4 C                    -0.318313       0.046899
      5 C                    -0.243843       1.021300
      6 H                     0.130131       0.010629
      7 H                     0.131095       0.013562
      8 H                     0.139065      -0.000662
      9 H                     0.138802      -0.000859
     10 H                     0.123622      -0.042950
     11 H                     0.123442      -0.042842
     12 H                     0.058436       0.000325
     13 H                     0.048691      -0.025042
  --------------------------------------------------------
  Sum of atomic charges =    -0.000000

                    Cartesian Multipole Moments
 -----------------------------------------------------------------
    Charge (ESU x 10^10)
                -0.0000
    Dipole Moment (Debye)
         X       0.9074      Y      -2.6297      Z      -0.2263
       Tot       2.7911
    Quadrupole Moments (Debye-Ang)
        XX     -55.9373     XY      -1.0984     YY     -49.7738
        XZ      -0.0760     YZ      -0.3478     ZZ     -46.7085

 Final energy is   -915.411799474520
 **  OPTIMIZATION CONVERGED  **
 Total job time:  28.18s(wall), 322.51s(cpu)
        *  Thank you very much for using Q-Chem.  Have a nice day.  *
