 Q-Chem 5.1, Q-Chem, Inc., Pleasanton, CA (2018)
 Q-Chem 5.1.1 for Intel X86 EM64T Linux

User input:
--------------------------------------------------------------

$comment
potential surface scanner
$end

$rem
JOBTYPE  PES_SCAN
UNRESTRICTED TRUE
SYM_IGNORE  TRUE
GEOM_OPT_MAX_CYCLES 400
SCF_MAX_CYCLES 400
METHOD   B3LYP
BASIS   6-31G**
PDB_PRINT 2
SCF_CONVERGENCE 6
THRESH 14
SCF_PRINT 1
$end
$molecule
0 3
S 3.030838 0.504174 -0.046659
S -4.440573 1.501401 -0.062283
C 0.309892 -0.038736 0.107653
C 1.668700 -0.750254 -0.078822
C -0.827165 -1.004493 0.091946
H 0.332929 0.510747 1.056916
H 0.193559 0.702360 -0.692743
H 1.827422 -1.474649 0.723861
H 1.688350 -1.277412 -1.035880
H -1.135411 -1.519234 0.996503
H -1.254551 -1.344692 -0.845875
H 4.047688 -0.359754 -0.235359
H -4.333478 1.974145 1.199635
$end
$scan
stre 2 5 4.300000 4.301000 0.100000
$end
--------------------------------------------------------------

   12    -915.4089343821      8.38e-07  Convergence criterion met
 Total energy in the final basis set =     -915.4089343821
   12    -915.4083643941      8.88e-07  Convergence criterion met
 Total energy in the final basis set =     -915.4083643941
   12    -915.4087357206      8.63e-07  Convergence criterion met
 Total energy in the final basis set =     -915.4087357206
   12    -915.4088800864      8.34e-07  Convergence criterion met
 Total energy in the final basis set =     -915.4088800864
   12    -915.4088869222      8.34e-07  Convergence criterion met
 Total energy in the final basis set =     -915.4088869222
   12    -915.4089009725      8.32e-07  Convergence criterion met
 Total energy in the final basis set =     -915.4089009725
   12    -915.4089051702      8.32e-07  Convergence criterion met
 Total energy in the final basis set =     -915.4089051702
   12    -915.4089152762      8.33e-07  Convergence criterion met
 Total energy in the final basis set =     -915.4089152762
   12    -915.4089209011      8.33e-07  Convergence criterion met
 Total energy in the final basis set =     -915.4089209011
   12    -915.4089252740      8.33e-07  Convergence criterion met
 Total energy in the final basis set =     -915.4089252740
   12    -915.4089273315      8.33e-07  Convergence criterion met
 Total energy in the final basis set =     -915.4089273315
   12    -915.4089286312      8.33e-07  Convergence criterion met
 Total energy in the final basis set =     -915.4089286312

             Standard Nuclear Orientation (Angstroms)
    I     Atom           X                Y                Z
 ----------------------------------------------------------------
    1      S       3.0211751613     0.5078200502    -0.0446996350
    2      S      -4.3616872170     1.4581710658    -0.0638855574
    3      C       0.3000797018    -0.0350412949     0.1062771364
    4      C       1.6593878229    -0.7468416515    -0.0773027312
    5      C      -0.8373689842    -1.0005084022     0.0912926337
    6      H       0.3231501677     0.5156042347     1.0550054365
    7      H       0.1848275086     0.7052635707    -0.6949540184
    8      H       1.8166588174    -1.4698780642     0.7269008984
    9      H       1.6805469709    -1.2754917760    -1.0334591967
   10      H      -1.1454635237    -1.5111380706     0.9979417300
   11      H      -1.2839918788    -1.3205921374    -0.8442770382
   12      H       4.0384535792    -0.3558510663    -0.2322302680
   13      H      -4.2875681260     1.9520865418     1.1922836098
 ----------------------------------------------------------------

   12    -915.4089296263      8.33e-07  Convergence criterion met
 Total energy in the final basis set =     -915.4089296263

                    Orbital Energies (a.u.)
 --------------------------------------------------------------

 Alpha MOs
 -- Occupied --
-88.911 -88.872 -10.223 -10.200 -10.200  -7.972  -7.934  -5.943
 -5.933  -5.924  -5.899  -5.896  -5.889  -0.812  -0.739  -0.738
 -0.646  -0.588  -0.481  -0.447  -0.418  -0.413  -0.402  -0.372
 -0.350  -0.326  -0.320  -0.273  -0.235  -0.212

 Beta MOs
 -- Occupied --
-88.905 -88.872 -10.221 -10.201 -10.186  -7.967  -7.934  -5.930
 -5.926  -5.921  -5.899  -5.896  -5.889  -0.805  -0.728  -0.698
 -0.630  -0.578  -0.478  -0.443  -0.412  -0.399  -0.392  -0.365
 -0.347  -0.325  -0.258  -0.235

          Ground-State Mulliken Net Atomic Charges

     Atom                 Charge (a.u.)    Spin (a.u.)
  --------------------------------------------------------
      1 S                    -0.055916       0.021270
      2 S                    -0.075299       1.028773
      3 C                    -0.200945      -0.074145
      4 C                    -0.314032       0.046862
      5 C                    -0.227437       1.074471
      6 H                     0.120993       0.012947
      7 H                     0.126780       0.013397
      8 H                     0.136319      -0.000475
      9 H                     0.137201      -0.000556
     10 H                     0.109516      -0.047532
     11 H                     0.112948      -0.047528
     12 H                     0.056344      -0.000015
     13 H                     0.073528      -0.027469
  --------------------------------------------------------
  Sum of atomic charges =     0.000000

                    Cartesian Multipole Moments
 -----------------------------------------------------------------
    Charge (ESU x 10^10)
                -0.0000
    Dipole Moment (Debye)
         X      -0.4587      Y      -1.2825      Z       0.7927
       Tot       1.5759
    Quadrupole Moments (Debye-Ang)
        XX     -48.5113     XY      -7.0856     YY     -46.7559
        XZ      -4.2758     YZ       2.6038     ZZ     -46.3127

 Final energy is   -915.408929626269
 **  OPTIMIZATION CONVERGED  **
 Total job time:  54.83s(wall), 630.61s(cpu)
        *  Thank you very much for using Q-Chem.  Have a nice day.  *
