 Q-Chem 5.1, Q-Chem, Inc., Pleasanton, CA (2018)
 Q-Chem 5.1.1 for Intel X86 EM64T Linux

User input:
--------------------------------------------------------------

$comment
potential surface scanner
$end

$rem
JOBTYPE  PES_SCAN
UNRESTRICTED TRUE
SYM_IGNORE  TRUE
GEOM_OPT_MAX_CYCLES 400
SCF_MAX_CYCLES 400
METHOD   B3LYP
BASIS   6-31G**
PDB_PRINT 2
SCF_CONVERGENCE 6
THRESH 14
SCF_PRINT 1
$end
$molecule
0 3
S 3.153419 0.436526 -0.058176
S -5.206013 1.824832 -0.001126
C 0.424179 -0.062318 0.085553
C 1.772802 -0.797503 -0.081263
C -0.728464 -1.009844 0.077382
H 0.449186 0.502972 1.025184
H 0.325365 0.667039 -0.728372
H 1.914907 -1.512622 0.732737
H 1.790447 -1.338705 -1.030507
H -1.072112 -1.478993 0.993454
H -1.140845 -1.372914 -0.858515
H 4.158372 -0.444821 -0.229136
H -4.733048 2.009951 1.251681
$end
$scan
stre 2 5 5.200000 5.201000 0.100000
$end
--------------------------------------------------------------

   12    -915.4089153722      8.09e-07  Convergence criterion met
 Total energy in the final basis set =     -915.4089153722
   12    -915.4086647967      8.08e-07  Convergence criterion met
 Total energy in the final basis set =     -915.4086647967
   12    -915.4088307520      8.07e-07  Convergence criterion met
 Total energy in the final basis set =     -915.4088307520
   12    -915.4088930452      8.04e-07  Convergence criterion met
 Total energy in the final basis set =     -915.4088930452
   12    -915.4088969765      8.05e-07  Convergence criterion met
 Total energy in the final basis set =     -915.4088969765
   12    -915.4089033422      8.05e-07  Convergence criterion met
 Total energy in the final basis set =     -915.4089033422
   12    -915.4089051658      8.05e-07  Convergence criterion met
 Total energy in the final basis set =     -915.4089051658
   12    -915.4089081081      8.05e-07  Convergence criterion met
 Total energy in the final basis set =     -915.4089081081
   12    -915.4089103136      8.05e-07  Convergence criterion met
 Total energy in the final basis set =     -915.4089103136
   12    -915.4089128172      8.04e-07  Convergence criterion met
 Total energy in the final basis set =     -915.4089128172
   12    -915.4089145023      8.03e-07  Convergence criterion met
 Total energy in the final basis set =     -915.4089145023

             Standard Nuclear Orientation (Angstroms)
    I     Atom           X                Y                Z
 ----------------------------------------------------------------
    1      S       3.1352057310     0.4501329709    -0.0585148844
    2      S      -5.1110682347     1.7944577999    -0.0197922455
    3      C       0.4085750226    -0.0634118248     0.0932821284
    4      C       1.7607162845    -0.7908637699    -0.0816396815
    5      C      -0.7382272491    -1.0176471945     0.0818417756
    6      H       0.4339249038     0.4948586015     1.0370949852
    7      H       0.3047660988     0.6711217088    -0.7152566045
    8      H       1.9094329297    -1.5083342120     0.7290937756
    9      H       1.7777926729    -1.3282529112    -1.0330404737
   10      H      -1.0797475808    -1.4913921330     0.9962374759
   11      H      -1.1559513728    -1.3731190013    -0.8545352425
   12      H       4.1437195911    -0.4251674854    -0.2392935512
   13      H      -4.6809437971     2.0112174511     1.2434185428
 ----------------------------------------------------------------

   12    -915.4089154729      8.03e-07  Convergence criterion met
 Total energy in the final basis set =     -915.4089154729

                    Orbital Energies (a.u.)
 --------------------------------------------------------------

 Alpha MOs
 -- Occupied --
-88.911 -88.872 -10.223 -10.200 -10.200  -7.973  -7.935  -5.944
 -5.934  -5.925  -5.900  -5.896  -5.889  -0.812  -0.740  -0.739
 -0.646  -0.589  -0.482  -0.447  -0.418  -0.413  -0.402  -0.373
 -0.351  -0.327  -0.321  -0.273  -0.236  -0.213

 Beta MOs
 -- Occupied --
-88.906 -88.872 -10.222 -10.201 -10.186  -7.967  -7.935  -5.931
 -5.926  -5.921  -5.899  -5.896  -5.889  -0.806  -0.729  -0.699
 -0.631  -0.579  -0.478  -0.444  -0.413  -0.400  -0.393  -0.366
 -0.348  -0.325  -0.259  -0.235

          Ground-State Mulliken Net Atomic Charges

     Atom                 Charge (a.u.)    Spin (a.u.)
  --------------------------------------------------------
      1 S                    -0.055892       0.021338
      2 S                    -0.074028       1.027560
      3 C                    -0.200297      -0.074646
      4 C                    -0.314010       0.046522
      5 C                    -0.227069       1.076427
      6 H                     0.121307       0.011119
      7 H                     0.125522       0.015390
      8 H                     0.136638      -0.000373
      9 H                     0.136959      -0.000677
     10 H                     0.109336      -0.047675
     11 H                     0.111152      -0.047540
     12 H                     0.056508      -0.000010
     13 H                     0.073873      -0.027435
  --------------------------------------------------------
  Sum of atomic charges =    -0.000000

                    Cartesian Multipole Moments
 -----------------------------------------------------------------
    Charge (ESU x 10^10)
                 0.0000
    Dipole Moment (Debye)
         X      -0.2129      Y      -1.4787      Z       0.8250
       Tot       1.7066
    Quadrupole Moments (Debye-Ang)
        XX     -51.4859     XY      -5.9495     YY     -47.1234
        XZ      -4.8001     YZ       2.8292     ZZ     -46.2107

 Final energy is   -915.408915472906
 **  OPTIMIZATION CONVERGED  **
 Total job time:  48.73s(wall), 562.50s(cpu)
        *  Thank you very much for using Q-Chem.  Have a nice day.  *
