 Q-Chem 5.1, Q-Chem, Inc., Pleasanton, CA (2018)
 Q-Chem 5.1.1 for Intel X86 EM64T Linux

User input:
--------------------------------------------------------------

$comment
potential surface scanner
$end

$rem
JOBTYPE  PES_SCAN
UNRESTRICTED TRUE
SYM_IGNORE  TRUE
GEOM_OPT_MAX_CYCLES 400
SCF_MAX_CYCLES 400
METHOD   B3LYP
BASIS   6-31G**
PDB_PRINT 2
SCF_CONVERGENCE 6
THRESH 14
SCF_PRINT 1
$end
$molecule
0 3
S 3.090757 0.459784 -0.056021
S -4.729446 1.583464 -0.059321
C 0.362268 -0.035994 0.107720
C 1.707529 -0.771238 -0.083006
C -0.793154 -0.980095 0.094840
H 0.396270 0.512918 1.056856
H 0.257979 0.708013 -0.691957
H 1.856539 -1.498194 0.719173
H 1.714622 -1.298578 -1.040178
H -1.114676 -1.479204 1.003427
H -1.215088 -1.326984 -0.843037
H 4.092152 -0.421335 -0.247876
H -4.517555 1.971044 1.218274
$end
$scan
stre 2 5 4.600000 4.601000 0.100000
$end
--------------------------------------------------------------

   12    -915.4089565357      8.53e-07  Convergence criterion met
 Total energy in the final basis set =     -915.4089565357
   12    -915.4087919999      8.59e-07  Convergence criterion met
 Total energy in the final basis set =     -915.4087919999
   12    -915.4088954627      8.56e-07  Convergence criterion met
 Total energy in the final basis set =     -915.4088954627
   12    -915.4089344677      8.53e-07  Convergence criterion met
 Total energy in the final basis set =     -915.4089344677
   12    -915.4089370732      8.53e-07  Convergence criterion met
 Total energy in the final basis set =     -915.4089370732
   12    -915.4089478227      8.55e-07  Convergence criterion met
 Total energy in the final basis set =     -915.4089478227
   12    -915.4089499104      8.55e-07  Convergence criterion met
 Total energy in the final basis set =     -915.4089499104
   12    -915.4089560548      8.55e-07  Convergence criterion met
 Total energy in the final basis set =     -915.4089560548
   12    -915.4089573459      8.54e-07  Convergence criterion met
 Total energy in the final basis set =     -915.4089573459

             Standard Nuclear Orientation (Angstroms)
    I     Atom           X                Y                Z
 ----------------------------------------------------------------
    1      S       3.0606731543     0.4871731720    -0.0516862317
    2      S      -4.6134597066     1.5665339977    -0.0631341829
    3      C       0.3381455895    -0.0450049952     0.1087623377
    4      C       1.6935755579    -0.7617458022    -0.0825228036
    5      C      -0.8032197772    -1.0059034017     0.0938336110
    6      H       0.3656807155     0.5030599752     1.0586228097
    7      H       0.2237708043     0.6980465010    -0.6903306041
    8      H       1.8513343255    -1.4881892474     0.7184782318
    9      H       1.7084955439    -1.2873338803    -1.0405347655
   10      H      -1.1247704555    -1.5038809540     1.0027064233
   11      H      -1.2333039906    -1.3429428692    -0.8436890726
   12      H       4.0739966514    -0.3806902958    -0.2412861113
   13      H      -4.4327214123     1.9844787997     1.2096743581
 ----------------------------------------------------------------

   12    -915.4089578296      8.54e-07  Convergence criterion met
 Total energy in the final basis set =     -915.4089578296

                    Orbital Energies (a.u.)
 --------------------------------------------------------------

 Alpha MOs
 -- Occupied --
-88.911 -88.872 -10.223 -10.200 -10.200  -7.972  -7.934  -5.944
 -5.934  -5.925  -5.899  -5.896  -5.889  -0.812  -0.740  -0.738
 -0.646  -0.589  -0.482  -0.447  -0.418  -0.413  -0.402  -0.373
 -0.350  -0.326  -0.321  -0.273  -0.236  -0.213

 Beta MOs
 -- Occupied --
-88.905 -88.872 -10.222 -10.201 -10.186  -7.967  -7.934  -5.931
 -5.926  -5.921  -5.899  -5.896  -5.889  -0.806  -0.728  -0.699
 -0.630  -0.578  -0.478  -0.444  -0.412  -0.399  -0.393  -0.365
 -0.347  -0.325  -0.259  -0.235

          Ground-State Mulliken Net Atomic Charges

     Atom                 Charge (a.u.)    Spin (a.u.)
  --------------------------------------------------------
      1 S                    -0.055870       0.021312
      2 S                    -0.074588       1.028143
      3 C                    -0.200576      -0.074301
      4 C                    -0.314005       0.046637
      5 C                    -0.227489       1.075485
      6 H                     0.121067       0.011744
      7 H                     0.126239       0.014550
      8 H                     0.136453      -0.000418
      9 H                     0.137078      -0.000630
     10 H                     0.109491      -0.047549
     11 H                     0.112104      -0.047505
     12 H                     0.056398      -0.000007
     13 H                     0.073697      -0.027461
  --------------------------------------------------------
  Sum of atomic charges =     0.000000

                    Cartesian Multipole Moments
 -----------------------------------------------------------------
    Charge (ESU x 10^10)
                 0.0000
    Dipole Moment (Debye)
         X      -0.3865      Y      -1.3347      Z       0.8124
       Tot       1.6096
    Quadrupole Moments (Debye-Ang)
        XX     -49.3469     XY      -6.8339     YY     -46.8046
        XZ      -4.5391     YZ       2.7150     ZZ     -46.2813

 Final energy is   -915.408957829562
 **  OPTIMIZATION CONVERGED  **
 Total job time:  41.47s(wall), 481.11s(cpu)
        *  Thank you very much for using Q-Chem.  Have a nice day.  *
