 Q-Chem 5.1, Q-Chem, Inc., Pleasanton, CA (2018)
 Q-Chem 5.1.1 for Intel X86 EM64T Linux

User input:
--------------------------------------------------------------

$comment
potential surface scanner
$end

$rem
JOBTYPE  PES_SCAN
UNRESTRICTED TRUE
SYM_IGNORE  TRUE
GEOM_OPT_MAX_CYCLES 400
SCF_MAX_CYCLES 400
METHOD   B3LYP
BASIS   6-31G**
PDB_PRINT 2
SCF_CONVERGENCE 6
THRESH 14
SCF_PRINT 1
$end
$molecule
0 1
S 2.999713 0.484504 -0.055242
S -4.255370 1.339853 -0.047912
C 0.274832 0.028710 0.093066
C 1.619503 -0.746461 -0.078384
C -0.841348 -0.926757 0.082223
H 0.309778 0.586689 1.033433
H 0.186094 0.737421 -0.738262
H 1.749599 -1.460055 0.738144
H 1.621983 -1.285240 -1.028361
H -1.237156 -1.349546 0.999767
H -1.222919 -1.329030 -0.850548
H 3.994392 -0.413692 -0.195311
H -4.090905 1.757201 1.226284
$end
$scan
stre 2 5 4.200000 4.201000 0.100000
$end
--------------------------------------------------------------

   16    -915.3817808168      3.08e-07  Convergence criterion met
 Total energy in the final basis set =     -915.3817808168
   17    -915.3791491189      5.73e-07  Convergence criterion met
 Total energy in the final basis set =     -915.3791491189
   17    -915.3791385858      5.95e-07  Convergence criterion met
 Total energy in the final basis set =     -915.3791385858
   17    -915.3792109419      5.91e-07  Convergence criterion met
 Total energy in the final basis set =     -915.3792109419
   17    -915.3792147587      5.84e-07  Convergence criterion met
 Total energy in the final basis set =     -915.3792147587
   17    -915.3792242808      5.83e-07  Convergence criterion met
 Total energy in the final basis set =     -915.3792242808
   17    -915.3792277249      5.99e-07  Convergence criterion met
 Total energy in the final basis set =     -915.3792277249
   17    -915.3792323982      6.26e-07  Convergence criterion met
   17    -915.3792365025      6.40e-07  Convergence criterion met
 Total energy in the final basis set =     -915.3792365025
   17    -915.3792406316      6.42e-07  Convergence criterion met
 Total energy in the final basis set =     -915.3792406316
   17    -915.3792434938      6.32e-07  Convergence criterion met
 Total energy in the final basis set =     -915.3792434938
   17    -915.3792458425      6.13e-07  Convergence criterion met
 Total energy in the final basis set =     -915.3792458425
   17    -915.3792477841      5.87e-07  Convergence criterion met
 Total energy in the final basis set =     -915.3792477841
   17    -915.3792490121      5.67e-07  Convergence criterion met
 Total energy in the final basis set =     -915.3792490121

             Standard Nuclear Orientation (Angstroms)
    I     Atom           X                Y                Z
 ----------------------------------------------------------------
    1      S       3.0121559681     0.4823870624    -0.0619826991
    2      S      -4.3262631612     1.3773554670    -0.0532140625
    3      C       0.2891603121     0.0181603758     0.1021974855
    4      C       1.6349700956    -0.7519569385    -0.0850313893
    5      C      -0.8253627855    -0.9385107864     0.0898230702
    6      H       0.3291305628     0.5689025225     1.0465793309
    7      H       0.1942472272     0.7334376551    -0.7232468346
    8      H       1.7723269242    -1.4714117990     0.7250850527
    9      H       1.6316595294    -1.2833792616    -1.0391160728
   10      H      -1.2250675409    -1.3583792793     1.0067630531
   11      H      -1.2070287088    -1.3381527363    -0.8440054952
   12      H       4.0085973577    -0.4130576163    -0.2069548573
   13      H      -4.1803297805     1.7982023345     1.2220004185
 ----------------------------------------------------------------

   17    -915.3792494209      5.64e-07  Convergence criterion met
 Total energy in the final basis set =     -915.3792494209

                    Orbital Energies (a.u.)
 --------------------------------------------------------------

 Alpha MOs
 -- Occupied --
-88.900 -88.840 -10.282 -10.262 -10.243  -7.963  -7.900  -5.928
 -5.924  -5.917  -5.864  -5.863  -5.854  -0.854  -0.778  -0.680
 -0.653  -0.628  -0.528  -0.488  -0.462  -0.438  -0.409  -0.393
 -0.357  -0.346  -0.262  -0.210  -0.205

 Beta MOs
 -- Occupied --
-88.900 -88.840 -10.282 -10.262 -10.243  -7.963  -7.900  -5.928
 -5.924  -5.917  -5.864  -5.863  -5.854  -0.854  -0.778  -0.680
 -0.653  -0.628  -0.528  -0.488  -0.462  -0.438  -0.409  -0.393
 -0.357  -0.346  -0.262  -0.210  -0.205

          Ground-State Mulliken Net Atomic Charges

     Atom                 Charge (a.u.)    Spin (a.u.)
  --------------------------------------------------------
      1 S                    -0.015994       0.000000
      2 S                    -0.363190      -0.000000
      3 C                    -0.225789      -0.000000
      4 C                    -0.336672       0.000000
      5 C                    -0.147200       0.000000
      6 H                     0.157279       0.000000
      7 H                     0.172076       0.000000
      8 H                     0.151954       0.000000
      9 H                     0.153254       0.000000
     10 H                     0.170023      -0.000000
     11 H                     0.171971      -0.000000
     12 H                     0.067171       0.000000
     13 H                     0.045116       0.000000
  --------------------------------------------------------
  Sum of atomic charges =    -0.000000

                    Cartesian Multipole Moments
 -----------------------------------------------------------------
    Charge (ESU x 10^10)
                 0.0000
    Dipole Moment (Debye)
         X       5.7192      Y      -4.2187      Z       0.8731
       Tot       7.1603
    Quadrupole Moments (Debye-Ang)
        XX     -72.4931     XY       3.2844     YY     -48.4440
        XZ      -4.2737     YZ       2.4624     ZZ     -46.0052

 Final energy is   -915.379249420866
 **  OPTIMIZATION CONVERGED  **
 Total job time:  80.85s(wall), 941.41s(cpu)
        *  Thank you very much for using Q-Chem.  Have a nice day.  *
