 Q-Chem 5.1, Q-Chem, Inc., Pleasanton, CA (2018)
 Q-Chem 5.1.1 for Intel X86 EM64T Linux

User input:
--------------------------------------------------------------

$comment
potential surface scanner
$end

$rem
JOBTYPE  PES_SCAN
UNRESTRICTED TRUE
SYM_IGNORE  TRUE
GEOM_OPT_MAX_CYCLES 400
SCF_MAX_CYCLES 400
METHOD   B3LYP
BASIS   6-31G**
PDB_PRINT 2
SCF_CONVERGENCE 6
THRESH 14
SCF_PRINT 1
$end
$molecule
0 3
S 2.958847 -0.003035 0.039788
S -3.965093 -0.551524 0.100169
C 0.243633 0.472950 0.268820
C 1.228507 -0.647156 -0.067030
C -1.220818 -0.003937 0.195576
H 0.452912 0.855704 1.274550
H 0.390716 1.309597 -0.424229
H 1.114287 -1.479029 0.634225
H 1.050081 -1.020504 -1.079642
H -1.393328 -0.818069 0.906215
H -1.449379 -0.372428 -0.810172
H 3.580175 -1.151586 -0.293156
H -1.882340 0.832620 0.433780
$end
$scan
stre 2 5 2.700000 2.701000 0.100000
$end
--------------------------------------------------------------

   10    -915.4374576238      7.09e-07  Convergence criterion met
 Total energy in the final basis set =     -915.4374576238
   10    -915.4342262709      4.47e-07  Convergence criterion met
 Total energy in the final basis set =     -915.4342262709
   10    -915.4342259897      4.90e-07  Convergence criterion met
 Total energy in the final basis set =     -915.4342259897
   10    -915.4342304629      5.05e-07  Convergence criterion met
 Total energy in the final basis set =     -915.4342304629
   10    -915.4342316603      5.13e-07  Convergence criterion met
 Total energy in the final basis set =     -915.4342316603

             Standard Nuclear Orientation (Angstroms)
    I     Atom           X                Y                Z
 ----------------------------------------------------------------
    1      S       2.9492090388    -0.0174795145     0.0333774096
    2      S      -3.8530701555    -0.6216060823     0.0701121548
    3      C       0.2396062912     0.4792569528     0.2710151934
    4      C       1.2138986456    -0.6490221016    -0.0668212710
    5      C      -1.2326659998     0.0152449875     0.2039159399
    6      H       0.4541075048     0.8611625084     1.2759463701
    7      H       0.3900203748     1.3142192380    -0.4232810525
    8      H       1.0955918066    -1.4790603396     0.6359356230
    9      H       1.0290871882    -1.0222856329    -1.0783257586
   10      H      -1.4002630245    -0.7981347294     0.9158479017
   11      H      -1.4598063881    -0.3492073108    -0.8036248137
   12      H       3.5610875118    -1.1711423824    -0.2992824129
   13      H      -1.8786027940     0.8616574068     0.4440787163
 ----------------------------------------------------------------

   10    -915.4342325518      5.18e-07  Convergence criterion met
 Total energy in the final basis set =     -915.4342325518

                    Orbital Energies (a.u.)
 --------------------------------------------------------------

 Alpha MOs
 -- Occupied --
-88.918 -88.875 -10.224 -10.203 -10.196  -7.978  -7.937  -5.947
 -5.947  -5.928  -5.902  -5.899  -5.892  -0.816  -0.752  -0.714
 -0.658  -0.596  -0.483  -0.450  -0.441  -0.415  -0.379  -0.361
 -0.355  -0.329  -0.318  -0.294  -0.273  -0.238

 Beta MOs
 -- Occupied --
-88.907 -88.875 -10.224 -10.202 -10.195  -7.967  -7.937  -5.926
 -5.926  -5.922  -5.902  -5.899  -5.892  -0.815  -0.747  -0.666
 -0.621  -0.591  -0.482  -0.446  -0.440  -0.413  -0.371  -0.355
 -0.351  -0.327  -0.247  -0.238

          Ground-State Mulliken Net Atomic Charges

     Atom                 Charge (a.u.)    Spin (a.u.)
  --------------------------------------------------------
      1 S                    -0.049111       0.001970
      2 S                    -0.044457       1.929645
      3 C                    -0.196217       0.037323
      4 C                    -0.318672      -0.000216
      5 C                    -0.370261       0.026817
      6 H                     0.121800       0.000770
      7 H                     0.121741       0.000009
      8 H                     0.135557       0.000170
      9 H                     0.135232       0.000217
     10 H                     0.134080       0.000398
     11 H                     0.128954       0.000672
     12 H                     0.056604       0.000908
     13 H                     0.144750       0.001318
  --------------------------------------------------------
  Sum of atomic charges =    -0.000000

                    Cartesian Multipole Moments
 -----------------------------------------------------------------
    Charge (ESU x 10^10)
                -0.0000
    Dipole Moment (Debye)
         X      -0.3387      Y      -0.9667      Z      -0.2175
       Tot       1.0472
    Quadrupole Moments (Debye-Ang)
        XX     -54.2961     XY      -4.3166     YY     -47.0743
        XZ      -1.1897     YZ       0.5667     ZZ     -46.8850

 Final energy is   -915.434232551784
 **  OPTIMIZATION CONVERGED  **
 Total job time:  24.69s(wall), 281.16s(cpu)
        *  Thank you very much for using Q-Chem.  Have a nice day.  *
