 Q-Chem 5.1, Q-Chem, Inc., Pleasanton, CA (2018)
 Q-Chem 5.1.1 for Intel X86 EM64T Linux

User input:
--------------------------------------------------------------

$comment
potential surface scanner
$end

$rem
JOBTYPE  PES_SCAN
UNRESTRICTED TRUE
SYM_IGNORE  TRUE
GEOM_OPT_MAX_CYCLES 400
SCF_MAX_CYCLES 400
METHOD   B3LYP
BASIS   6-31G**
PDB_PRINT 2
SCF_CONVERGENCE 6
THRESH 14
SCF_PRINT 1
$end
$molecule
0 3
S 2.902104 -0.057550 0.035091
S -3.369660 -0.747734 0.065058
C 0.205033 0.492291 0.272758
C 1.153703 -0.651164 -0.071987
C -1.320578 0.041165 0.202540
H 0.411184 0.863102 1.282992
H 0.353785 1.329103 -0.418840
H 1.018277 -1.484405 0.624278
H 0.963021 -1.014129 -1.086423
H -1.384550 -0.763804 0.936685
H -1.443985 -0.297626 -0.827491
H 3.488894 -1.225653 -0.293186
H -1.869029 0.940012 0.457418
$end
$scan
stre 2 5 2.100000 2.101000 0.100000
$end
--------------------------------------------------------------

   10    -915.3925169434      4.23e-07  Convergence criterion met
 Total energy in the final basis set =     -915.3925169434
   10    -915.3759924850      4.56e-07  Convergence criterion met
 Total energy in the final basis set =     -915.3759924850
   10    -915.3759718176      4.86e-07  Convergence criterion met
 Total energy in the final basis set =     -915.3759718176
   10    -915.3763246840      5.27e-07  Convergence criterion met
 Total energy in the final basis set =     -915.3763246840
   10    -915.3763418206      5.30e-07  Convergence criterion met
 Total energy in the final basis set =     -915.3763418206
   10    -915.3763469170      5.32e-07  Convergence criterion met
 Total energy in the final basis set =     -915.3763469170

             Standard Nuclear Orientation (Angstroms)
    I     Atom           X                Y                Z
 ----------------------------------------------------------------
    1      S       2.8960311342    -0.0600768498     0.0348050390
    2      S      -3.3103943439    -0.7371722979     0.0672920538
    3      C       0.2009511181     0.4925370440     0.2725151521
    4      C       1.1459903381    -0.6507982996    -0.0719469950
    5      C      -1.3593971436     0.0282756857     0.2003309346
    6      H       0.3968782359     0.8626494830     1.2845327835
    7      H       0.3384842607     1.3288969696    -0.4212431579
    8      H       1.0102348803    -1.4842194750     0.6242589735
    9      H       0.9554203162    -1.0138961981    -1.0864936116
   10      H      -1.3635373603    -0.7697358159     0.9440473510
   11      H      -1.4251378305    -0.2953206215    -0.8392445573
   12      H       3.4812105323    -1.2297559429    -0.2917840121
   13      H      -1.8585351375     0.9522243184     0.4618230464
 ----------------------------------------------------------------

   10    -915.3763471469      5.32e-07  Convergence criterion met
 Total energy in the final basis set =     -915.3763471469

                    Orbital Energies (a.u.)
 --------------------------------------------------------------

 Alpha MOs
 -- Occupied --
-88.880 -88.879 -10.231 -10.222 -10.215  -7.943  -7.943  -5.912
 -5.910  -5.908  -5.904  -5.897  -5.893  -0.830  -0.782  -0.715
 -0.646  -0.599  -0.505  -0.474  -0.453  -0.446  -0.393  -0.375
 -0.373  -0.334  -0.287  -0.246  -0.243  -0.213

 Beta MOs
 -- Occupied --
-88.880 -88.869 -10.231 -10.221 -10.211  -7.942  -7.933  -5.907
 -5.904  -5.897  -5.892  -5.892  -5.888  -0.823  -0.769  -0.693
 -0.619  -0.572  -0.498  -0.469  -0.445  -0.438  -0.383  -0.368
 -0.359  -0.331  -0.243  -0.223

          Ground-State Mulliken Net Atomic Charges

     Atom                 Charge (a.u.)    Spin (a.u.)
  --------------------------------------------------------
      1 S                    -0.042591       0.004385
      2 S                    -0.102052       1.725716
      3 C                    -0.215242       0.177987
      4 C                    -0.319266      -0.006318
      5 C                    -0.452984      -0.010505
      6 H                     0.127589       0.001042
      7 H                     0.127345       0.001124
      8 H                     0.137185       0.001674
      9 H                     0.137299       0.001607
     10 H                     0.175576       0.038174
     11 H                     0.175370       0.037756
     12 H                     0.058359       0.004330
     13 H                     0.193411       0.023027
  --------------------------------------------------------
  Sum of atomic charges =    -0.000000

                    Cartesian Multipole Moments
 -----------------------------------------------------------------
    Charge (ESU x 10^10)
                -0.0000
    Dipole Moment (Debye)
         X       1.0228      Y      -0.3278      Z      -0.1287
       Tot       1.0817
    Quadrupole Moments (Debye-Ang)
        XX     -60.9463     XY      -6.7610     YY     -46.9553
        XZ      -1.1349     YZ       0.0868     ZZ     -46.5849

 Final energy is   -915.376347146883
 **  OPTIMIZATION CONVERGED  **
 Total job time:  29.27s(wall), 333.87s(cpu)
        *  Thank you very much for using Q-Chem.  Have a nice day.  *
