 Q-Chem 5.1, Q-Chem, Inc., Pleasanton, CA (2018)
 Q-Chem 5.1.1 for Intel X86 EM64T Linux

User input:
--------------------------------------------------------------

$comment
potential surface scanner
$end

$rem
JOBTYPE  PES_SCAN
UNRESTRICTED TRUE
SYM_IGNORE  TRUE
GEOM_OPT_MAX_CYCLES 400
SCF_MAX_CYCLES 400
METHOD   B3LYP
BASIS   6-31G**
PDB_PRINT 2
SCF_CONVERGENCE 6
THRESH 14
SCF_PRINT 1
$end
$molecule
0 3
S 3.149414 0.452009 -0.107543
S -5.227860 1.885042 -0.157334
C 0.447887 -0.100242 0.219456
C 1.779946 -0.793624 -0.135752
C -0.704413 -1.046258 0.168104
H 0.534029 0.347699 1.215468
H 0.295410 0.727027 -0.489507
H 1.997718 -1.584959 0.585683
H 1.719439 -1.236548 -1.133378
H -1.179717 -1.411862 1.071430
H -1.037044 -1.457373 -0.779985
H 4.148524 -0.404390 -0.397540
H -4.815136 2.047078 1.119795
$end
$scan
stre 2 5 5.300000 5.301000 0.100000
$end
--------------------------------------------------------------

   12    -915.4087993474      8.03e-07  Convergence criterion met
 Total energy in the final basis set =     -915.4087993474
   12    -915.4086187524      8.21e-07  Convergence criterion met
 Total energy in the final basis set =     -915.4086187524
   12    -915.4087424854      8.20e-07  Convergence criterion met
 Total energy in the final basis set =     -915.4087424854
   12    -915.4087881108      8.15e-07  Convergence criterion met
 Total energy in the final basis set =     -915.4087881108
   12    -915.4087921286      8.15e-07  Convergence criterion met
 Total energy in the final basis set =     -915.4087921286
   12    -915.4087982545      8.13e-07  Convergence criterion met
 Total energy in the final basis set =     -915.4087982545
   12    -915.4088001402      8.13e-07  Convergence criterion met
 Total energy in the final basis set =     -915.4088001402
   12    -915.4088032449      8.13e-07  Convergence criterion met
   12    -915.4089072337      8.07e-07  Convergence criterion met
 Total energy in the final basis set =     -915.4089072337
   12    -915.4089090457      8.06e-07  Convergence criterion met
 Total energy in the final basis set =     -915.4089090457
   12    -915.4089103476      8.06e-07  Convergence criterion met
 Total energy in the final basis set =     -915.4089103476
   12    -915.4089117755      8.06e-07  Convergence criterion met
 Total energy in the final basis set =     -915.4089117755
   12    -915.4089135749      8.07e-07  Convergence criterion met
 Total energy in the final basis set =     -915.4089135749
   12    -915.4089148144      8.08e-07  Convergence criterion met
 Total energy in the final basis set =     -915.4089148144

             Standard Nuclear Orientation (Angstroms)
    I     Atom           X                Y                Z
 ----------------------------------------------------------------
    1      S       3.1534193574     0.4365257075    -0.0581760333
    2      S      -5.2060131769     1.8248317823    -0.0011256502
    3      C       0.4241794136    -0.0623180891     0.0855527821
    4      C       1.7728024749    -0.7975027283    -0.0812634904
    5      C      -0.7284635058    -1.0098440879     0.0773819944
    6      H       0.4491858616     0.5029722126     1.0251842617
    7      H       0.3253648515     0.6670391321    -0.7283715235
    8      H       1.9149066891    -1.5126221612     0.7327374826
    9      H       1.7904465900    -1.3387054782    -1.0305066111
   10      H      -1.0721115412    -1.4789927717     0.9934535433
   11      H      -1.1408446974    -1.3729136405    -0.8585150257
   12      H       4.1583722802    -0.4448214983    -0.2291356657
   13      H      -4.7330475970     2.0099506207     1.2516809359
 ----------------------------------------------------------------

   12    -915.4089153723      8.09e-07  Convergence criterion met
 Total energy in the final basis set =     -915.4089153723

                    Orbital Energies (a.u.)
 --------------------------------------------------------------

 Alpha MOs
 -- Occupied --
-88.911 -88.872 -10.224 -10.200 -10.200  -7.973  -7.935  -5.944
 -5.934  -5.925  -5.900  -5.896  -5.889  -0.812  -0.740  -0.739
 -0.647  -0.589  -0.482  -0.447  -0.418  -0.413  -0.402  -0.373
 -0.351  -0.327  -0.321  -0.273  -0.236  -0.213

 Beta MOs
 -- Occupied --
-88.906 -88.872 -10.222 -10.201 -10.187  -7.967  -7.935  -5.931
 -5.926  -5.922  -5.900  -5.896  -5.889  -0.806  -0.729  -0.699
 -0.631  -0.579  -0.479  -0.444  -0.413  -0.400  -0.393  -0.366
 -0.348  -0.325  -0.259  -0.236

          Ground-State Mulliken Net Atomic Charges

     Atom                 Charge (a.u.)    Spin (a.u.)
  --------------------------------------------------------
      1 S                    -0.055728       0.021292
      2 S                    -0.073990       1.027524
      3 C                    -0.200364      -0.074529
      4 C                    -0.313992       0.046474
      5 C                    -0.226841       1.076399
      6 H                     0.121394       0.011043
      7 H                     0.125340       0.015334
      8 H                     0.136634      -0.000382
      9 H                     0.136933      -0.000679
     10 H                     0.109280      -0.047578
     11 H                     0.110938      -0.047462
     12 H                     0.056515       0.000000
     13 H                     0.073880      -0.027434
  --------------------------------------------------------
  Sum of atomic charges =    -0.000000

                    Cartesian Multipole Moments
 -----------------------------------------------------------------
    Charge (ESU x 10^10)
                -0.0000
    Dipole Moment (Debye)
         X      -0.1809      Y      -1.5045      Z       0.8236
       Tot       1.7247
    Quadrupole Moments (Debye-Ang)
        XX     -51.8883     XY      -5.7910     YY     -47.1995
        XZ      -4.7984     YZ       2.8374     ZZ     -46.1972

 Final energy is   -915.408915372330
 **  OPTIMIZATION CONVERGED  **
 Total job time:  104.67s(wall), 1214.89s(cpu)
        *  Thank you very much for using Q-Chem.  Have a nice day.  *
