 Q-Chem 5.1, Q-Chem, Inc., Pleasanton, CA (2018)
 Q-Chem 5.1.1 for Intel X86 EM64T Linux

User input:
--------------------------------------------------------------

$comment
potential surface scanner
$end

$rem
JOBTYPE  PES_SCAN
UNRESTRICTED TRUE
SYM_IGNORE  TRUE
GEOM_OPT_MAX_CYCLES 400
SCF_MAX_CYCLES 400
METHOD   B3LYP
BASIS   6-31G**
PDB_PRINT 2
SCF_CONVERGENCE 6
THRESH 14
SCF_PRINT 1
$end
$molecule
0 1
S 2.885194 0.504564 -0.019986
S -3.611251 1.006054 -0.025691
C 0.149281 0.118783 0.042236
C 1.474349 -0.690659 -0.040660
C -0.988276 -0.825848 0.038628
H 0.156909 0.719338 0.956011
H 0.092720 0.792399 -0.817662
H 1.560986 -1.370047 0.810861
H 1.504237 -1.274026 -0.964029
H -1.334810 -1.285107 0.957339
H -1.316727 -1.285311 -0.886737
H 3.862111 -0.420872 -0.094540
H -3.326528 1.434329 1.223124
$end
$scan
stre 2 5 3.300000 3.301000 0.100000
$end
--------------------------------------------------------------

   11    -915.4185515389      4.50e-07  Convergence criterion met
 Total energy in the final basis set =     -915.4185515389
   12    -915.4127271555      1.42e-07  Convergence criterion met
 Total energy in the final basis set =     -915.4127271555
   12    -915.4127017124      1.39e-07  Convergence criterion met
 Total energy in the final basis set =     -915.4127017124
   12    -915.4128680513      1.34e-07  Convergence criterion met
 Total energy in the final basis set =     -915.4128680513
   12    -915.4128738639      1.34e-07  Convergence criterion met
 Total energy in the final basis set =     -915.4128738639
   12    -915.4128949114      1.34e-07  Convergence criterion met
 Total energy in the final basis set =     -915.4128949114
   12    -915.4129079844      1.35e-07  Convergence criterion met
 Total energy in the final basis set =     -915.4129079844
   12    -915.4129148239      1.36e-07  Convergence criterion met
 Total energy in the final basis set =     -915.4129148239
   12    -915.4129164262      1.36e-07  Convergence criterion met
 Total energy in the final basis set =     -915.4129164262

             Standard Nuclear Orientation (Angstroms)
    I     Atom           X                Y                Z
 ----------------------------------------------------------------
    1      S       2.8966281021     0.5038473270    -0.0232517848
    2      S      -3.6792005128     1.0446202117    -0.0300055638
    3      C       0.1621645896     0.1077715186     0.0487051553
    4      C       1.4906152597    -0.6971106671    -0.0451570520
    5      C      -0.9710046169    -0.8395704493     0.0441531257
    6      H       0.1727310825     0.7028600882     0.9660180202
    7      H       0.1011447329     0.7854541119    -0.8079489013
    8      H       1.5828959925    -1.3811987369     0.8018860874
    9      H       1.5178449887    -1.2744003352    -0.9723235693
   10      H      -1.3276402059    -1.2905873672     0.9632596627
   11      H      -1.3078298872    -1.2906511399    -0.8824951308
   12      H       3.8766198062    -0.4175242172    -0.1065178371
   13      H      -3.4067743315     1.4700866553     1.2225717876
 ----------------------------------------------------------------

   12    -915.4129172184      1.36e-07  Convergence criterion met
 Total energy in the final basis set =     -915.4129172184

                    Orbital Energies (a.u.)
 --------------------------------------------------------------

 Alpha MOs
 -- Occupied --
-88.896 -88.850 -10.281 -10.256 -10.235  -7.958  -7.909  -5.924
 -5.920  -5.913  -5.873  -5.872  -5.863  -0.848  -0.772  -0.675
 -0.661  -0.623  -0.521  -0.481  -0.455  -0.432  -0.404  -0.386
 -0.353  -0.352  -0.258  -0.231  -0.213

 Beta MOs
 -- Occupied --
-88.896 -88.850 -10.281 -10.256 -10.235  -7.958  -7.909  -5.924
 -5.920  -5.913  -5.873  -5.872  -5.863  -0.848  -0.772  -0.675
 -0.661  -0.623  -0.521  -0.481  -0.455  -0.432  -0.404  -0.386
 -0.353  -0.352  -0.258  -0.231  -0.213

          Ground-State Mulliken Net Atomic Charges

     Atom                 Charge (a.u.)    Spin (a.u.)
  --------------------------------------------------------
      1 S                    -0.018196       0.000000
      2 S                    -0.361167       0.000000
      3 C                    -0.218109      -0.000000
      4 C                    -0.341391       0.000000
      5 C                    -0.136333      -0.000000
      6 H                     0.154701       0.000000
      7 H                     0.170201      -0.000000
      8 H                     0.148572       0.000000
      9 H                     0.150415      -0.000000
     10 H                     0.168588      -0.000000
     11 H                     0.171125       0.000000
     12 H                     0.065174      -0.000000
     13 H                     0.046420       0.000000
  --------------------------------------------------------
  Sum of atomic charges =    -0.000000

                    Cartesian Multipole Moments
 -----------------------------------------------------------------
    Charge (ESU x 10^10)
                -0.0000
    Dipole Moment (Debye)
         X       4.3632      Y      -3.5872      Z       0.8042
       Tot       5.7055
    Quadrupole Moments (Debye-Ang)
        XX     -64.8981     XY       0.3588     YY     -47.2740
        XZ      -3.0106     YZ       2.1256     ZZ     -46.1757

 Final energy is   -915.412917218422
 **  OPTIMIZATION CONVERGED  **
 Total job time:  44.22s(wall), 508.53s(cpu)
        *  Thank you very much for using Q-Chem.  Have a nice day.  *
