 Q-Chem 5.1, Q-Chem, Inc., Pleasanton, CA (2018)
 Q-Chem 5.1.1 for Intel X86 EM64T Linux

User input:
--------------------------------------------------------------

$comment
potential surface scanner
$end

$rem
JOBTYPE  PES_SCAN
UNRESTRICTED TRUE
SYM_IGNORE  TRUE
GEOM_OPT_MAX_CYCLES 400
SCF_MAX_CYCLES 400
METHOD   B3LYP
BASIS   6-31G**
PDB_PRINT 2
SCF_CONVERGENCE 6
THRESH 14
SCF_PRINT 1
$end
$molecule
0 1
S 2.749000 0.445300 -0.001100
S -2.750400 0.444400 -0.000400
C 0.000900 0.283600 0.001800
C 1.255600 -0.587300 0.000700
C -1.255100 -0.586000 -0.001000
H 0.001400 0.930000 0.889200
H 0.001400 0.933800 -0.882900
H 1.280200 -1.230100 0.886500
H 1.278600 -1.230200 -0.885100
H -1.279500 -1.231800 0.882600
H -1.278100 -1.225300 -0.889300
H 3.631700 -0.564200 -0.001900
H -2.527500 1.041400 1.179800
$end
$scan
stre 2 5 1.700000 1.701000 0.100000
$end
--------------------------------------------------------------

    9    -915.5215846885      2.52e-07  Convergence criterion met
 Total energy in the final basis set =     -915.5215846885
    9    -915.5149933276      3.90e-07  Convergence criterion met
 Total energy in the final basis set =     -915.5149933276
    9    -915.5154438860      4.01e-07  Convergence criterion met
 Total energy in the final basis set =     -915.5154438860
    9    -915.5155562943      4.03e-07  Convergence criterion met
 Total energy in the final basis set =     -915.5155562943
    9    -915.5155631170      4.04e-07  Convergence criterion met
 Total energy in the final basis set =     -915.5155631170
    9    -915.5155645788      4.04e-07  Convergence criterion met
 Total energy in the final basis set =     -915.5155645788
    9    -915.5155660099      4.04e-07  Convergence criterion met
 Total energy in the final basis set =     -915.5155660099
    9    -915.5155671014      4.04e-07  Convergence criterion met
 Total energy in the final basis set =     -915.5155671014

             Standard Nuclear Orientation (Angstroms)
    I     Atom           X                Y                Z
 ----------------------------------------------------------------
    1      S       2.7747131124     0.4478427363    -0.0081065593
    2      S      -2.7330012764     0.3604103392    -0.0226180421
    3      C       0.0152256832     0.2882019961     0.0120443654
    4      C       1.2562015856    -0.6065290864    -0.0049680764
    5      C      -1.2879558798    -0.5333408259     0.0326347352
    6      H       0.0455741005     0.9381575356     0.8955165599
    7      H       0.0121061284     0.9455953312    -0.8642830219
    8      H       1.2763384650    -1.2533775576     0.8771014337
    9      H       1.2606523792    -1.2379807356    -0.8983416687
   10      H      -1.2672086070    -1.2238155569     0.8862618918
   11      H      -1.3124312622    -1.1776912656    -0.8557856614
   12      H       3.6686455449    -0.5608708018    -0.0082764804
   13      H      -2.6006599737     1.0369978913     1.1377205242
 ----------------------------------------------------------------

    9    -915.5155677284      4.04e-07  Convergence criterion met
 Total energy in the final basis set =     -915.5155677284

                    Orbital Energies (a.u.)
 --------------------------------------------------------------

 Alpha MOs
 -- Occupied --
-88.877 -88.876 -10.227 -10.221 -10.203  -7.940  -7.939  -5.906
 -5.904  -5.901  -5.901  -5.895  -5.894  -0.839  -0.791  -0.712
 -0.630  -0.601  -0.496  -0.459  -0.445  -0.422  -0.389  -0.376
 -0.357  -0.333  -0.325  -0.240  -0.238

 Beta MOs
 -- Occupied --
-88.877 -88.876 -10.227 -10.221 -10.203  -7.940  -7.939  -5.906
 -5.904  -5.901  -5.901  -5.895  -5.894  -0.839  -0.791  -0.712
 -0.630  -0.601  -0.496  -0.459  -0.445  -0.422  -0.389  -0.376
 -0.357  -0.333  -0.325  -0.240  -0.238

          Ground-State Mulliken Net Atomic Charges

     Atom                 Charge (a.u.)    Spin (a.u.)
  --------------------------------------------------------
      1 S                    -0.043750       0.000000
      2 S                    -0.014147       0.000000
      3 C                    -0.179474      -0.000000
      4 C                    -0.329954      -0.000000
      5 C                    -0.343605       0.000000
      6 H                     0.116860       0.000000
      7 H                     0.133411       0.000000
      8 H                     0.135145      -0.000000
      9 H                     0.136467       0.000000
     10 H                     0.133651       0.000000
     11 H                     0.141817      -0.000000
     12 H                     0.056875       0.000000
     13 H                     0.056704      -0.000000
  --------------------------------------------------------
  Sum of atomic charges =    -0.000000

                    Cartesian Multipole Moments
 -----------------------------------------------------------------
    Charge (ESU x 10^10)
                 0.0000
    Dipole Moment (Debye)
         X       0.5252      Y      -1.8091      Z       0.7515
       Tot       2.0281
    Quadrupole Moments (Debye-Ang)
        XX     -53.3810     XY      -4.5941     YY     -46.2626
        XZ      -2.0722     YZ       1.8087     ZZ     -46.8239

 Final energy is   -915.515567728387
 **  OPTIMIZATION CONVERGED  **
 Total job time:  35.15s(wall), 402.18s(cpu)
        *  Thank you very much for using Q-Chem.  Have a nice day.  *
