 Q-Chem 5.1, Q-Chem, Inc., Pleasanton, CA (2018)
 Q-Chem 5.1.1 for Intel X86 EM64T Linux

User input:
--------------------------------------------------------------

$comment
potential surface scanner
$end

$rem
JOBTYPE  PES_SCAN
UNRESTRICTED TRUE
SYM_IGNORE  TRUE
GEOM_OPT_MAX_CYCLES 400
SCF_MAX_CYCLES 400
METHOD   B3LYP
BASIS   6-31G**
PDB_PRINT 2
SCF_CONVERGENCE 6
THRESH 14
SCF_PRINT 1
$end
$molecule
0 1
S 2.861859 0.506203 -0.013298
S -3.474466 0.931829 -0.025259
C 0.123516 0.139717 0.034890
C 1.441432 -0.677489 -0.032963
C -1.024503 -0.798603 0.032070
H 0.127292 0.748277 0.943445
H 0.073412 0.808698 -0.828630
H 1.519286 -1.351148 0.824180
H 1.474211 -1.268940 -0.951295
H -1.346822 -1.277776 0.949648
H -1.328888 -1.279076 -0.890958
H 3.832483 -0.426591 -0.078816
H -3.170619 1.368495 1.215883
$end
$scan
stre 2 5 3.100000 3.101000 0.100000
$end
--------------------------------------------------------------

   11    -915.4313066658      1.45e-07  Convergence criterion met
 Total energy in the final basis set =     -915.4313066658
   11    -915.4244232267      2.24e-07  Convergence criterion met
 Total energy in the final basis set =     -915.4244232267
   11    -915.4244315636      2.27e-07  Convergence criterion met
 Total energy in the final basis set =     -915.4244315636
   11    -915.4246194598      2.32e-07  Convergence criterion met
 Total energy in the final basis set =     -915.4246194598
   11    -915.4246270153      2.32e-07  Convergence criterion met
 Total energy in the final basis set =     -915.4246270153
   11    -915.4246506702      2.33e-07  Convergence criterion met
 Total energy in the final basis set =     -915.4246506702
   11    -915.4246619373      2.34e-07  Convergence criterion met
 Total energy in the final basis set =     -915.4246619373
   11    -915.4246668158      2.33e-07  Convergence criterion met
 Total energy in the final basis set =     -915.4246668158
   11    -915.4246681511      2.33e-07  Convergence criterion met
 Total energy in the final basis set =     -915.4246681511
   11    -915.4246693126      2.32e-07  Convergence criterion met
 Total energy in the final basis set =     -915.4246693126
   11    -915.4246704777      2.31e-07  Convergence criterion met
 Total energy in the final basis set =     -915.4246704777

             Standard Nuclear Orientation (Angstroms)
    I     Atom           X                Y                Z
 ----------------------------------------------------------------
    1      S       2.8758008805     0.5029328356    -0.0176408955
    2      S      -3.5471174212     0.9648499342    -0.0257876097
    3      C       0.1381853080     0.1308405882     0.0388404180
    4      C       1.4582829026    -0.6844182638    -0.0371818458
    5      C      -1.0056772336    -0.8092011173     0.0360408237
    6      H       0.1450098190     0.7355024683     0.9499880278
    7      H       0.0853367655     0.8027254758    -0.8224978724
    8      H       1.5400090014    -1.3610913798     0.8171053564
    9      H       1.4884311272    -1.2718690079    -0.9580577746
   10      H      -1.3382566845    -1.2800975170     0.9543837656
   11      H      -1.3223236377    -1.2794066087    -0.8882296038
   12      H       3.8480200523    -0.4278692742    -0.0872607616
   13      H      -3.2575078795     1.4006978666     1.2191949718
 ----------------------------------------------------------------

   11    -915.4246713629      2.31e-07  Convergence criterion met
 Total energy in the final basis set =     -915.4246713629

                    Orbital Energies (a.u.)
 --------------------------------------------------------------

 Alpha MOs
 -- Occupied --
-88.894 -88.854 -10.278 -10.253 -10.232  -7.957  -7.912  -5.922
 -5.918  -5.911  -5.876  -5.875  -5.867  -0.845  -0.769  -0.674
 -0.663  -0.620  -0.518  -0.478  -0.452  -0.430  -0.402  -0.383
 -0.357  -0.350  -0.256  -0.238  -0.216

 Beta MOs
 -- Occupied --
-88.894 -88.854 -10.278 -10.253 -10.232  -7.957  -7.912  -5.922
 -5.918  -5.911  -5.876  -5.875  -5.867  -0.845  -0.769  -0.674
 -0.663  -0.620  -0.518  -0.478  -0.452  -0.430  -0.402  -0.383
 -0.357  -0.350  -0.256  -0.238  -0.216

          Ground-State Mulliken Net Atomic Charges

     Atom                 Charge (a.u.)    Spin (a.u.)
  --------------------------------------------------------
      1 S                    -0.020095       0.000000
      2 S                    -0.347674       0.000000
      3 C                    -0.213099      -0.000000
      4 C                    -0.341473       0.000000
      5 C                    -0.141036      -0.000000
      6 H                     0.152103       0.000000
      7 H                     0.167534       0.000000
      8 H                     0.147155      -0.000000
      9 H                     0.149089       0.000000
     10 H                     0.166519      -0.000000
     11 H                     0.168897      -0.000000
     12 H                     0.064411       0.000000
     13 H                     0.047667      -0.000000
  --------------------------------------------------------
  Sum of atomic charges =    -0.000000

                    Cartesian Multipole Moments
 -----------------------------------------------------------------
    Charge (ESU x 10^10)
                 0.0000
    Dipole Moment (Debye)
         X       3.9343      Y      -3.3805      Z       0.7899
       Tot       5.2469
    Quadrupole Moments (Debye-Ang)
        XX     -63.1895     XY      -0.3664     YY     -47.0616
        XZ      -2.7663     YZ       2.0661     ZZ     -46.2454

 Final energy is   -915.424671362928
 **  OPTIMIZATION CONVERGED  **
 Total job time:  50.47s(wall), 582.36s(cpu)
        *  Thank you very much for using Q-Chem.  Have a nice day.  *
