 Q-Chem 5.1, Q-Chem, Inc., Pleasanton, CA (2018)
 Q-Chem 5.1.1 for Intel X86 EM64T Linux

User input:
--------------------------------------------------------------

$comment
potential surface scanner
$end

$rem
JOBTYPE  PES_SCAN
UNRESTRICTED TRUE
SYM_IGNORE  TRUE
GEOM_OPT_MAX_CYCLES 400
SCF_MAX_CYCLES 400
METHOD   B3LYP
BASIS   6-31G**
PDB_PRINT 2
SCF_CONVERGENCE 6
THRESH 14
SCF_PRINT 1
$end
$molecule
0 1
S 2.749000 0.445300 -0.001100
S -2.750400 0.444400 -0.000400
C 0.000900 0.283600 0.001800
C 1.255600 -0.587300 0.000700
C -1.255100 -0.586000 -0.001000
H 0.001400 0.930000 0.889200
H 0.001400 0.933800 -0.882900
H 1.280200 -1.230100 0.886500
H 1.278600 -1.230200 -0.885100
H -1.279500 -1.231800 0.882600
H -1.278100 -1.225300 -0.889300
H 3.631700 -0.564200 -0.001900
H -2.527500 1.041400 1.179800
$end
$scan
stre 2 5 1.600000 1.601000 0.100000
$end
--------------------------------------------------------------

    9    -915.5215846885      2.52e-07  Convergence criterion met
 Total energy in the final basis set =     -915.5215846885
    9    -915.5087000570      3.60e-07  Convergence criterion met
 Total energy in the final basis set =     -915.5087000570
    9    -915.4948332264      3.29e-07  Convergence criterion met
 Total energy in the final basis set =     -915.4948332264
    9    -915.4956046262      3.36e-07  Convergence criterion met
 Total energy in the final basis set =     -915.4956046262
    9    -915.4962255135      3.50e-07  Convergence criterion met
 Total energy in the final basis set =     -915.4962255135
    9    -915.4962693933      3.52e-07  Convergence criterion met
 Total energy in the final basis set =     -915.4962693933
    9    -915.4962976426      3.54e-07  Convergence criterion met
 Total energy in the final basis set =     -915.4962976426
    9    -915.4963006243      3.54e-07  Convergence criterion met
 Total energy in the final basis set =     -915.4963006243
    9    -915.4963031252      3.54e-07  Convergence criterion met
 Total energy in the final basis set =     -915.4963031252
    9    -915.4963045169      3.54e-07  Convergence criterion met
 Total energy in the final basis set =     -915.4963045169
    9    -915.4963059956      3.54e-07  Convergence criterion met
 Total energy in the final basis set =     -915.4963059956
    9    -915.4963071177      3.54e-07  Convergence criterion met
 Total energy in the final basis set =     -915.4963071177

             Standard Nuclear Orientation (Angstroms)
    I     Atom           X                Y                Z
 ----------------------------------------------------------------
    1      S       2.7723897284     0.4401581815    -0.0090860244
    2      S      -2.6804831558     0.3106550003    -0.0250563411
    3      C       0.0109898480     0.2999845705     0.0133473532
    4      C       1.2453308609    -0.6019439544    -0.0037282636
    5      C      -1.3089751557    -0.5108679035     0.0387084616
    6      H       0.0436623530     0.9501191787     0.8970539570
    7      H       0.0084332004     0.9572992516    -0.8633103283
    8      H       1.2615542461    -1.2480878110     0.8789398882
    9      H       1.2448552894    -1.2344093831    -0.8965039071
   10      H      -1.2488496540    -1.2178940380     0.8821093386
   11      H      -1.3059465518    -1.1646667399    -0.8460592698
   12      H       3.6581501803    -0.5758353416    -0.0101158207
   13      H      -2.5929111892     1.0190889889     1.1226009564
 ----------------------------------------------------------------

    9    -915.4963079673      3.54e-07  Convergence criterion met
 Total energy in the final basis set =     -915.4963079673

                    Orbital Energies (a.u.)
 --------------------------------------------------------------

 Alpha MOs
 -- Occupied --
-88.877 -88.872 -10.226 -10.216 -10.202  -7.940  -7.939  -5.905
 -5.904  -5.901  -5.900  -5.894  -5.894  -0.854  -0.797  -0.712
 -0.626  -0.601  -0.500  -0.463  -0.448  -0.425  -0.392  -0.376
 -0.359  -0.332  -0.321  -0.240  -0.234

 Beta MOs
 -- Occupied --
-88.877 -88.872 -10.226 -10.216 -10.202  -7.940  -7.939  -5.905
 -5.904  -5.901  -5.900  -5.894  -5.894  -0.854  -0.797  -0.712
 -0.626  -0.601  -0.500  -0.463  -0.448  -0.425  -0.392  -0.376
 -0.359  -0.332  -0.321  -0.240  -0.234

          Ground-State Mulliken Net Atomic Charges

     Atom                 Charge (a.u.)    Spin (a.u.)
  --------------------------------------------------------
      1 S                    -0.043930       0.000000
      2 S                    -0.006664       0.000000
      3 C                    -0.184621      -0.000000
      4 C                    -0.330340       0.000000
      5 C                    -0.332725       0.000000
      6 H                     0.115875       0.000000
      7 H                     0.131737      -0.000000
      8 H                     0.135124       0.000000
      9 H                     0.135890      -0.000000
     10 H                     0.128248      -0.000000
     11 H                     0.142959      -0.000000
     12 H                     0.056540       0.000000
     13 H                     0.051906      -0.000000
  --------------------------------------------------------
  Sum of atomic charges =     0.000000

                    Cartesian Multipole Moments
 -----------------------------------------------------------------
    Charge (ESU x 10^10)
                 0.0000
    Dipole Moment (Debye)
         X       0.4511      Y      -1.7901      Z       0.7266
       Tot       1.9839
    Quadrupole Moments (Debye-Ang)
        XX     -53.2519     XY      -4.6272     YY     -46.1694
        XZ      -2.0672     YZ       1.7868     ZZ     -46.8537

 Final energy is   -915.496307967295
 **  OPTIMIZATION CONVERGED  **
 Total job time:  51.50s(wall), 586.53s(cpu)
        *  Thank you very much for using Q-Chem.  Have a nice day.  *
