 Q-Chem 5.1, Q-Chem, Inc., Pleasanton, CA (2018)
 Q-Chem 5.1.1 for Intel X86 EM64T Linux

User input:
--------------------------------------------------------------

$comment
potential surface scanner
$end

$rem
JOBTYPE  PES_SCAN
UNRESTRICTED TRUE
SYM_IGNORE  TRUE
GEOM_OPT_MAX_CYCLES 400
SCF_MAX_CYCLES 400
METHOD   B3LYP
BASIS   6-31G**
PDB_PRINT 2
SCF_CONVERGENCE 6
THRESH 14
SCF_PRINT 1
$end
$molecule
0 1
S 2.909725 0.501491 -0.026785
S -3.749567 1.081343 -0.038480
C 0.176421 0.097608 0.057796
C 1.507038 -0.703471 -0.050222
C -0.953668 -0.851197 0.052261
H 0.191290 0.685892 0.979483
H 0.110102 0.781087 -0.794160
H 1.605476 -1.393898 0.790859
H 1.529793 -1.273007 -0.982204
H -1.318649 -1.296429 0.970995
H -1.298005 -1.295118 -0.875208
H 3.891378 -0.416753 -0.123170
H -3.493138 1.506050 1.217729
$end
$scan
stre 2 5 3.500000 3.501000 0.100000
$end
--------------------------------------------------------------

   12    -915.4077311257      2.32e-07  Convergence criterion met
 Total energy in the final basis set =     -915.4077311257
   11    -915.4028095905      4.95e-07  Convergence criterion met
 Total energy in the final basis set =     -915.4028095905
   11    -915.4027734176      4.97e-07  Convergence criterion met
 Total energy in the final basis set =     -915.4027734176
   11    -915.4029167351      4.92e-07  Convergence criterion met
 Total energy in the final basis set =     -915.4029167351
   11    -915.4029212418      4.92e-07  Convergence criterion met
 Total energy in the final basis set =     -915.4029212418
   11    -915.4029372294      4.95e-07  Convergence criterion met
 Total energy in the final basis set =     -915.4029372294
   11    -915.4029494385      5.00e-07  Convergence criterion met
 Total energy in the final basis set =     -915.4029494385
   11    -915.4029578459      5.05e-07  Convergence criterion met
 Total energy in the final basis set =     -915.4029578459
   11    -915.4029606555      5.07e-07  Convergence criterion met
 Total energy in the final basis set =     -915.4029606555
   11    -915.4029618715      5.07e-07  Convergence criterion met
 Total energy in the final basis set =     -915.4029618715

             Standard Nuclear Orientation (Angstroms)
    I     Atom           X                Y                Z
 ----------------------------------------------------------------
    1      S       2.9236254490     0.4978317469    -0.0303832488
    2      S      -3.8224514995     1.1164337467    -0.0447460168
    3      C       0.1910922916     0.0885193915     0.0657741464
    4      C       1.5233587221    -0.7099809877    -0.0545544905
    5      C      -0.9365560640    -0.8611421165     0.0591799106
    6      H       0.2102652873     0.6708230256     0.9912314849
    7      H       0.1212354198     0.7767622430    -0.7823737077
    8      H       1.6267716108    -1.4056510899     0.7814894942
    9      H       1.5415701833    -1.2729820065    -0.9905148769
   10      H      -1.3080749469    -1.3014560682     0.9776573502
   11      H      -1.2872951023    -1.2980043398    -0.8693238520
   12      H       3.9062452385    -0.4179099244    -0.1393430864
   13      H      -3.5815905898     1.5403543793     1.2148008927
 ----------------------------------------------------------------

   11    -915.4029625460      5.07e-07  Convergence criterion met
 Total energy in the final basis set =     -915.4029625460

                    Orbital Energies (a.u.)
 --------------------------------------------------------------

 Alpha MOs
 -- Occupied --
-88.898 -88.847 -10.282 -10.258 -10.238  -7.960  -7.906  -5.925
 -5.921  -5.914  -5.870  -5.869  -5.861  -0.850  -0.774  -0.676
 -0.659  -0.625  -0.523  -0.484  -0.458  -0.434  -0.406  -0.388
 -0.354  -0.351  -0.259  -0.224  -0.210

 Beta MOs
 -- Occupied --
-88.898 -88.847 -10.282 -10.258 -10.238  -7.960  -7.906  -5.925
 -5.921  -5.914  -5.870  -5.869  -5.861  -0.850  -0.774  -0.676
 -0.659  -0.625  -0.523  -0.484  -0.458  -0.434  -0.406  -0.388
 -0.354  -0.351  -0.259  -0.224  -0.210

          Ground-State Mulliken Net Atomic Charges

     Atom                 Charge (a.u.)    Spin (a.u.)
  --------------------------------------------------------
      1 S                    -0.016934      -0.000000
      2 S                    -0.367671       0.000000
      3 C                    -0.221816      -0.000000
      4 C                    -0.340707      -0.000000
      5 C                    -0.136016      -0.000000
      6 H                     0.156047      -0.000000
      7 H                     0.172040      -0.000000
      8 H                     0.149744      -0.000000
      9 H                     0.151515      -0.000000
     10 H                     0.169653      -0.000000
     11 H                     0.172422       0.000000
     12 H                     0.065839       0.000000
     13 H                     0.045883       0.000000
  --------------------------------------------------------
  Sum of atomic charges =    -0.000000

                    Cartesian Multipole Moments
 -----------------------------------------------------------------
    Charge (ESU x 10^10)
                -0.0000
    Dipole Moment (Debye)
         X       4.7368      Y      -3.7478      Z       0.8309
       Tot       6.0970
    Quadrupole Moments (Debye-Ang)
        XX     -66.6202     XY       0.9868     YY     -47.4818
        XZ      -3.3998     YZ       2.2126     ZZ     -46.1350

 Final energy is   -915.402962545960
 **  OPTIMIZATION CONVERGED  **
 Total job time:  45.63s(wall), 525.97s(cpu)
        *  Thank you very much for using Q-Chem.  Have a nice day.  *
