 Q-Chem 5.1, Q-Chem, Inc., Pleasanton, CA (2018)
 Q-Chem 5.1.1 for Intel X86 EM64T Linux

User input:
--------------------------------------------------------------

$comment
potential surface scanner
$end

$rem
JOBTYPE  PES_SCAN
UNRESTRICTED TRUE
SYM_IGNORE  TRUE
GEOM_OPT_MAX_CYCLES 400
SCF_MAX_CYCLES 400
METHOD   B3LYP
BASIS   6-31G**
PDB_PRINT 2
SCF_CONVERGENCE 6
THRESH 14
SCF_PRINT 1
$end
$molecule
0 3
C 0.454691 0.861712 -0.621882
H -0.034583 1.386288 -1.442250
C 0.765686 1.771393 0.554582
H -0.193705 2.089196 0.985319
H 1.282151 1.200534 1.333577
C 1.586728 3.006429 0.161422
H 1.758597 3.647540 1.031439
H 2.561593 2.721906 -0.245822
H 1.066619 3.602281 -0.596381
Se -0.521033 -0.850193 -0.212474
H -1.685703 -2.060574 0.049291
Se 1.927241 -0.245419 -1.311768
H -2.136087 -2.682190 0.188446
$end
$scan
stre 10 11 1.600000 1.601000 0.100000
$end
--------------------------------------------------------------

   13   -4921.6263216038      6.89e-07  Convergence criterion met
 Total energy in the final basis set =    -4921.6263216038
   13   -4921.6124041364      5.21e-07  Convergence criterion met
 Total energy in the final basis set =    -4921.6124041364
   13   -4921.6121118299      5.21e-07  Convergence criterion met
 Total energy in the final basis set =    -4921.6121118299
   13   -4921.6121312433      5.25e-07  Convergence criterion met
 Total energy in the final basis set =    -4921.6121312433
   13   -4921.6121381875      5.29e-07  Convergence criterion met
 Total energy in the final basis set =    -4921.6121381875
   13   -4921.6121503021      5.42e-07  Convergence criterion met
 Total energy in the final basis set =    -4921.6121503021
   13   -4921.6121601251      5.55e-07  Convergence criterion met
 Total energy in the final basis set =    -4921.6121601251
   13   -4921.6121738651      5.75e-07  Convergence criterion met
   13   -4921.6122046574      5.94e-07  Convergence criterion met
 Total energy in the final basis set =    -4921.6122046574
   13   -4921.6122141463      5.90e-07  Convergence criterion met
 Total energy in the final basis set =    -4921.6122141463
   13   -4921.6122197109      5.89e-07  Convergence criterion met
 Total energy in the final basis set =    -4921.6122197109
   13   -4921.6122239758      5.90e-07  Convergence criterion met
 Total energy in the final basis set =    -4921.6122239758
   13   -4921.6122269230      5.93e-07  Convergence criterion met
 Total energy in the final basis set =    -4921.6122269230
   13   -4921.6122283130      5.95e-07  Convergence criterion met
 Total energy in the final basis set =    -4921.6122283130

             Standard Nuclear Orientation (Angstroms)
    I     Atom           X                Y                Z
 ----------------------------------------------------------------
    1      C       0.4594447858     0.8369805963    -0.6213189502
    2      H      -0.0719358684     1.3422152909    -1.4271843029
    3      C       0.7596090401     1.7518961417     0.5535254338
    4      H      -0.2041467828     2.0623878450     0.9793853030
    5      H       1.2777613426     1.1869104839     1.3356849691
    6      C       1.5736215311     2.9928708408     0.1628931572
    7      H       1.7262336942     3.6416152166     1.0308770094
    8      H       2.5571699698     2.7148247935    -0.2274928662
    9      H       1.0598326890     3.5780535892    -0.6073604655
   10      Se     -0.4614162668    -0.9208555188    -0.1925425389
   11      H      -1.6563649127    -1.9570087692     0.0492940100
   12      Se      1.9529635278    -0.2036232252    -1.3503866611
   13      H      -2.1405777497    -2.5773642847     0.1881249025
 ----------------------------------------------------------------

   13   -4921.6122289411      5.94e-07  Convergence criterion met
 Total energy in the final basis set =    -4921.6122289411

                    Orbital Energies (a.u.)
 --------------------------------------------------------------

 Alpha MOs
 -- Occupied --
*******-453.908 -58.115 -58.103 -52.172 -52.172 -52.170 -52.161
-52.159 -52.159 -10.254 -10.205 -10.189  -7.849  -7.838  -5.791
 -5.789  -5.786  -5.784  -5.775  -5.775  -2.124  -2.123  -2.121
 -2.119  -2.118  -2.116  -2.113  -2.113  -2.105  -2.105  -0.824
 -0.753  -0.688  -0.655  -0.582  -0.498  -0.469  -0.434  -0.402
 -0.388  -0.365  -0.345  -0.301  -0.293  -0.276  -0.254  -0.202

 Beta MOs
 -- Occupied --
*******-453.906 -58.113 -58.102 -52.170 -52.169 -52.168 -52.160
-52.157 -52.157 -10.253 -10.205 -10.189  -7.845  -7.835  -5.788
 -5.783  -5.781  -5.781  -5.771  -5.770  -2.121  -2.119  -2.117
 -2.113  -2.113  -2.113  -2.110  -2.110  -2.101  -2.101  -0.818
 -0.741  -0.656  -0.645  -0.573  -0.488  -0.466  -0.432  -0.399
 -0.383  -0.363  -0.337  -0.284  -0.260  -0.230

          Ground-State Mulliken Net Atomic Charges

     Atom                 Charge (a.u.)    Spin (a.u.)
  --------------------------------------------------------
      1 C                    -0.256539      -0.022934
      2 H                     0.152127      -0.000074
      3 C                    -0.173421       0.002043
      4 H                     0.120685       0.002305
      5 H                     0.120769      -0.001271
      6 C                    -0.326173       0.003789
      7 H                     0.113189      -0.000454
      8 H                     0.124307      -0.000582
      9 H                     0.109207       0.000189
     10 Se                    0.038979       0.878917
     11 H                    -0.040374      -0.025769
     12 Se                    0.021134       1.083228
     13 H                    -0.003890       0.080613
  --------------------------------------------------------
  Sum of atomic charges =     0.000000

                    Cartesian Multipole Moments
 -----------------------------------------------------------------
    Charge (ESU x 10^10)
                 0.0000
    Dipole Moment (Debye)
         X      -0.1492      Y       1.9492      Z       0.2613
       Tot       1.9722
    Quadrupole Moments (Debye-Ang)
        XX     -58.5358     XY       0.8483     YY     -56.1739
        XZ       0.9001     YZ      -0.1327     ZZ     -58.2443

 Final energy is   -4921.61222894112
 **  OPTIMIZATION CONVERGED  **
 Total job time:  121.55s(wall), 1421.33s(cpu)
        *  Thank you very much for using Q-Chem.  Have a nice day.  *
