 Q-Chem 5.1, Q-Chem, Inc., Pleasanton, CA (2018)
 Q-Chem 5.1.1 for Intel X86 EM64T Linux

User input:
--------------------------------------------------------------

$comment
potential surface scanner
$end

$rem
JOBTYPE  PES_SCAN
UNRESTRICTED TRUE
SYM_IGNORE  TRUE
GEOM_OPT_MAX_CYCLES 400
SCF_MAX_CYCLES 400
METHOD   B3LYP
BASIS   6-31G**
PDB_PRINT 2
SCF_CONVERGENCE 6
THRESH 14
SCF_PRINT 1
$end
$molecule
0 3
C 0.133824 0.947992 -0.769021
H 0.233493 1.473059 -1.721912
C 0.429443 1.868301 0.411697
H -0.399548 2.586723 0.464399
H 0.386327 1.289397 1.340911
C 1.754436 2.630773 0.306001
H 1.867169 3.313886 1.153469
H 2.612164 1.952130 0.303266
H 1.797001 3.229166 -0.610694
Se -1.574220 -0.008030 -0.711523
H -2.995642 -3.164146 0.277664
Se 1.377623 -0.604347 -0.981516
H 1.210129 -1.066007 0.410761
$end
$scan
stre 10 11 3.500000 3.501000 0.100000
$end
--------------------------------------------------------------

   11   -4921.6076421357      7.69e-07  Convergence criterion met
 Total energy in the final basis set =    -4921.6076421357
   11   -4921.6076286506      8.55e-07  Convergence criterion met
 Total energy in the final basis set =    -4921.6076286506

             Standard Nuclear Orientation (Angstroms)
    I     Atom           X                Y                Z
 ----------------------------------------------------------------
    1      C       0.1307957799     0.9392268996    -0.7660529350
    2      H       0.2276604063     1.4638350058    -1.7194890225
    3      C       0.4261367006     1.8611015175     0.4135283036
    4      H      -0.4050217399     2.5768879490     0.4678297516
    5      H       0.3870891513     1.2825592937     1.3431498991
    6      C       1.7484057366     2.6277816344     0.3042652467
    7      H       1.8613080496     3.3112093710     1.1514566086
    8      H       2.6082647767     1.9518579259     0.2991466015
    9      H       1.7865214661     3.2263368545    -0.6125126013
   10      Se     -1.5750353497    -0.0209237658    -0.7052444135
   11      H      -2.9537310032    -3.0886385425     0.2634270725
   12      Se      1.3775499947    -0.6105598468    -0.9793182558
   13      H       1.2122550310    -1.0717772963     0.4133157444
 ----------------------------------------------------------------

   11   -4921.6076293487      8.56e-07  Convergence criterion met
 Total energy in the final basis set =    -4921.6076293487

                    Orbital Energies (a.u.)
 --------------------------------------------------------------

 Alpha MOs
 -- Occupied --
*******-453.889 -58.121 -58.084 -52.178 -52.177 -52.175 -52.142
-52.141 -52.137 -10.260 -10.207 -10.188  -7.854  -7.817  -5.799
 -5.795  -5.788  -5.764  -5.760  -5.748  -2.132  -2.132  -2.126
 -2.123  -2.122  -2.097  -2.097  -2.087  -2.085  -2.082  -0.824
 -0.749  -0.691  -0.641  -0.582  -0.470  -0.444  -0.423  -0.398
 -0.384  -0.362  -0.351  -0.322  -0.305  -0.276  -0.226  -0.223

 Beta MOs
 -- Occupied --
*******-453.887 -58.121 -58.083 -52.178 -52.177 -52.175 -52.140
-52.139 -52.137 -10.260 -10.207 -10.188  -7.854  -7.815  -5.798
 -5.795  -5.787  -5.760  -5.755  -5.747  -2.132  -2.131  -2.125
 -2.122  -2.120  -2.093  -2.092  -2.085  -2.082  -2.080  -0.822
 -0.745  -0.680  -0.629  -0.576  -0.469  -0.443  -0.420  -0.396
 -0.382  -0.360  -0.346  -0.316  -0.254  -0.213

          Ground-State Mulliken Net Atomic Charges

     Atom                 Charge (a.u.)    Spin (a.u.)
  --------------------------------------------------------
      1 C                    -0.234077      -0.027074
      2 H                     0.155832       0.001925
      3 C                    -0.170826       0.002361
      4 H                     0.122718      -0.000642
      5 H                     0.117857      -0.000272
      6 C                    -0.329176       0.000158
      7 H                     0.112761       0.000311
      8 H                     0.127224       0.000096
      9 H                     0.108485       0.000027
     10 Se                   -0.110493       0.826879
     11 H                     0.002130       0.991407
     12 Se                    0.019178       0.210550
     13 H                     0.078389      -0.005727
  --------------------------------------------------------
  Sum of atomic charges =    -0.000000

                    Cartesian Multipole Moments
 -----------------------------------------------------------------
    Charge (ESU x 10^10)
                -0.0000
    Dipole Moment (Debye)
         X       1.9023      Y       1.3932      Z       0.8235
       Tot       2.4976
    Quadrupole Moments (Debye-Ang)
        XX     -60.6796     XY      -0.5395     YY     -54.5321
        XZ      -0.6534     YZ      -1.7085     ZZ     -58.8295

 Final energy is   -4921.60762934869
 **  OPTIMIZATION CONVERGED  **
 Total job time:  20.83s(wall), 239.85s(cpu)
        *  Thank you very much for using Q-Chem.  Have a nice day.  *
