 Q-Chem 5.1, Q-Chem, Inc., Pleasanton, CA (2018)
 Q-Chem 5.1.1 for Intel X86 EM64T Linux

User input:
--------------------------------------------------------------

$comment
potential surface scanner
$end

$rem
JOBTYPE  PES_SCAN
UNRESTRICTED TRUE
SYM_IGNORE  TRUE
GEOM_OPT_MAX_CYCLES 400
SCF_MAX_CYCLES 400
METHOD   B3LYP
BASIS   6-31G**
PDB_PRINT 2
SCF_CONVERGENCE 6
THRESH 14
SCF_PRINT 1
$end
$molecule
0 3
C 0.022113 1.077526 -0.736825
H 0.193139 1.539626 -1.711585
C 0.440771 2.002982 0.400998
H -0.273700 2.836830 0.403075
H 0.304117 1.486499 1.357645
C 1.865391 2.553777 0.277801
H 2.071017 3.258748 1.089033
H 2.611579 1.755459 0.326927
H 2.005901 3.085792 -0.669518
Se -1.798704 0.363549 -0.646954
H -2.529927 -3.914412 0.077175
Se 1.040139 -0.641229 -0.863356
H 0.880361 -0.956248 0.569084
$end
$scan
stre 10 11 4.300000 4.301000 0.100000
$end
--------------------------------------------------------------

   11   -4921.6074828490      6.76e-07  Convergence criterion met
 Total energy in the final basis set =    -4921.6074828490
   11   -4921.6074796402      6.81e-07  Convergence criterion met
 Total energy in the final basis set =    -4921.6074796402
   11   -4921.6074834451      6.80e-07  Convergence criterion met
 Total energy in the final basis set =    -4921.6074834451

             Standard Nuclear Orientation (Angstroms)
    I     Atom           X                Y                Z
 ----------------------------------------------------------------
    1      C       0.0260565842     1.0634719027    -0.7326981695
    2      H       0.1899142938     1.5261052989    -1.7084155537
    3      C       0.4395126767     1.9938952276     0.4030059055
    4      H      -0.2833476994     2.8204864733     0.4074180891
    5      H       0.3117965691     1.4765427400     1.3604054663
    6      C       1.8581631522     2.5588902930     0.2743136282
    7      H       2.0599556008     3.2661539523     1.0845246856
    8      H       2.6123961397     1.7679510580     0.3207331878
    9      H       1.9896642850     3.0919607718    -0.6736987572
   10      Se     -1.7873522252     0.3322036914    -0.6366368444
   11      H      -2.5513070341    -3.8416824211     0.0598170282
   12      Se      1.0599141622    -0.6462007635    -0.8593130452
   13      H       0.9068304950    -0.9608792243     0.5740443793
 ----------------------------------------------------------------

   11   -4921.6074922439      6.76e-07  Convergence criterion met
 Total energy in the final basis set =    -4921.6074922439

                    Orbital Energies (a.u.)
 --------------------------------------------------------------

 Alpha MOs
 -- Occupied --
*******-453.889 -58.121 -58.083 -52.178 -52.177 -52.176 -52.142
-52.140 -52.137 -10.260 -10.207 -10.189  -7.855  -7.817  -5.799
 -5.796  -5.788  -5.763  -5.759  -5.747  -2.133  -2.132  -2.126
 -2.123  -2.122  -2.097  -2.096  -2.087  -2.084  -2.082  -0.824
 -0.749  -0.691  -0.641  -0.582  -0.470  -0.444  -0.423  -0.399
 -0.384  -0.361  -0.351  -0.321  -0.309  -0.278  -0.225  -0.223

 Beta MOs
 -- Occupied --
*******-453.887 -58.121 -58.082 -52.178 -52.177 -52.175 -52.140
-52.138 -52.136 -10.260 -10.207 -10.189  -7.854  -7.814  -5.799
 -5.795  -5.787  -5.759  -5.755  -5.746  -2.132  -2.131  -2.125
 -2.122  -2.121  -2.093  -2.092  -2.084  -2.081  -2.080  -0.822
 -0.745  -0.681  -0.629  -0.576  -0.470  -0.443  -0.419  -0.397
 -0.382  -0.360  -0.346  -0.316  -0.254  -0.213

          Ground-State Mulliken Net Atomic Charges

     Atom                 Charge (a.u.)    Spin (a.u.)
  --------------------------------------------------------
      1 C                    -0.232622      -0.031445
      2 H                     0.155898       0.001639
      3 C                    -0.172286       0.002357
      4 H                     0.123141      -0.000559
      5 H                     0.117900      -0.000326
      6 C                    -0.328139      -0.000005
      7 H                     0.112591       0.000277
      8 H                     0.126472       0.000070
      9 H                     0.108808       0.000030
     10 Se                   -0.109454       0.823544
     11 H                     0.000745       0.998316
     12 Se                    0.019505       0.212024
     13 H                     0.077441      -0.005923
  --------------------------------------------------------
  Sum of atomic charges =    -0.000000

                    Cartesian Multipole Moments
 -----------------------------------------------------------------
    Charge (ESU x 10^10)
                 0.0000
    Dipole Moment (Debye)
         X       2.1050      Y       1.2005      Z       0.7672
       Tot       2.5418
    Quadrupole Moments (Debye-Ang)
        XX     -61.6214     XY       0.2730     YY     -54.3158
        XZ      -0.7345     YZ      -1.5323     ZZ     -58.4536

 Final energy is   -4921.60749224393
 **  OPTIMIZATION CONVERGED  **
 Total job time:  27.85s(wall), 318.68s(cpu)
        *  Thank you very much for using Q-Chem.  Have a nice day.  *
