 Q-Chem 5.1, Q-Chem, Inc., Pleasanton, CA (2018)
 Q-Chem 5.1.1 for Intel X86 EM64T Linux

User input:
--------------------------------------------------------------

$comment
potential surface scanner
$end

$rem
JOBTYPE  PES_SCAN
UNRESTRICTED TRUE
SYM_IGNORE  TRUE
GEOM_OPT_MAX_CYCLES 400
SCF_MAX_CYCLES 400
METHOD   B3LYP
BASIS   6-31G**
PDB_PRINT 2
SCF_CONVERGENCE 6
THRESH 14
SCF_PRINT 1
$end
$molecule
0 1
C 0.034100 0.572900 -0.443500
H 0.076700 0.782000 -1.512400
C 0.317600 1.856700 0.339100
H -0.478400 2.578000 0.154400
H 0.362900 1.630300 1.404300
C 1.654900 2.445600 -0.114500
H 1.856900 3.360200 0.443000
H 2.450900 1.724300 0.070100
H 1.609600 2.672000 -1.179800
Se -1.749100 -0.095100 0.021000
H -1.828300 -1.374900 -0.867600
Se 1.377500 -0.779800 0.011600
H 1.146900 -0.923300 1.547800
$end
$scan
stre 10 11 4.400000 4.401000 0.100000
$end
--------------------------------------------------------------

    9   -4921.7163210720      6.91e-07  Convergence criterion met
 Total energy in the final basis set =    -4921.7163210720
   10   -4921.7110196310      6.48e-07  Convergence criterion met
 Total energy in the final basis set =    -4921.7110196310
   10   -4921.6980284497      8.85e-07  Convergence criterion met
 Total energy in the final basis set =    -4921.6980284497
   11   -4921.6794307471      1.74e-07  Convergence criterion met
 Total energy in the final basis set =    -4921.6794307471
   11   -4921.6599147134      3.91e-07  Convergence criterion met
 Total energy in the final basis set =    -4921.6599147134
   12   -4921.6423155268      1.79e-07  Convergence criterion met
 Total energy in the final basis set =    -4921.6423155268
   12   -4921.6258430354      2.64e-07  Convergence criterion met
 Total energy in the final basis set =    -4921.6258430354
   12   -4921.6109667695      4.93e-07  Convergence criterion met
   25   -4921.5458963090      5.90e-07  Convergence criterion met
 Total energy in the final basis set =    -4921.5458963090
   29   -4921.5459050104      7.79e-07  Convergence criterion met
 Total energy in the final basis set =    -4921.5459050104
   29   -4921.5459134492      1.85e-07  Convergence criterion met
 Total energy in the final basis set =    -4921.5459134492
   24   -4921.5459200075      9.38e-08  Convergence criterion met
 Total energy in the final basis set =    -4921.5459200075
   29   -4921.5459240316      5.42e-08  Convergence criterion met
 Total energy in the final basis set =    -4921.5459240316
   35   -4921.5459259264      9.37e-07  Convergence criterion met
 Total energy in the final basis set =    -4921.5459259264

             Standard Nuclear Orientation (Angstroms)
    I     Atom           X                Y                Z
 ----------------------------------------------------------------
    1      C       0.0137108159     1.1061069552    -0.7377611945
    2      H       0.1903830288     1.5575172250    -1.7164726400
    3      C       0.4436568201     2.0207507631     0.4011666970
    4      H      -0.2599845191     2.8636780812     0.4004753012
    5      H       0.2974197976     1.5049024353     1.3565225469
    6      C       1.8766961544     2.5496429630     0.2791092889
    7      H       2.0926448012     3.2518433821     1.0897249444
    8      H       2.6108799557     1.7399974827     0.3320012291
    9      H       2.0276501488     3.0778293982    -0.6686214371
   10      Se     -1.7733865930     0.3320079436    -0.6476436342
   11      H      -2.4738423523    -3.9514667211     0.0743013597
   12      Se      0.9737924635    -0.6500176200    -0.8613213260
   13      H       0.8125794785    -0.9538922883     0.5720188647
 ----------------------------------------------------------------

   33   -4921.5459268105      4.30e-07  Convergence criterion met
 Total energy in the final basis set =    -4921.5459268105

                    Orbital Energies (a.u.)
 --------------------------------------------------------------

 Alpha MOs
 -- Occupied --
*******-453.903 -58.141 -58.098 -52.198 -52.197 -52.195 -52.156
-52.155 -52.151 -10.272 -10.216 -10.197  -7.874  -7.830  -5.818
 -5.815  -5.808  -5.775  -5.773  -5.761  -2.152  -2.151  -2.145
 -2.142  -2.142  -2.110  -2.109  -2.100  -2.097  -2.095  -0.836
 -0.762  -0.698  -0.646  -0.591  -0.480  -0.455  -0.431  -0.411
 -0.394  -0.371  -0.360  -0.329  -0.284  -0.229  -0.200

 Beta MOs
 -- Occupied --
*******-453.903 -58.141 -58.098 -52.198 -52.197 -52.195 -52.156
-52.155 -52.151 -10.272 -10.216 -10.197  -7.874  -7.830  -5.818
 -5.815  -5.808  -5.775  -5.773  -5.761  -2.152  -2.151  -2.145
 -2.142  -2.142  -2.110  -2.109  -2.100  -2.097  -2.095  -0.836
 -0.762  -0.698  -0.646  -0.591  -0.480  -0.455  -0.431  -0.411
 -0.394  -0.371  -0.360  -0.329  -0.284  -0.229  -0.200

          Ground-State Mulliken Net Atomic Charges

     Atom                 Charge (a.u.)    Spin (a.u.)
  --------------------------------------------------------
      1 C                    -0.236464      -0.000000
      2 H                     0.161721      -0.000000
      3 C                    -0.173991       0.000000
      4 H                     0.129063      -0.000000
      5 H                     0.121699      -0.000000
      6 C                    -0.330083       0.000000
      7 H                     0.117718       0.000000
      8 H                     0.124730       0.000000
      9 H                     0.111596      -0.000000
     10 Se                   -0.092458      -0.000001
     11 H                    -0.107414       0.000000
     12 Se                    0.082626       0.000001
     13 H                     0.091257      -0.000000
  --------------------------------------------------------
  Sum of atomic charges =    -0.000000

                    Cartesian Multipole Moments
 -----------------------------------------------------------------
    Charge (ESU x 10^10)
                -0.0000
    Dipole Moment (Debye)
         X       3.5219      Y       3.2061      Z       0.4133
       Tot       4.7805
    Quadrupole Moments (Debye-Ang)
        XX     -63.5666     XY      -4.8417     YY     -61.3984
        XZ      -0.7439     YZ      -1.2619     ZZ     -57.8964

 Final energy is   -4921.54592681049
 **  OPTIMIZATION CONVERGED  **
 Total job time:  696.23s(wall), 8146.24s(cpu)
        *  Thank you very much for using Q-Chem.  Have a nice day.  *
