 Q-Chem 5.1, Q-Chem, Inc., Pleasanton, CA (2018)
 Q-Chem 5.1.1 for Intel X86 EM64T Linux

User input:
--------------------------------------------------------------

$comment
potential surface scanner
$end

$rem
JOBTYPE  PES_SCAN
UNRESTRICTED TRUE
SYM_IGNORE  TRUE
GEOM_OPT_MAX_CYCLES 400
SCF_MAX_CYCLES 400
METHOD   B3LYP
BASIS   6-31G**
PDB_PRINT 2
SCF_CONVERGENCE 6
THRESH 14
SCF_PRINT 1
$end
$molecule
0 1
C 0.065878 0.553342 -0.364051
H 0.126693 0.683593 -1.446000
C 0.378099 1.878011 0.352520
H -0.457490 2.568698 0.172171
H 0.415157 1.705996 1.434076
C 1.674623 2.541177 -0.123317
H 1.831709 3.487782 0.403006
H 2.538714 1.898160 0.063826
H 1.636010 2.758784 -1.196370
Se -1.816539 0.091863 0.074046
H -1.822156 -1.669661 -0.873055
Se 1.372945 -0.901605 0.002146
H 0.888555 -1.147240 1.374505
$end
$scan
stre 10 11 2.100000 2.101000 0.100000
$end
--------------------------------------------------------------

   11   -4921.6786740255      1.89e-07  Convergence criterion met
 Total energy in the final basis set =    -4921.6786740255
   11   -4921.6663120873      2.86e-07  Convergence criterion met
 Total energy in the final basis set =    -4921.6663120873
   11   -4921.6660020388      2.90e-07  Convergence criterion met
 Total energy in the final basis set =    -4921.6660020388
   11   -4921.6660033180      2.90e-07  Convergence criterion met
 Total energy in the final basis set =    -4921.6660033180

             Standard Nuclear Orientation (Angstroms)
    I     Atom           X                Y                Z
 ----------------------------------------------------------------
    1      C       0.0639275642     0.5614612303    -0.3606445692
    2      H       0.1234168531     0.6910314439    -1.4427025264
    3      C       0.3820121584     1.8857795383     0.3560238545
    4      H      -0.4513412738     2.5800308993     0.1792212180
    5      H       0.4227650976     1.7124964983     1.4371682941
    6      C       1.6793351149     2.5446651242    -0.1242431790
    7      H       1.8419080379     3.4896485716     0.4033139363
    8      H       2.5413884191     1.8977237935     0.0586529498
    9      H       1.6371368262     2.7642626171    -1.1967022349
   10      Se     -1.8180917473     0.1114137140     0.0825241895
   11      H      -1.8358527490    -1.7454693432    -0.8981228477
   12      Se      1.3673470073    -0.8968576822     0.0046200744
   13      H       0.8782466914    -1.1472864052     1.3743938405
 ----------------------------------------------------------------

   11   -4921.6660037847      2.90e-07  Convergence criterion met
 Total energy in the final basis set =    -4921.6660037847

                    Orbital Energies (a.u.)
 --------------------------------------------------------------

 Alpha MOs
 -- Occupied --
*******-453.901 -58.111 -58.096 -52.169 -52.168 -52.164 -52.154
-52.153 -52.150 -10.259 -10.209 -10.187  -7.843  -7.830  -5.789
 -5.785  -5.775  -5.773  -5.771  -5.762  -2.122  -2.122  -2.113
 -2.109  -2.109  -2.109  -2.107  -2.101  -2.097  -2.096  -0.820
 -0.737  -0.688  -0.636  -0.582  -0.469  -0.438  -0.427  -0.387
 -0.377  -0.360  -0.344  -0.323  -0.308  -0.242  -0.224

 Beta MOs
 -- Occupied --
*******-453.901 -58.111 -58.096 -52.169 -52.168 -52.164 -52.154
-52.153 -52.150 -10.259 -10.209 -10.187  -7.843  -7.830  -5.789
 -5.785  -5.775  -5.773  -5.771  -5.762  -2.122  -2.122  -2.113
 -2.109  -2.109  -2.109  -2.107  -2.101  -2.097  -2.096  -0.820
 -0.737  -0.688  -0.636  -0.582  -0.469  -0.438  -0.427  -0.387
 -0.377  -0.360  -0.344  -0.323  -0.308  -0.242  -0.224

          Ground-State Mulliken Net Atomic Charges

     Atom                 Charge (a.u.)    Spin (a.u.)
  --------------------------------------------------------
      1 C                    -0.227002       0.000000
      2 H                     0.156519      -0.000000
      3 C                    -0.193877       0.000000
      4 H                     0.120392      -0.000000
      5 H                     0.123419      -0.000000
      6 C                    -0.327988      -0.000000
      7 H                     0.111869      -0.000000
      8 H                     0.138571      -0.000000
      9 H                     0.107708      -0.000000
     10 Se                   -0.053062      -0.000000
     11 H                     0.034018       0.000000
     12 Se                   -0.060153       0.000000
     13 H                     0.069585      -0.000000
  --------------------------------------------------------
  Sum of atomic charges =     0.000000

                    Cartesian Multipole Moments
 -----------------------------------------------------------------
    Charge (ESU x 10^10)
                -0.0000
    Dipole Moment (Debye)
         X       0.5321      Y       1.2332      Z       0.0919
       Tot       1.3462
    Quadrupole Moments (Debye-Ang)
        XX     -61.8006     XY       1.6143     YY     -55.3471
        XZ       0.0843     YZ      -0.2011     ZZ     -56.5095

 Final energy is   -4921.66600378468
 **  OPTIMIZATION CONVERGED  **
 Total job time:  34.64s(wall), 403.28s(cpu)
        *  Thank you very much for using Q-Chem.  Have a nice day.  *
