 Q-Chem 5.1, Q-Chem, Inc., Pleasanton, CA (2018)
 Q-Chem 5.1.1 for Intel X86 EM64T Linux

User input:
--------------------------------------------------------------

$comment
potential surface scanner
$end

$rem
JOBTYPE  PES_SCAN
UNRESTRICTED TRUE
SYM_IGNORE  TRUE
GEOM_OPT_MAX_CYCLES 400
SCF_MAX_CYCLES 400
METHOD   B3LYP
BASIS   6-31G**
PDB_PRINT 2
SCF_CONVERGENCE 6
THRESH 14
SCF_PRINT 1
$end
$molecule
0 3
C 0.017587 1.091532 -0.741056
H 0.196600 1.552860 -1.714792
C 0.442194 2.012615 0.398654
H -0.263639 2.853775 0.397911
H 0.296316 1.497384 1.354575
C 1.872699 2.549337 0.281518
H 2.082013 3.252221 1.093677
H 2.610727 1.743703 0.333803
H 2.022497 3.080037 -0.665115
Se -1.810652 0.394959 -0.656433
H -2.508313 -3.986776 0.094340
Se 1.019314 -0.636342 -0.867178
H 0.854856 -0.956407 0.563596
$end
$scan
stre 10 11 4.400000 4.401000 0.100000
$end
--------------------------------------------------------------

   11   -4921.6074732370      6.75e-07  Convergence criterion met
 Total energy in the final basis set =    -4921.6074732370
   11   -4921.6074731169      6.79e-07  Convergence criterion met
 Total energy in the final basis set =    -4921.6074731169
   11   -4921.6074764350      6.79e-07  Convergence criterion met
 Total energy in the final basis set =    -4921.6074764350

             Standard Nuclear Orientation (Angstroms)
    I     Atom           X                Y                Z
 ----------------------------------------------------------------
    1      C       0.0221126753     1.0775256536    -0.7368253860
    2      H       0.1931393978     1.5396261053    -1.7115854307
    3      C       0.4407712527     2.0029817226     0.4009975162
    4      H      -0.2736999548     2.8368295312     0.4030752777
    5      H       0.3041168274     1.4864985914     1.3576454767
    6      C       1.8653914283     2.5537769208     0.2778012849
    7      H       2.0710174105     3.2587482255     1.0890333013
    8      H       2.6115794182     1.7554592951     0.3269268718
    9      H       2.0059014457     3.0857917021    -0.6695181652
   10      Se     -1.7987038602     0.3635490210    -0.6469542154
   11      H      -2.5299268330    -3.9144119703     0.0771748697
   12      Se      1.0401392112    -0.6412287246    -0.8633556723
   13      H       0.8803605807    -0.9562480736     0.5690842713
 ----------------------------------------------------------------

   11   -4921.6074828493      6.76e-07  Convergence criterion met
 Total energy in the final basis set =    -4921.6074828493

                    Orbital Energies (a.u.)
 --------------------------------------------------------------

 Alpha MOs
 -- Occupied --
*******-453.889 -58.121 -58.083 -52.178 -52.177 -52.176 -52.142
-52.140 -52.137 -10.260 -10.207 -10.189  -7.855  -7.817  -5.799
 -5.795  -5.788  -5.763  -5.760  -5.747  -2.133  -2.132  -2.126
 -2.123  -2.122  -2.097  -2.096  -2.087  -2.084  -2.082  -0.824
 -0.749  -0.691  -0.641  -0.582  -0.470  -0.444  -0.423  -0.399
 -0.384  -0.361  -0.351  -0.321  -0.309  -0.278  -0.225  -0.223

 Beta MOs
 -- Occupied --
*******-453.887 -58.121 -58.082 -52.178 -52.177 -52.175 -52.140
-52.138 -52.136 -10.260 -10.207 -10.189  -7.854  -7.814  -5.799
 -5.795  -5.787  -5.759  -5.755  -5.746  -2.132  -2.131  -2.125
 -2.122  -2.121  -2.093  -2.092  -2.084  -2.081  -2.080  -0.822
 -0.745  -0.681  -0.629  -0.576  -0.470  -0.443  -0.419  -0.397
 -0.382  -0.360  -0.346  -0.316  -0.254  -0.213

          Ground-State Mulliken Net Atomic Charges

     Atom                 Charge (a.u.)    Spin (a.u.)
  --------------------------------------------------------
      1 C                    -0.232614      -0.031567
      2 H                     0.155873       0.001635
      3 C                    -0.172313       0.002355
      4 H                     0.123141      -0.000560
      5 H                     0.117941      -0.000328
      6 C                    -0.328103      -0.000013
      7 H                     0.112577       0.000277
      8 H                     0.126470       0.000071
      9 H                     0.108813       0.000031
     10 Se                   -0.109270       0.823665
     11 H                     0.000606       0.998626
     12 Se                    0.019453       0.211726
     13 H                     0.077427      -0.005916
  --------------------------------------------------------
  Sum of atomic charges =     0.000000

                    Cartesian Multipole Moments
 -----------------------------------------------------------------
    Charge (ESU x 10^10)
                 0.0000
    Dipole Moment (Debye)
         X       2.1138      Y       1.1813      Z       0.7743
       Tot       2.5423
    Quadrupole Moments (Debye-Ang)
        XX     -61.6804     XY       0.3517     YY     -54.2926
        XZ      -0.7813     YZ      -1.5139     ZZ     -58.4706

 Final energy is   -4921.60748284929
 **  OPTIMIZATION CONVERGED  **
 Total job time:  27.69s(wall), 319.21s(cpu)
        *  Thank you very much for using Q-Chem.  Have a nice day.  *
