 Q-Chem 5.1, Q-Chem, Inc., Pleasanton, CA (2018)
 Q-Chem 5.1.1 for Intel X86 EM64T Linux

User input:
--------------------------------------------------------------

$comment
potential surface scanner
$end

$rem
JOBTYPE  PES_SCAN
UNRESTRICTED TRUE
SYM_IGNORE  TRUE
GEOM_OPT_MAX_CYCLES 400
SCF_MAX_CYCLES 400
METHOD   B3LYP
BASIS   6-31G**
PDB_PRINT 2
SCF_CONVERGENCE 6
THRESH 14
SCF_PRINT 1
$end
$molecule
0 3
C 0.026057 1.063472 -0.732698
H 0.189914 1.526105 -1.708416
C 0.439513 1.993895 0.403006
H -0.283348 2.820486 0.407418
H 0.311797 1.476543 1.360405
C 1.858163 2.558890 0.274314
H 2.059956 3.266154 1.084525
H 2.612396 1.767951 0.320733
H 1.989664 3.091961 -0.673699
Se -1.787352 0.332204 -0.636637
H -2.551307 -3.841682 0.059817
Se 1.059914 -0.646201 -0.859313
H 0.906830 -0.960879 0.574044
$end
$scan
stre 10 11 4.200000 4.201000 0.100000
$end
--------------------------------------------------------------

   11   -4921.6074922439      6.76e-07  Convergence criterion met
 Total energy in the final basis set =    -4921.6074922439
   11   -4921.6074884068      6.82e-07  Convergence criterion met
 Total energy in the final basis set =    -4921.6074884068
   11   -4921.6074917781      6.82e-07  Convergence criterion met
 Total energy in the final basis set =    -4921.6074917781
   11   -4921.6074998682      6.77e-07  Convergence criterion met
 Total energy in the final basis set =    -4921.6074998682

             Standard Nuclear Orientation (Angstroms)
    I     Atom           X                Y                Z
 ----------------------------------------------------------------
    1      C       0.0300558273     1.0495033234    -0.7283737483
    2      H       0.1873862324     1.5121785862    -1.7051544607
    3      C       0.4380506985     1.9849359949     0.4051560796
    4      H      -0.2930151020     2.8042869698     0.4116761458
    5      H       0.3190657429     1.4669907170     1.3633484203
    6      C       1.8506427455     2.5637001703     0.2708756549
    7      H       2.0484986444     3.2732860052     1.0800084574
    8      H       2.6127513943     1.7801483418     0.3147697518
    9      H       1.9733330500     3.0975837501    -0.6778595301
   10      Se     -1.7756992525     0.3010834397    -0.6262282037
   11      H      -2.5720514158    -3.7680321559     0.0431907471
   12      Se      1.0798745936    -0.6503445928    -0.8558843032
   13      H       0.9333038416    -0.9664215499     0.5779739891
 ----------------------------------------------------------------

   11   -4921.6075004512      6.77e-07  Convergence criterion met
 Total energy in the final basis set =    -4921.6075004512

                    Orbital Energies (a.u.)
 --------------------------------------------------------------

 Alpha MOs
 -- Occupied --
*******-453.888 -58.121 -58.083 -52.178 -52.177 -52.176 -52.142
-52.140 -52.137 -10.260 -10.207 -10.189  -7.855  -7.817  -5.799
 -5.796  -5.788  -5.763  -5.759  -5.747  -2.133  -2.132  -2.126
 -2.123  -2.122  -2.097  -2.096  -2.087  -2.084  -2.082  -0.824
 -0.749  -0.691  -0.641  -0.582  -0.470  -0.444  -0.423  -0.399
 -0.384  -0.361  -0.351  -0.321  -0.308  -0.278  -0.225  -0.223

 Beta MOs
 -- Occupied --
*******-453.887 -58.121 -58.082 -52.178 -52.177 -52.175 -52.140
-52.138 -52.136 -10.260 -10.207 -10.189  -7.854  -7.814  -5.799
 -5.795  -5.787  -5.759  -5.755  -5.746  -2.132  -2.131  -2.125
 -2.122  -2.121  -2.092  -2.092  -2.084  -2.081  -2.079  -0.822
 -0.745  -0.681  -0.629  -0.576  -0.470  -0.443  -0.419  -0.397
 -0.382  -0.360  -0.346  -0.316  -0.254  -0.213

          Ground-State Mulliken Net Atomic Charges

     Atom                 Charge (a.u.)    Spin (a.u.)
  --------------------------------------------------------
      1 C                    -0.232588      -0.031282
      2 H                     0.155882       0.001646
      3 C                    -0.172230       0.002361
      4 H                     0.123140      -0.000558
      5 H                     0.117888      -0.000324
      6 C                    -0.328193       0.000007
      7 H                     0.112592       0.000279
      8 H                     0.126494       0.000070
      9 H                     0.108802       0.000030
     10 Se                   -0.109654       0.823470
     11 H                     0.000907       0.997945
     12 Se                    0.019520       0.212284
     13 H                     0.077439      -0.005928
  --------------------------------------------------------
  Sum of atomic charges =     0.000000

                    Cartesian Multipole Moments
 -----------------------------------------------------------------
    Charge (ESU x 10^10)
                -0.0000
    Dipole Moment (Debye)
         X       2.0955      Y       1.2188      Z       0.7604
       Tot       2.5407
    Quadrupole Moments (Debye-Ang)
        XX     -61.5602     XY       0.1960     YY     -54.3401
        XZ      -0.6901     YZ      -1.5494     ZZ     -58.4395

 Final energy is   -4921.60750045117
 **  OPTIMIZATION CONVERGED  **
 Total job time:  33.79s(wall), 393.67s(cpu)
        *  Thank you very much for using Q-Chem.  Have a nice day.  *
