 Q-Chem 5.1, Q-Chem, Inc., Pleasanton, CA (2018)
 Q-Chem 5.1.1 for Intel X86 EM64T Linux

User input:
--------------------------------------------------------------

$comment
potential surface scanner
$end

$rem
JOBTYPE  PES_SCAN
UNRESTRICTED TRUE
SYM_IGNORE  TRUE
GEOM_OPT_MAX_CYCLES 400
SCF_MAX_CYCLES 400
METHOD   B3LYP
BASIS   6-31G**
PDB_PRINT 2
SCF_CONVERGENCE 6
THRESH 14
SCF_PRINT 1
$end
$molecule
0 1
C 0.312253 1.074563 -1.031598
H -1.176986 -0.265847 -2.529709
C 0.400950 2.065337 0.113757
H 0.083314 3.037205 -0.293588
H -0.354751 1.807578 0.868024
C 1.771432 2.212357 0.776201
H 1.714201 2.951502 1.581380
H 2.105086 1.262505 1.202568
H 2.524790 2.537188 0.056104
Se -1.501216 0.541596 -1.343763
H -0.019207 -1.709477 1.335101
Se 1.693913 0.496174 -2.006716
H -0.721569 -1.561773 1.145743
$end
$scan
stre 10 11 3.900000 3.901000 0.100000
$end
--------------------------------------------------------------

   11   -4921.6893266743      3.36e-07  Convergence criterion met
 Total energy in the final basis set =    -4921.6893266743
   11   -4921.6883476288      3.38e-07  Convergence criterion met
 Total energy in the final basis set =    -4921.6883476288
   11   -4921.6887442373      3.35e-07  Convergence criterion met
 Total energy in the final basis set =    -4921.6887442373
   11   -4921.6894409498      3.27e-07  Convergence criterion met
 Total energy in the final basis set =    -4921.6894409498
   11   -4921.6894544854      3.30e-07  Convergence criterion met
 Total energy in the final basis set =    -4921.6894544854
   11   -4921.6894581353      3.31e-07  Convergence criterion met
 Total energy in the final basis set =    -4921.6894581353
   11   -4921.6894696522      3.39e-07  Convergence criterion met
 Total energy in the final basis set =    -4921.6894696522
   11   -4921.6894721018      3.39e-07  Convergence criterion met
   11   -4921.6894889215      3.30e-07  Convergence criterion met
 Total energy in the final basis set =    -4921.6894889215
   11   -4921.6894914035      3.32e-07  Convergence criterion met
 Total energy in the final basis set =    -4921.6894914035
   11   -4921.6894930757      3.34e-07  Convergence criterion met
 Total energy in the final basis set =    -4921.6894930757
   11   -4921.6894946360      3.36e-07  Convergence criterion met
 Total energy in the final basis set =    -4921.6894946360
   11   -4921.6894961992      3.36e-07  Convergence criterion met
 Total energy in the final basis set =    -4921.6894961992
   11   -4921.6894972835      3.36e-07  Convergence criterion met
 Total energy in the final basis set =    -4921.6894972835

             Standard Nuclear Orientation (Angstroms)
    I     Atom           X                Y                Z
 ----------------------------------------------------------------
    1      C       0.3134598302     1.0906227876    -1.0539790391
    2      H      -1.1713387041    -0.2284216438    -2.5734357820
    3      C       0.3979330976     2.0638277848     0.1066799391
    4      H       0.0785359762     3.0413030048    -0.2853083246
    5      H      -0.3580087108     1.7901144002     0.8550111329
    6      C       1.7675571863     2.2018961349     0.7724227074
    7      H       1.7112345666     2.9361121915     1.5821932571
    8      H       2.0959547493     1.2482880641     1.1943828253
    9      H       2.5235054175     2.5290585857     0.0560850657
   10      Se     -1.4983670369     0.5558805921    -1.3734125916
   11      H      -0.0130268981    -1.7309513410     1.4148063018
   12      Se      1.6968572442     0.5308321033    -2.0365766086
   13      H      -0.7120867181    -1.5796546641     1.2146351166
 ----------------------------------------------------------------

   11   -4921.6894979122      3.35e-07  Convergence criterion met
 Total energy in the final basis set =    -4921.6894979122

                    Orbital Energies (a.u.)
 --------------------------------------------------------------

 Alpha MOs
 -- Occupied --
*******-453.879 -58.123 -58.074 -52.180 -52.179 -52.177 -52.132
-52.131 -52.128 -10.289 -10.219 -10.186  -7.856  -7.808  -5.802
 -5.797  -5.790  -5.753  -5.749  -5.740  -2.135  -2.134  -2.128
 -2.124  -2.124  -2.087  -2.086  -2.079  -2.076  -2.074  -0.831
 -0.753  -0.697  -0.652  -0.527  -0.470  -0.449  -0.430  -0.418
 -0.381  -0.370  -0.364  -0.339  -0.306  -0.241  -0.214

 Beta MOs
 -- Occupied --
*******-453.879 -58.123 -58.074 -52.180 -52.179 -52.177 -52.132
-52.131 -52.128 -10.289 -10.219 -10.186  -7.856  -7.808  -5.802
 -5.797  -5.790  -5.753  -5.749  -5.740  -2.135  -2.134  -2.128
 -2.124  -2.124  -2.087  -2.086  -2.079  -2.076  -2.074  -0.831
 -0.753  -0.697  -0.652  -0.527  -0.470  -0.449  -0.430  -0.418
 -0.381  -0.370  -0.364  -0.339  -0.306  -0.241  -0.214

          Ground-State Mulliken Net Atomic Charges

     Atom                 Charge (a.u.)    Spin (a.u.)
  --------------------------------------------------------
      1 C                    -0.031869       0.000000
      2 H                     0.091770       0.000000
      3 C                    -0.225344       0.000000
      4 H                     0.151207       0.000000
      5 H                     0.129346       0.000000
      6 C                    -0.315352       0.000000
      7 H                     0.104070       0.000000
      8 H                     0.125769       0.000000
      9 H                     0.141969      -0.000000
     10 Se                    0.021081      -0.000000
     11 H                    -0.005146       0.000000
     12 Se                   -0.192608      -0.000000
     13 H                     0.005107      -0.000000
  --------------------------------------------------------
  Sum of atomic charges =    -0.000000

                    Cartesian Multipole Moments
 -----------------------------------------------------------------
    Charge (ESU x 10^10)
                 0.0000
    Dipole Moment (Debye)
         X      -1.3711      Y       0.8419      Z       1.1866
       Tot       1.9992
    Quadrupole Moments (Debye-Ang)
        XX     -59.8509     XY       0.2579     YY     -55.4306
        XZ       3.9944     YZ       2.7266     ZZ     -59.1040

 Final energy is   -4921.68949791221
 **  OPTIMIZATION CONVERGED  **
 Total job time:  123.45s(wall), 1455.85s(cpu)
        *  Thank you very much for using Q-Chem.  Have a nice day.  *
