 Q-Chem 5.1, Q-Chem, Inc., Pleasanton, CA (2018)
 Q-Chem 5.1.1 for Intel X86 EM64T Linux

User input:
--------------------------------------------------------------

$comment
potential surface scanner
$end

$rem
JOBTYPE  PES_SCAN
UNRESTRICTED TRUE
SYM_IGNORE  TRUE
GEOM_OPT_MAX_CYCLES 400
SCF_MAX_CYCLES 400
METHOD   B3LYP
BASIS   6-31G**
PDB_PRINT 2
SCF_CONVERGENCE 6
THRESH 14
SCF_PRINT 1
$end
$molecule
0 3
C 0.420945 1.003947 -0.765552
H 0.030035 1.610063 -1.582805
C 0.704784 1.821240 0.484732
H -0.256579 2.205728 0.851886
H 1.099415 1.164547 1.267341
C 1.666941 2.989916 0.237977
H 1.815448 3.562764 1.158409
H 2.645536 2.634425 -0.098545
H 1.276869 3.674998 -0.522489
Se -0.671703 -0.628138 -0.515616
H -1.675671 -2.405557 0.304647
Se 1.865342 -0.176045 -1.416986
H -2.089169 -3.008985 0.470496
$end
$scan
stre 10 11 2.100000 2.101000 0.100000
$end
--------------------------------------------------------------

   11   -4921.6590007368      6.39e-07  Convergence criterion met
 Total energy in the final basis set =    -4921.6590007368
   11   -4921.6556927114      7.14e-07  Convergence criterion met
 Total energy in the final basis set =    -4921.6556927114
   11   -4921.6556343214      7.26e-07  Convergence criterion met
 Total energy in the final basis set =    -4921.6556343214
   11   -4921.6556421994      7.33e-07  Convergence criterion met
 Total energy in the final basis set =    -4921.6556421994
   11   -4921.6556596999      7.52e-07  Convergence criterion met
 Total energy in the final basis set =    -4921.6556596999
   11   -4921.6556866319      7.79e-07  Convergence criterion met
 Total energy in the final basis set =    -4921.6556866319
   11   -4921.6557514545      8.11e-07  Convergence criterion met
 Total energy in the final basis set =    -4921.6557514545
   11   -4921.6559741546      8.08e-07  Convergence criterion met
 Total energy in the final basis set =    -4921.6559741546
   11   -4921.6560929250      8.23e-07  Convergence criterion met
 Total energy in the final basis set =    -4921.6560929250
   11   -4921.6553702805      7.55e-07  Convergence criterion met
 Total energy in the final basis set =    -4921.6553702805
   11   -4921.6560755634      8.06e-07  Convergence criterion met
 Total energy in the final basis set =    -4921.6560755634
   11   -4921.6558161124      8.14e-07  Convergence criterion met
 Total energy in the final basis set =    -4921.6558161124
   11   -4921.6558108812      8.08e-07  Convergence criterion met
 Total energy in the final basis set =    -4921.6558108812

             Standard Nuclear Orientation (Angstroms)
    I     Atom           X                Y                Z
 ----------------------------------------------------------------
    1      C       0.4215287909     0.9564940233    -0.6373908391
    2      H      -0.0163045147     1.5094813920    -1.4680273138
    3      C       0.7526096066     1.8518583378     0.5464588895
    4      H      -0.1963099454     2.2353656555     0.9458508460
    5      H       1.2088063544     1.2545100145     1.3426530020
    6      C       1.6631191424     3.0276053689     0.1685918080
    7      H       1.8603279827     3.6580760864     1.0406871905
    8      H       2.6251596690     2.6785223089    -0.2182103351
    9      H       1.1989255624     3.6545666848    -0.5996763448
   10      Se     -0.6313238842    -0.6801111457    -0.2612773570
   11      H      -1.7554118036    -2.4192250308     0.0879131447
   12      Se      1.8534129897    -0.2346359814    -1.2956914310
   13      H      -2.1523469502    -3.0436047144     0.2216137403
 ----------------------------------------------------------------

   11   -4921.6558141507      7.79e-07  Convergence criterion met
 Total energy in the final basis set =    -4921.6558141507

                    Orbital Energies (a.u.)
 --------------------------------------------------------------

 Alpha MOs
 -- Occupied --
*******-453.913 -58.111 -58.108 -52.169 -52.168 -52.167 -52.165
-52.164 -52.164 -10.258 -10.206 -10.189  -7.845  -7.842  -5.788
 -5.785  -5.785  -5.783  -5.781  -5.779  -2.121  -2.119  -2.118
 -2.118  -2.116  -2.115  -2.115  -2.115  -2.111  -2.111  -0.828
 -0.754  -0.672  -0.652  -0.580  -0.473  -0.462  -0.435  -0.410
 -0.391  -0.368  -0.353  -0.316  -0.298  -0.276  -0.255  -0.202

 Beta MOs
 -- Occupied --
*******-453.911 -58.110 -58.107 -52.167 -52.165 -52.165 -52.164
-52.161 -52.161 -10.258 -10.206 -10.189  -7.842  -7.838  -5.786
 -5.783  -5.779  -5.778  -5.775  -5.774  -2.118  -2.116  -2.115
 -2.115  -2.112  -2.112  -2.110  -2.110  -2.106  -2.106  -0.821
 -0.744  -0.646  -0.633  -0.573  -0.470  -0.459  -0.433  -0.407
 -0.384  -0.365  -0.346  -0.306  -0.262  -0.231

          Ground-State Mulliken Net Atomic Charges

     Atom                 Charge (a.u.)    Spin (a.u.)
  --------------------------------------------------------
      1 C                    -0.249291      -0.044542
      2 H                     0.152687      -0.001192
      3 C                    -0.173398       0.002417
      4 H                     0.120237       0.001106
      5 H                     0.121227      -0.001507
      6 C                    -0.327873       0.002770
      7 H                     0.114166      -0.000223
      8 H                     0.125660      -0.000449
      9 H                     0.109283       0.000170
     10 Se                    0.026032       1.000720
     11 H                    -0.041912      -0.004477
     12 Se                    0.002219       1.046318
     13 H                     0.020961      -0.001112
  --------------------------------------------------------
  Sum of atomic charges =    -0.000000

                    Cartesian Multipole Moments
 -----------------------------------------------------------------
    Charge (ESU x 10^10)
                -0.0000
    Dipole Moment (Debye)
         X      -0.0190      Y       1.9377      Z       0.3393
       Tot       1.9673
    Quadrupole Moments (Debye-Ang)
        XX     -59.0956     XY       1.0480     YY     -54.9399
        XZ       0.9184     YZ      -0.4195     ZZ     -58.2714

 Final energy is   -4921.65581415069
 **  OPTIMIZATION CONVERGED  **
 Total job time:  93.07s(wall), 1092.43s(cpu)
        *  Thank you very much for using Q-Chem.  Have a nice day.  *
