 Q-Chem 5.1, Q-Chem, Inc., Pleasanton, CA (2018)
 Q-Chem 5.1.1 for Intel X86 EM64T Linux

User input:
--------------------------------------------------------------

$comment
potential surface scanner
$end

$rem
JOBTYPE  PES_SCAN
UNRESTRICTED TRUE
SYM_IGNORE  TRUE
GEOM_OPT_MAX_CYCLES 400
SCF_MAX_CYCLES 400
METHOD   B3LYP
BASIS   6-31G**
PDB_PRINT 2
SCF_CONVERGENCE 6
THRESH 14
SCF_PRINT 1
$end
$molecule
0 3
C 0.228958 0.866519 -1.041660
H 0.541129 1.500369 -1.874952
C 0.167399 1.649892 0.265586
H -0.671789 2.351847 0.170664
H -0.097705 0.968989 1.080997
C 1.445824 2.428737 0.594187
H 1.304992 3.018946 1.504780
H 2.296372 1.760334 0.755688
H 1.711662 3.120264 -0.212924
Se -1.380466 -0.126719 -1.548491
H -1.310899 -1.181159 1.152124
Se 1.550801 -0.629161 -1.099769
H 1.045918 -1.279955 0.127272
$end
$scan
stre 10 11 2.800000 2.801000 0.100000
$end
--------------------------------------------------------------

   12   -4921.6104038763      5.64e-07  Convergence criterion met
 Total energy in the final basis set =    -4921.6104038763
   12   -4921.6107886650      5.23e-07  Convergence criterion met
 Total energy in the final basis set =    -4921.6107886650
   12   -4921.6108226702      5.23e-07  Convergence criterion met
 Total energy in the final basis set =    -4921.6108226702
   12   -4921.6108560535      5.26e-07  Convergence criterion met
 Total energy in the final basis set =    -4921.6108560535
   12   -4921.6108591802      5.27e-07  Convergence criterion met
 Total energy in the final basis set =    -4921.6108591802
   12   -4921.6108655582      5.28e-07  Convergence criterion met
 Total energy in the final basis set =    -4921.6108655582
   12   -4921.6108673059      5.29e-07  Convergence criterion met
 Total energy in the final basis set =    -4921.6108673059
   12   -4921.6108708930      5.30e-07  Convergence criterion met
   11   -4921.6663802057      6.29e-07  Convergence criterion met
 Total energy in the final basis set =    -4921.6663802057
   11   -4921.6663927359      6.31e-07  Convergence criterion met
 Total energy in the final basis set =    -4921.6663927359
   11   -4921.6663994902      6.40e-07  Convergence criterion met
 Total energy in the final basis set =    -4921.6663994902
   11   -4921.6664041449      6.49e-07  Convergence criterion met
 Total energy in the final basis set =    -4921.6664041449
   11   -4921.6664056011      6.52e-07  Convergence criterion met
 Total energy in the final basis set =    -4921.6664056011
   11   -4921.6664069438      6.54e-07  Convergence criterion met
 Total energy in the final basis set =    -4921.6664069438

             Standard Nuclear Orientation (Angstroms)
    I     Atom           X                Y                Z
 ----------------------------------------------------------------
    1      C       0.5596319772     1.0169577974    -1.1036835972
    2      H       0.1504927473     1.7645242123    -1.7832297259
    3      C       0.6665884746     1.5309604708     0.3229794575
    4      H      -0.3538859752     1.7171423750     0.6844317951
    5      H       1.0883954669     0.7498342883     0.9640106868
    6      C       1.4956756440     2.8171080770     0.4312514325
    7      H       1.5084899074     3.1776025896     1.4640655670
    8      H       2.5312562942     2.6504157919     0.1193203859
    9      H       1.0788659292     3.6125101399    -0.1960692014
   10      Se     -0.3532998136    -0.7148884081    -1.3572557133
   11      H      -1.6642720775    -1.8812845869     0.8246866692
   12      Se      2.1694609430     0.1867124137    -1.8898627246
   13      H      -2.0452035174    -2.1786921610     1.3928569683
 ----------------------------------------------------------------

   11   -4921.6664075912      6.54e-07  Convergence criterion met
 Total energy in the final basis set =    -4921.6664075912

                    Orbital Energies (a.u.)
 --------------------------------------------------------------

 Alpha MOs
 -- Occupied --
*******-453.916 -58.110 -58.110 -52.167 -52.167 -52.167 -52.167
-52.166 -52.166 -10.261 -10.207 -10.190  -7.844  -7.844  -5.787
 -5.787  -5.783  -5.783  -5.782  -5.782  -2.120  -2.119  -2.118
 -2.118  -2.117  -2.117  -2.114  -2.114  -2.114  -2.114  -0.830
 -0.755  -0.672  -0.651  -0.580  -0.473  -0.444  -0.429  -0.423
 -0.392  -0.370  -0.356  -0.323  -0.299  -0.276  -0.254  -0.203

 Beta MOs
 -- Occupied --
*******-453.914 -58.109 -58.109 -52.166 -52.166 -52.164 -52.164
-52.164 -52.164 -10.261 -10.207 -10.190  -7.841  -7.840  -5.785
 -5.785  -5.778  -5.778  -5.777  -5.777  -2.117  -2.116  -2.115
 -2.114  -2.114  -2.114  -2.109  -2.109  -2.108  -2.108  -0.823
 -0.745  -0.647  -0.630  -0.573  -0.470  -0.440  -0.427  -0.418
 -0.386  -0.367  -0.351  -0.314  -0.262  -0.231

          Ground-State Mulliken Net Atomic Charges

     Atom                 Charge (a.u.)    Spin (a.u.)
  --------------------------------------------------------
      1 C                    -0.227367      -0.047327
      2 H                     0.155119      -0.001225
      3 C                    -0.173360       0.002693
      4 H                     0.120816       0.000920
      5 H                     0.122537      -0.001502
      6 C                    -0.328198       0.002701
      7 H                     0.114796      -0.000159
      8 H                     0.126823      -0.000422
      9 H                     0.109400       0.000169
     10 Se                   -0.006010       1.010646
     11 H                     0.003216      -0.004726
     12 Se                   -0.006635       1.024143
     13 H                    -0.011138       0.014090
  --------------------------------------------------------
  Sum of atomic charges =    -0.000000

                    Cartesian Multipole Moments
 -----------------------------------------------------------------
    Charge (ESU x 10^10)
                 0.0000
    Dipole Moment (Debye)
         X      -0.2639      Y       1.8475      Z       0.8605
       Tot       2.0550
    Quadrupole Moments (Debye-Ang)
        XX     -59.7856     XY       0.5055     YY     -55.6444
        XZ       1.4094     YZ      -0.8940     ZZ     -59.3259

 Final energy is   -4921.66640759115
 **  OPTIMIZATION CONVERGED  **
 Total job time:  662.03s(wall), 7740.90s(cpu)
        *  Thank you very much for using Q-Chem.  Have a nice day.  *
