 Q-Chem 5.1, Q-Chem, Inc., Pleasanton, CA (2018)
 Q-Chem 5.1.1 for Intel X86 EM64T Linux

User input:
--------------------------------------------------------------

$comment
potential surface scanner
$end

$rem
JOBTYPE  PES_SCAN
UNRESTRICTED TRUE
SYM_IGNORE  TRUE
GEOM_OPT_MAX_CYCLES 400
SCF_MAX_CYCLES 400
METHOD   B3LYP
BASIS   6-31G**
PDB_PRINT 2
SCF_CONVERGENCE 6
THRESH 14
SCF_PRINT 1
$end
$molecule
0 1
C 0.034100 0.572900 -0.443500
H 0.076700 0.782000 -1.512400
C 0.317600 1.856700 0.339100
H -0.478400 2.578000 0.154400
H 0.362900 1.630300 1.404300
C 1.654900 2.445600 -0.114500
H 1.856900 3.360200 0.443000
H 2.450900 1.724300 0.070100
H 1.609600 2.672000 -1.179800
Se -1.749100 -0.095100 0.021000
H -1.828300 -1.374900 -0.867600
Se 1.377500 -0.779800 0.011600
H 1.146900 -0.923300 1.547800
$end
$scan
stre 10 11 1.500000 1.501000 0.100000
$end
--------------------------------------------------------------

    9   -4921.7163210720      6.91e-07  Convergence criterion met
 Total energy in the final basis set =    -4921.7163210720
    9   -4921.7280622765      7.42e-07  Convergence criterion met
 Total energy in the final basis set =    -4921.7280622765
    9   -4921.7290877419      7.38e-07  Convergence criterion met
 Total energy in the final basis set =    -4921.7290877419
    9   -4921.7292611229      7.34e-07  Convergence criterion met
 Total energy in the final basis set =    -4921.7292611229
    9   -4921.7292963191      7.35e-07  Convergence criterion met
 Total energy in the final basis set =    -4921.7292963191
    9   -4921.7293143250      7.37e-07  Convergence criterion met
 Total energy in the final basis set =    -4921.7293143250
    9   -4921.7293407717      7.42e-07  Convergence criterion met
 Total energy in the final basis set =    -4921.7293407717
    9   -4921.7293711509      7.50e-07  Convergence criterion met
 Total energy in the final basis set =    -4921.7293711509
    9   -4921.7293800639      7.55e-07  Convergence criterion met
 Total energy in the final basis set =    -4921.7293800639
    9   -4921.7293867683      7.51e-07  Convergence criterion met
 Total energy in the final basis set =    -4921.7293867683
    9   -4921.7293882823      7.50e-07  Convergence criterion met
 Total energy in the final basis set =    -4921.7293882823

             Standard Nuclear Orientation (Angstroms)
    I     Atom           X                Y                Z
 ----------------------------------------------------------------
    1      C       0.0741447818     0.5120519161    -0.3828720141
    2      H       0.1325956881     0.6423888564    -1.4653024092
    3      C       0.3561606515     1.8415210011     0.3299409939
    4      H      -0.4871809973     2.5144090815     0.1229830000
    5      H       0.3655934669     1.6775975001     1.4138083622
    6      C       1.6538602496     2.5220144688    -0.1134106036
    7      H       1.7725517157     3.4822439877     0.3983503786
    8      H       2.5258667576     1.9034748851     0.1144749669
    9      H       1.6489309385     2.7188637293    -1.1914009230
   10      Se     -1.7981932389    -0.0172516310     0.0487513680
   11      H      -1.7833082121    -1.2866425845    -0.7502636819
   12      Se      1.4107785115    -0.9200349335    -0.0196381206
   13      H       0.9603996872    -1.1417362772     1.3680786827
 ----------------------------------------------------------------

    9   -4921.7293887853      7.50e-07  Convergence criterion met
 Total energy in the final basis set =    -4921.7293887853

                    Orbital Energies (a.u.)
 --------------------------------------------------------------

 Alpha MOs
 -- Occupied --
*******-453.900 -58.097 -58.096 -52.154 -52.153 -52.153 -52.152
-52.151 -52.150 -10.258 -10.205 -10.184  -7.830  -7.829  -5.776
 -5.775  -5.772  -5.771  -5.762  -5.761  -2.109  -2.109  -2.108
 -2.108  -2.100  -2.100  -2.097  -2.097  -2.096  -2.095  -0.818
 -0.739  -0.694  -0.645  -0.582  -0.467  -0.440  -0.435  -0.386
 -0.377  -0.363  -0.352  -0.341  -0.311  -0.242  -0.222

 Beta MOs
 -- Occupied --
*******-453.900 -58.097 -58.096 -52.154 -52.153 -52.153 -52.152
-52.151 -52.150 -10.258 -10.205 -10.184  -7.830  -7.829  -5.776
 -5.775  -5.772  -5.771  -5.762  -5.761  -2.109  -2.109  -2.108
 -2.108  -2.100  -2.100  -2.097  -2.097  -2.096  -2.095  -0.818
 -0.739  -0.694  -0.645  -0.582  -0.467  -0.440  -0.435  -0.386
 -0.377  -0.363  -0.352  -0.341  -0.311  -0.242  -0.222

          Ground-State Mulliken Net Atomic Charges

     Atom                 Charge (a.u.)    Spin (a.u.)
  --------------------------------------------------------
      1 C                    -0.224740      -0.000000
      2 H                     0.152801      -0.000000
      3 C                    -0.186886      -0.000000
      4 H                     0.121172       0.000000
      5 H                     0.119851      -0.000000
      6 C                    -0.328446       0.000000
      7 H                     0.110366      -0.000000
      8 H                     0.137362      -0.000000
      9 H                     0.105842      -0.000000
     10 Se                   -0.071415      -0.000000
     11 H                     0.065339      -0.000000
     12 Se                   -0.070394      -0.000000
     13 H                     0.069147       0.000000
  --------------------------------------------------------
  Sum of atomic charges =    -0.000000

                    Cartesian Multipole Moments
 -----------------------------------------------------------------
    Charge (ESU x 10^10)
                -0.0000
    Dipole Moment (Debye)
         X       0.3567      Y       0.8771      Z      -0.1385
       Tot       0.9569
    Quadrupole Moments (Debye-Ang)
        XX     -61.4972     XY       2.2757     YY     -55.6243
        XZ       0.7674     YZ      -0.0937     ZZ     -55.9316

 Final energy is   -4921.72938878527
 **  OPTIMIZATION CONVERGED  **
 Total job time:  73.51s(wall), 856.54s(cpu)
        *  Thank you very much for using Q-Chem.  Have a nice day.  *
