 Q-Chem 5.1, Q-Chem, Inc., Pleasanton, CA (2018)
 Q-Chem 5.1.1 for Intel X86 EM64T Linux

User input:
--------------------------------------------------------------

$comment
potential surface scanner
$end

$rem
JOBTYPE  PES_SCAN
UNRESTRICTED TRUE
SYM_IGNORE  TRUE
GEOM_OPT_MAX_CYCLES 400
SCF_MAX_CYCLES 400
METHOD   B3LYP
BASIS   6-31G**
PDB_PRINT 2
SCF_CONVERGENCE 6
THRESH 14
SCF_PRINT 1
$end
$molecule
0 1
C 0.068464 0.537174 -0.367261
H 0.126257 0.665966 -1.449663
C 0.369482 1.864698 0.345240
H -0.469401 2.548431 0.154971
H 0.398456 1.697676 1.428061
C 1.666043 2.533564 -0.121524
H 1.809161 3.486992 0.396440
H 2.533667 1.900387 0.081778
H 1.638601 2.739931 -1.197253
Se -1.809985 0.044307 0.069689
H -1.799734 -1.510764 -0.836758
Se 1.389910 -0.907078 -0.002277
H 0.911277 -1.152384 1.372059
$end
$scan
stre 10 11 1.900000 1.901000 0.100000
$end
--------------------------------------------------------------

   10   -4921.7042365711      7.55e-07  Convergence criterion met
 Total energy in the final basis set =    -4921.7042365711
   11   -4921.6919464449      1.54e-07  Convergence criterion met
 Total energy in the final basis set =    -4921.6919464449
   11   -4921.6916281421      1.55e-07  Convergence criterion met
 Total energy in the final basis set =    -4921.6916281421
   11   -4921.6916322116      1.55e-07  Convergence criterion met
 Total energy in the final basis set =    -4921.6916322116
   11   -4921.6916364875      1.56e-07  Convergence criterion met
 Total energy in the final basis set =    -4921.6916364875
   11   -4921.6916385045      1.56e-07  Convergence criterion met
 Total energy in the final basis set =    -4921.6916385045
   11   -4921.6916399474      1.56e-07  Convergence criterion met
 Total energy in the final basis set =    -4921.6916399474

             Standard Nuclear Orientation (Angstroms)
    I     Atom           X                Y                Z
 ----------------------------------------------------------------
    1      C       0.0665881599     0.5483289143    -0.3701446771
    2      H       0.1298523275     0.6793773296    -1.4519609648
    3      C       0.3741298068     1.8720007244     0.3480345318
    4      H      -0.4628533476     2.5603767500     0.1653283293
    5      H       0.4070830917     1.6989302318     1.4296279797
    6      C       1.6709516043     2.5383850494    -0.1214854194
    7      H       1.8238392791     3.4851739600     0.4057944417
    8      H       2.5359681204     1.8975910264     0.0691394959
    9      H       1.6370273403     2.7565302379    -1.1946443854
   10      Se     -1.8168433863     0.0740485754     0.0606137296
   11      H      -1.7988376277    -1.6035024046    -0.8312930787
   12      Se      1.3757483137    -0.9051943214    -0.0034022992
   13      H       0.8895443180    -1.1531460731     1.3678943166
 ----------------------------------------------------------------

   11   -4921.6916403365      1.56e-07  Convergence criterion met
 Total energy in the final basis set =    -4921.6916403365

                    Orbital Energies (a.u.)
 --------------------------------------------------------------

 Alpha MOs
 -- Occupied --
*******-453.901 -58.107 -58.096 -52.165 -52.164 -52.161 -52.154
-52.153 -52.150 -10.258 -10.208 -10.186  -7.839  -7.830  -5.785
 -5.781  -5.775  -5.771  -5.770  -5.761  -2.118  -2.118  -2.109
 -2.109  -2.108  -2.106  -2.104  -2.100  -2.097  -2.095  -0.819
 -0.737  -0.688  -0.638  -0.581  -0.468  -0.437  -0.428  -0.386
 -0.377  -0.360  -0.343  -0.333  -0.311  -0.242  -0.223

 Beta MOs
 -- Occupied --
*******-453.901 -58.107 -58.096 -52.165 -52.164 -52.161 -52.154
-52.153 -52.150 -10.258 -10.208 -10.186  -7.839  -7.830  -5.785
 -5.781  -5.775  -5.771  -5.770  -5.761  -2.118  -2.118  -2.109
 -2.109  -2.108  -2.106  -2.104  -2.100  -2.097  -2.095  -0.819
 -0.737  -0.688  -0.638  -0.581  -0.468  -0.437  -0.428  -0.386
 -0.377  -0.360  -0.343  -0.333  -0.311  -0.242  -0.223

          Ground-State Mulliken Net Atomic Charges

     Atom                 Charge (a.u.)    Spin (a.u.)
  --------------------------------------------------------
      1 C                    -0.226362       0.000000
      2 H                     0.155242      -0.000000
      3 C                    -0.191447      -0.000000
      4 H                     0.119859       0.000000
      5 H                     0.122396       0.000000
      6 C                    -0.328332       0.000000
      7 H                     0.111367       0.000000
      8 H                     0.138061       0.000000
      9 H                     0.107096      -0.000000
     10 Se                   -0.055808       0.000000
     11 H                     0.042377      -0.000000
     12 Se                   -0.064026       0.000000
     13 H                     0.069575      -0.000000
  --------------------------------------------------------
  Sum of atomic charges =    -0.000000

                    Cartesian Multipole Moments
 -----------------------------------------------------------------
    Charge (ESU x 10^10)
                -0.0000
    Dipole Moment (Debye)
         X       0.4639      Y       1.1080      Z       0.0369
       Tot       1.2018
    Quadrupole Moments (Debye-Ang)
        XX     -61.7131     XY       1.8131     YY     -55.3844
        XZ       0.2206     YZ      -0.2076     ZZ     -56.4449

 Final energy is   -4921.69164033647
 **  OPTIMIZATION CONVERGED  **
 Total job time:  54.09s(wall), 634.80s(cpu)
        *  Thank you very much for using Q-Chem.  Have a nice day.  *
