 Q-Chem 5.1, Q-Chem, Inc., Pleasanton, CA (2018)
 Q-Chem 5.1.1 for Intel X86 EM64T Linux

User input:
--------------------------------------------------------------

$comment
potential surface scanner
$end

$rem
JOBTYPE  PES_SCAN
UNRESTRICTED TRUE
SYM_IGNORE  TRUE
GEOM_OPT_MAX_CYCLES 400
SCF_MAX_CYCLES 400
METHOD   B3LYP
BASIS   6-31G**
PDB_PRINT 2
SCF_CONVERGENCE 6
THRESH 14
SCF_PRINT 1
$end
$molecule
0 1
C 0.066588 0.548329 -0.370145
H 0.129852 0.679377 -1.451961
C 0.374130 1.872001 0.348035
H -0.462853 2.560377 0.165328
H 0.407083 1.698930 1.429628
C 1.670952 2.538385 -0.121485
H 1.823839 3.485174 0.405794
H 2.535968 1.897591 0.069139
H 1.637027 2.756530 -1.194644
Se -1.816843 0.074049 0.060614
H -1.798838 -1.603502 -0.831293
Se 1.375748 -0.905194 -0.003402
H 0.889544 -1.153146 1.367894
$end
$scan
stre 10 11 2.000000 2.001000 0.100000
$end
--------------------------------------------------------------

   11   -4921.6916403235      1.56e-07  Convergence criterion met
 Total energy in the final basis set =    -4921.6916403235
   11   -4921.6789957301      1.88e-07  Convergence criterion met
 Total energy in the final basis set =    -4921.6789957301
   11   -4921.6786723820      1.89e-07  Convergence criterion met
 Total energy in the final basis set =    -4921.6786723820
   11   -4921.6786736110      1.89e-07  Convergence criterion met
 Total energy in the final basis set =    -4921.6786736110

             Standard Nuclear Orientation (Angstroms)
    I     Atom           X                Y                Z
 ----------------------------------------------------------------
    1      C       0.0658784263     0.5533420943    -0.3640508699
    2      H       0.1266933571     0.6835933183    -1.4459999812
    3      C       0.3780991683     1.8780114345     0.3525197814
    4      H      -0.4574904261     2.5686982617     0.1721706608
    5      H       0.4151571328     1.7059959173     1.4340756757
    6      C       1.6746229198     2.5411765990    -0.1233169268
    7      H       1.8317091746     3.4877820159     0.4030060484
    8      H       2.5387136050     1.8981599069     0.0638256693
    9      H       1.6360096472     2.7587840428    -1.1963703224
   10      Se     -1.8165392408     0.0918629581     0.0740463347
   11      H      -1.8221564427    -1.6696605479    -0.8730554542
   12      Se      1.3729450322    -0.9016053879     0.0021461831
   13      H       0.8885546463    -1.1472396131     1.3745052011
 ----------------------------------------------------------------

   11   -4921.6786740337      1.89e-07  Convergence criterion met
 Total energy in the final basis set =    -4921.6786740337

                    Orbital Energies (a.u.)
 --------------------------------------------------------------

 Alpha MOs
 -- Occupied --
*******-453.901 -58.109 -58.096 -52.167 -52.166 -52.163 -52.154
-52.153 -52.150 -10.259 -10.208 -10.186  -7.841  -7.830  -5.787
 -5.783  -5.775  -5.772  -5.771  -5.762  -2.120  -2.120  -2.111
 -2.109  -2.108  -2.108  -2.106  -2.100  -2.097  -2.096  -0.819
 -0.737  -0.688  -0.637  -0.581  -0.469  -0.438  -0.427  -0.387
 -0.377  -0.360  -0.344  -0.327  -0.310  -0.242  -0.223

 Beta MOs
 -- Occupied --
*******-453.901 -58.109 -58.096 -52.167 -52.166 -52.163 -52.154
-52.153 -52.150 -10.259 -10.208 -10.186  -7.841  -7.830  -5.787
 -5.783  -5.775  -5.772  -5.771  -5.762  -2.120  -2.120  -2.111
 -2.109  -2.108  -2.108  -2.106  -2.100  -2.097  -2.096  -0.819
 -0.737  -0.688  -0.637  -0.581  -0.469  -0.438  -0.427  -0.387
 -0.377  -0.360  -0.344  -0.327  -0.310  -0.242  -0.223

          Ground-State Mulliken Net Atomic Charges

     Atom                 Charge (a.u.)    Spin (a.u.)
  --------------------------------------------------------
      1 C                    -0.226573       0.000000
      2 H                     0.155894      -0.000000
      3 C                    -0.192908      -0.000000
      4 H                     0.120232       0.000000
      5 H                     0.122811      -0.000000
      6 C                    -0.328105      -0.000000
      7 H                     0.111596      -0.000000
      8 H                     0.138339       0.000000
      9 H                     0.107403       0.000000
     10 Se                   -0.053939       0.000000
     11 H                     0.037680       0.000000
     12 Se                   -0.061884       0.000000
     13 H                     0.069454      -0.000000
  --------------------------------------------------------
  Sum of atomic charges =     0.000000

                    Cartesian Multipole Moments
 -----------------------------------------------------------------
    Charge (ESU x 10^10)
                 0.0000
    Dipole Moment (Debye)
         X       0.4961      Y       1.1757      Z       0.0632
       Tot       1.2776
    Quadrupole Moments (Debye-Ang)
        XX     -61.7560     XY       1.7095     YY     -55.4021
        XZ       0.1647     YZ      -0.1841     ZZ     -56.4495

 Final energy is   -4921.67867403366
 **  OPTIMIZATION CONVERGED  **
 Total job time:  34.35s(wall), 401.31s(cpu)
        *  Thank you very much for using Q-Chem.  Have a nice day.  *
