 Q-Chem 5.1, Q-Chem, Inc., Pleasanton, CA (2018)
 Q-Chem 5.1.1 for Intel X86 EM64T Linux

User input:
--------------------------------------------------------------

$comment
potential surface scanner
$end

$rem
JOBTYPE  PES_SCAN
UNRESTRICTED TRUE
SYM_IGNORE  TRUE
GEOM_OPT_MAX_CYCLES 400
SCF_MAX_CYCLES 400
METHOD   B3LYP
BASIS   6-31G**
PDB_PRINT 2
SCF_CONVERGENCE 6
THRESH 14
SCF_PRINT 1
$end
$molecule
0 1
C 0.055779 0.599894 -0.333469
H 0.106392 0.728463 -1.416017
C 0.403614 1.924591 0.377910
H -0.420541 2.632678 0.215540
H 0.463967 1.751350 1.457667
C 1.701872 2.560954 -0.132312
H 1.890032 3.503157 0.391615
H 2.556075 1.899211 0.033420
H 1.639274 2.780515 -1.203610
Se -1.819816 0.192075 0.134887
H -1.928972 -2.111868 -1.065084
Se 1.344653 -0.873403 0.025887
H 0.839872 -1.138712 1.387070
$end
$scan
stre 10 11 2.700000 2.701000 0.100000
$end
--------------------------------------------------------------

   12   -4921.6112357191      4.07e-07  Convergence criterion met
 Total energy in the final basis set =    -4921.6112357191
   12   -4921.6026834947      6.88e-07  Convergence criterion met
 Total energy in the final basis set =    -4921.6026834947
   12   -4921.6025110529      6.93e-07  Convergence criterion met
 Total energy in the final basis set =    -4921.6025110529

             Standard Nuclear Orientation (Angstroms)
    I     Atom           X                Y                Z
 ----------------------------------------------------------------
    1      C       0.0543273789     0.6081466333    -0.3288609118
    2      H       0.1034681034     0.7368651773    -1.4114814591
    3      C       0.4082255279     1.9324553435     0.3819492740
    4      H      -0.4140376570     2.6432685151     0.2223908708
    5      H       0.4718048890     1.7585792428     1.4613345889
    6      C       1.7067857553     2.5645572323    -0.1332157003
    7      H       1.8993966233     3.5060752502     0.3903317375
    8      H       2.5594641893     1.9001327655     0.0294976197
    9      H       1.6408207602     2.7844841419    -1.2042077462
   10      Se     -1.8198222918     0.2070694135     0.1437660922
   11      H      -1.9513136028    -2.1879972031    -1.0957359481
   12      Se      1.3401256759    -0.8686084698     0.0289512569
   13      H       0.8329556486    -1.1361230425     1.3887843255
 ----------------------------------------------------------------

   12   -4921.6025116642      6.83e-07  Convergence criterion met
 Total energy in the final basis set =    -4921.6025116642

                    Orbital Energies (a.u.)
 --------------------------------------------------------------

 Alpha MOs
 -- Occupied --
*******-453.902 -58.117 -58.097 -52.175 -52.173 -52.170 -52.155
-52.154 -52.151 -10.261 -10.213 -10.189  -7.848  -7.831  -5.795
 -5.790  -5.778  -5.776  -5.772  -5.763  -2.128  -2.128  -2.118
 -2.115  -2.112  -2.110  -2.110  -2.101  -2.098  -2.097  -0.822
 -0.739  -0.690  -0.637  -0.583  -0.472  -0.439  -0.426  -0.388
 -0.379  -0.362  -0.347  -0.319  -0.278  -0.243  -0.225

 Beta MOs
 -- Occupied --
*******-453.902 -58.117 -58.097 -52.175 -52.173 -52.170 -52.155
-52.154 -52.151 -10.261 -10.213 -10.189  -7.848  -7.831  -5.795
 -5.790  -5.778  -5.776  -5.772  -5.763  -2.128  -2.128  -2.118
 -2.115  -2.112  -2.110  -2.110  -2.101  -2.098  -2.097  -0.822
 -0.739  -0.690  -0.637  -0.583  -0.472  -0.439  -0.426  -0.388
 -0.379  -0.362  -0.347  -0.319  -0.278  -0.243  -0.225

          Ground-State Mulliken Net Atomic Charges

     Atom                 Charge (a.u.)    Spin (a.u.)
  --------------------------------------------------------
      1 C                    -0.231782      -0.000000
      2 H                     0.159434       0.000000
      3 C                    -0.196376      -0.000000
      4 H                     0.122094       0.000000
      5 H                     0.126205       0.000000
      6 C                    -0.327655      -0.000000
      7 H                     0.113475       0.000000
      8 H                     0.139710      -0.000000
      9 H                     0.109212       0.000000
     10 Se                   -0.048894      -0.000000
     11 H                     0.017672       0.000000
     12 Se                   -0.053405       0.000000
     13 H                     0.070310      -0.000000
  --------------------------------------------------------
  Sum of atomic charges =    -0.000000

                    Cartesian Multipole Moments
 -----------------------------------------------------------------
    Charge (ESU x 10^10)
                -0.0000
    Dipole Moment (Debye)
         X       0.7237      Y       1.5046      Z       0.1953
       Tot       1.6810
    Quadrupole Moments (Debye-Ang)
        XX     -61.9571     XY       1.2827     YY     -55.0930
        XZ      -0.1958     YZ      -0.2442     ZZ     -56.6202

 Final energy is   -4921.60251166425
 **  OPTIMIZATION CONVERGED  **
 Total job time:  32.76s(wall), 343.73s(cpu)
        *  Thank you very much for using Q-Chem.  Have a nice day.  *
