 Q-Chem 5.1, Q-Chem, Inc., Pleasanton, CA (2018)
 Q-Chem 5.1.1 for Intel X86 EM64T Linux

User input:
--------------------------------------------------------------

$comment
potential surface scanner
$end

$rem
JOBTYPE  PES_SCAN
UNRESTRICTED TRUE
SYM_IGNORE  TRUE
GEOM_OPT_MAX_CYCLES 400
SCF_MAX_CYCLES 400
METHOD   B3LYP
BASIS   6-31G**
PDB_PRINT 2
SCF_CONVERGENCE 6
THRESH 14
SCF_PRINT 1
$end
$molecule
0 1
C 0.310279 1.095391 -1.062559
H -1.171803 -0.190862 -2.610667
C 0.395068 2.060674 0.103806
H 0.072180 3.039869 -0.281320
H -0.360714 1.782170 0.850921
C 1.764244 2.198198 0.769792
H 1.707234 2.931440 1.580222
H 2.094033 1.244128 1.189748
H 2.520128 2.526219 0.053590
Se -1.505340 0.586318 -1.407650
H 0.002324 -1.752656 1.465701
Se 1.696461 0.521144 -2.032750
H -0.691886 -1.593126 1.254668
$end
$scan
stre 10 11 4.100000 4.101000 0.100000
$end
--------------------------------------------------------------

   11   -4921.6896079024      3.35e-07  Convergence criterion met
 Total energy in the final basis set =    -4921.6896079024
   11   -4921.6884873283      3.39e-07  Convergence criterion met
 Total energy in the final basis set =    -4921.6884873283
   11   -4921.6888566989      3.37e-07  Convergence criterion met
 Total energy in the final basis set =    -4921.6888566989
   11   -4921.6896434250      3.29e-07  Convergence criterion met
 Total energy in the final basis set =    -4921.6896434250
   11   -4921.6896580341      3.31e-07  Convergence criterion met
 Total energy in the final basis set =    -4921.6896580341
   11   -4921.6896604672      3.32e-07  Convergence criterion met
 Total energy in the final basis set =    -4921.6896604672
   11   -4921.6896698954      3.38e-07  Convergence criterion met
 Total energy in the final basis set =    -4921.6896698954
   11   -4921.6896717332      3.38e-07  Convergence criterion met
   11   -4921.6896890804      3.31e-07  Convergence criterion met
 Total energy in the final basis set =    -4921.6896890804
   11   -4921.6896916517      3.32e-07  Convergence criterion met
 Total energy in the final basis set =    -4921.6896916517
   11   -4921.6896932002      3.34e-07  Convergence criterion met
 Total energy in the final basis set =    -4921.6896932002
   11   -4921.6896945497      3.35e-07  Convergence criterion met
 Total energy in the final basis set =    -4921.6896945497
   11   -4921.6896960179      3.36e-07  Convergence criterion met
 Total energy in the final basis set =    -4921.6896960179
   11   -4921.6896971371      3.36e-07  Convergence criterion met
 Total energy in the final basis set =    -4921.6896971371

             Standard Nuclear Orientation (Angstroms)
    I     Atom           X                Y                Z
 ----------------------------------------------------------------
    1      C       0.3139874904     1.1143604539    -1.0864096202
    2      H      -1.1652097513    -0.1658311812    -2.6436273657
    3      C       0.3947016441     2.0633732300     0.0942845780
    4      H       0.0718187329     3.0478560775    -0.2767804832
    5      H      -0.3607531452     1.7707957771     0.8359742858
    6      C       1.7631000745     2.1924889303     0.7644306807
    7      H       1.7024267683     2.9087820849     1.5898063014
    8      H       2.0951506484     1.2314852769     1.1663756614
    9      H       2.5185798102     2.5386044157     0.0565347722
   10      Se     -1.4988674163     0.5951735509    -1.4303239795
   11      H      -0.0094601442    -1.7924383691     1.5514499835
   12      Se      1.7011897073     0.5643940066    -2.0691656600
   13      H      -0.6944564190    -1.6201372535     1.3209528454
 ----------------------------------------------------------------

   11   -4921.6896978290      3.35e-07  Convergence criterion met
 Total energy in the final basis set =    -4921.6896978290

                    Orbital Energies (a.u.)
 --------------------------------------------------------------

 Alpha MOs
 -- Occupied --
*******-453.879 -58.123 -58.074 -52.180 -52.179 -52.177 -52.132
-52.131 -52.128 -10.289 -10.219 -10.186  -7.856  -7.808  -5.802
 -5.797  -5.790  -5.753  -5.749  -5.740  -2.135  -2.134  -2.128
 -2.124  -2.124  -2.087  -2.086  -2.079  -2.076  -2.074  -0.831
 -0.753  -0.697  -0.652  -0.527  -0.470  -0.449  -0.431  -0.418
 -0.381  -0.370  -0.364  -0.339  -0.306  -0.241  -0.214

 Beta MOs
 -- Occupied --
*******-453.879 -58.123 -58.074 -52.180 -52.179 -52.177 -52.132
-52.131 -52.128 -10.289 -10.219 -10.186  -7.856  -7.808  -5.802
 -5.797  -5.790  -5.753  -5.749  -5.740  -2.135  -2.134  -2.128
 -2.124  -2.124  -2.087  -2.086  -2.079  -2.076  -2.074  -0.831
 -0.753  -0.697  -0.652  -0.527  -0.470  -0.449  -0.431  -0.418
 -0.381  -0.370  -0.364  -0.339  -0.306  -0.241  -0.214

          Ground-State Mulliken Net Atomic Charges

     Atom                 Charge (a.u.)    Spin (a.u.)
  --------------------------------------------------------
      1 C                    -0.032313       0.000000
      2 H                     0.091777      -0.000000
      3 C                    -0.225426      -0.000000
      4 H                     0.151038      -0.000000
      5 H                     0.129858      -0.000000
      6 C                    -0.315242       0.000000
      7 H                     0.103997      -0.000000
      8 H                     0.126081      -0.000000
      9 H                     0.141684      -0.000000
     10 Se                    0.020544       0.000000
     11 H                    -0.004647      -0.000000
     12 Se                   -0.192144      -0.000000
     13 H                     0.004791       0.000000
  --------------------------------------------------------
  Sum of atomic charges =    -0.000000

                    Cartesian Multipole Moments
 -----------------------------------------------------------------
    Charge (ESU x 10^10)
                 0.0000
    Dipole Moment (Debye)
         X      -1.3679      Y       0.8295      Z       1.1937
       Tot       1.9960
    Quadrupole Moments (Debye-Ang)
        XX     -59.8848     XY       0.1466     YY     -55.5196
        XZ       4.0806     YZ       2.7167     ZZ     -59.0396

 Final energy is   -4921.68969782900
 **  OPTIMIZATION CONVERGED  **
 Total job time:  123.33s(wall), 1448.81s(cpu)
        *  Thank you very much for using Q-Chem.  Have a nice day.  *
