 Q-Chem 5.1, Q-Chem, Inc., Pleasanton, CA (2018)
 Q-Chem 5.1.1 for Intel X86 EM64T Linux

User input:
--------------------------------------------------------------

$comment
potential surface scanner
$end

$rem
JOBTYPE  PES_SCAN
UNRESTRICTED TRUE
SYM_IGNORE  TRUE
GEOM_OPT_MAX_CYCLES 400
SCF_MAX_CYCLES 400
METHOD   B3LYP
BASIS   6-31G**
PDB_PRINT 2
SCF_CONVERGENCE 6
THRESH 14
SCF_PRINT 1
$end
$molecule
0 3
C 0.540696 0.996840 -1.053021
H 0.121690 1.727444 -1.744898
C 0.679260 1.550268 0.356129
H -0.333325 1.744834 0.735007
H 1.117160 0.787680 1.008473
C 1.508790 2.839477 0.407363
H 1.559043 3.222692 1.430873
H 2.532691 2.667482 0.061268
H 1.067830 3.620505 -0.221539
Se -0.387397 -0.736680 -1.238005
H -1.660041 -1.869450 0.725973
Se 2.129472 0.134374 -1.847021
H -2.043674 -2.236562 1.252896
$end
$scan
stre 10 11 2.500000 2.501000 0.100000
$end
--------------------------------------------------------------

   11   -4921.6650883473      7.03e-07  Convergence criterion met
 Total energy in the final basis set =    -4921.6650883473
   11   -4921.6640253133      7.84e-07  Convergence criterion met
 Total energy in the final basis set =    -4921.6640253133
   11   -4921.6640051133      7.87e-07  Convergence criterion met
 Total energy in the final basis set =    -4921.6640051133

             Standard Nuclear Orientation (Angstroms)
    I     Atom           X                Y                Z
 ----------------------------------------------------------------
    1      C       0.5287710949     0.9855937696    -1.0398005994
    2      H       0.1073335652     1.7126425385    -1.7339865327
    3      C       0.6737161053     1.5470843103     0.3655334777
    4      H      -0.3369490997     1.7463398547     0.7470895870
    5      H       1.1125113157     0.7875397778     1.0208259090
    6      C       1.5065361959     2.8345598484     0.4052350293
    7      H       1.5606834454     3.2251529012     1.4257411957
    8      H       2.5289920638     2.6574420632     0.0574161293
    9      H       1.0657832326     3.6120840004    -0.2281656308
   10      Se     -0.4029558739    -0.7482576464    -1.2108764532
   11      H      -1.6213063917    -1.8306483673     0.6849221786
   12      Se      2.1132064039     0.1170714250    -1.8352324102
   13      H      -2.0041270575    -2.1977004753     1.2147961197
 ----------------------------------------------------------------

   11   -4921.6640059015      7.89e-07  Convergence criterion met
 Total energy in the final basis set =    -4921.6640059015

                    Orbital Energies (a.u.)
 --------------------------------------------------------------

 Alpha MOs
 -- Occupied --
*******-453.916 -58.110 -58.110 -52.167 -52.167 -52.167 -52.166
-52.166 -52.166 -10.261 -10.207 -10.190  -7.844  -7.844  -5.787
 -5.787  -5.784  -5.783  -5.782  -5.782  -2.120  -2.119  -2.119
 -2.118  -2.117  -2.117  -2.114  -2.114  -2.114  -2.113  -0.830
 -0.755  -0.672  -0.652  -0.580  -0.473  -0.447  -0.431  -0.421
 -0.392  -0.370  -0.356  -0.323  -0.298  -0.275  -0.254  -0.202

 Beta MOs
 -- Occupied --
*******-453.913 -58.109 -58.109 -52.166 -52.166 -52.164 -52.164
-52.164 -52.163 -10.262 -10.207 -10.190  -7.841  -7.840  -5.785
 -5.784  -5.778  -5.777  -5.777  -5.776  -2.117  -2.116  -2.115
 -2.114  -2.114  -2.113  -2.109  -2.109  -2.108  -2.108  -0.823
 -0.745  -0.647  -0.631  -0.573  -0.470  -0.442  -0.428  -0.416
 -0.386  -0.367  -0.351  -0.313  -0.262  -0.230

          Ground-State Mulliken Net Atomic Charges

     Atom                 Charge (a.u.)    Spin (a.u.)
  --------------------------------------------------------
      1 C                    -0.227548      -0.046434
      2 H                     0.155070      -0.001252
      3 C                    -0.173061       0.002684
      4 H                     0.120607       0.000899
      5 H                     0.122519      -0.001490
      6 C                    -0.328411       0.002687
      7 H                     0.114793      -0.000193
      8 H                     0.126949      -0.000429
      9 H                     0.109413       0.000161
     10 Se                    0.001717       1.004122
     11 H                    -0.007464      -0.008845
     12 Se                   -0.007767       1.021259
     13 H                    -0.006816       0.026832
  --------------------------------------------------------
  Sum of atomic charges =     0.000000

                    Cartesian Multipole Moments
 -----------------------------------------------------------------
    Charge (ESU x 10^10)
                 0.0000
    Dipole Moment (Debye)
         X      -0.2436      Y       1.8824      Z       0.8152
       Tot       2.0657
    Quadrupole Moments (Debye-Ang)
        XX     -59.7731     XY       0.5314     YY     -55.6771
        XZ       1.3935     YZ      -0.8472     ZZ     -59.2355

 Final energy is   -4921.66400590149
 **  OPTIMIZATION CONVERGED  **
 Total job time:  26.65s(wall), 309.07s(cpu)
        *  Thank you very much for using Q-Chem.  Have a nice day.  *
