 Q-Chem 5.1, Q-Chem, Inc., Pleasanton, CA (2018)
 Q-Chem 5.1.1 for Intel X86 EM64T Linux

User input:
--------------------------------------------------------------

$comment
potential surface scanner
$end

$rem
JOBTYPE  PES_SCAN
UNRESTRICTED TRUE
SYM_IGNORE  TRUE
GEOM_OPT_MAX_CYCLES 400
SCF_MAX_CYCLES 400
METHOD   B3LYP
BASIS   6-31G**
PDB_PRINT 2
SCF_CONVERGENCE 6
THRESH 14
SCF_PRINT 1
$end
$molecule
0 3
C 0.528771 0.985594 -1.039801
H 0.107334 1.712643 -1.733987
C 0.673716 1.547084 0.365533
H -0.336949 1.746340 0.747090
H 1.112511 0.787540 1.020826
C 1.506536 2.834560 0.405235
H 1.560683 3.225153 1.425741
H 2.528992 2.657442 0.057416
H 1.065783 3.612084 -0.228166
Se -0.402956 -0.748258 -1.210876
H -1.621306 -1.830648 0.684922
Se 2.113206 0.117071 -1.835232
H -2.004127 -2.197700 1.214796
$end
$scan
stre 10 11 2.400000 2.401000 0.100000
$end
--------------------------------------------------------------

   11   -4921.6640058877      7.89e-07  Convergence criterion met
 Total energy in the final basis set =    -4921.6640058877
   11   -4921.6624833927      9.67e-07  Convergence criterion met
 Total energy in the final basis set =    -4921.6624833927
   11   -4921.6624559044      9.76e-07  Convergence criterion met
 Total energy in the final basis set =    -4921.6624559044

             Standard Nuclear Orientation (Angstroms)
    I     Atom           X                Y                Z
 ----------------------------------------------------------------
    1      C       0.5175739605     0.9742023350    -1.0270701173
    2      H       0.0930085990     1.6972503387    -1.7235581020
    3      C       0.6688658270     1.5436458196     0.3744447852
    4      H      -0.3398644090     1.7467102459     0.7590811265
    5      H       1.1093629398     0.7871627635     1.0321436696
    6      C       1.5039182652     2.8299179338     0.4032481608
    7      H       1.5622242946     3.2268339881     1.4210801065
    8      H       2.5248485080     2.6488353689     0.0529874884
    9      H       1.0622874094     3.6041999692    -0.2335180640
   10      Se     -0.4175876224    -0.7600296136    -1.1825158333
   11      H      -1.5837540773    -1.7912573006     0.6441273664
   12      Se      2.0976108225     0.0998339827    -1.8239990648
   13      H      -1.9663005172    -2.1584008311     1.1770454779
 ----------------------------------------------------------------

   11   -4921.6624568890      9.80e-07  Convergence criterion met
 Total energy in the final basis set =    -4921.6624568890

                    Orbital Energies (a.u.)
 --------------------------------------------------------------

 Alpha MOs
 -- Occupied --
*******-453.915 -58.110 -58.110 -52.167 -52.167 -52.167 -52.166
-52.166 -52.166 -10.261 -10.207 -10.190  -7.844  -7.843  -5.787
 -5.786  -5.784  -5.783  -5.782  -5.781  -2.120  -2.119  -2.119
 -2.118  -2.117  -2.117  -2.114  -2.114  -2.113  -2.113  -0.830
 -0.755  -0.672  -0.652  -0.580  -0.473  -0.449  -0.431  -0.421
 -0.391  -0.369  -0.355  -0.323  -0.298  -0.275  -0.254  -0.202

 Beta MOs
 -- Occupied --
*******-453.913 -58.109 -58.108 -52.166 -52.165 -52.164 -52.164
-52.163 -52.163 -10.261 -10.207 -10.190  -7.841  -7.840  -5.785
 -5.784  -5.778  -5.777  -5.777  -5.776  -2.117  -2.116  -2.115
 -2.114  -2.114  -2.113  -2.109  -2.109  -2.108  -2.108  -0.823
 -0.745  -0.647  -0.632  -0.573  -0.470  -0.444  -0.429  -0.415
 -0.385  -0.367  -0.350  -0.313  -0.262  -0.230

          Ground-State Mulliken Net Atomic Charges

     Atom                 Charge (a.u.)    Spin (a.u.)
  --------------------------------------------------------
      1 C                    -0.227561      -0.046015
      2 H                     0.155064      -0.001262
      3 C                    -0.172947       0.002681
      4 H                     0.120451       0.000868
      5 H                     0.122498      -0.001479
      6 C                    -0.328411       0.002681
      7 H                     0.114740      -0.000200
      8 H                     0.127078      -0.000436
      9 H                     0.109366       0.000158
     10 Se                    0.006134       1.001044
     11 H                    -0.012768      -0.011227
     12 Se                   -0.008793       1.019053
     13 H                    -0.004851       0.034133
  --------------------------------------------------------
  Sum of atomic charges =    -0.000000

                    Cartesian Multipole Moments
 -----------------------------------------------------------------
    Charge (ESU x 10^10)
                 0.0000
    Dipole Moment (Debye)
         X      -0.2530      Y       1.8840      Z       0.8126
       Tot       2.0673
    Quadrupole Moments (Debye-Ang)
        XX     -59.7959     XY       0.5225     YY     -55.7124
        XZ       1.4000     YZ      -0.8373     ZZ     -59.2372

 Final energy is   -4921.66245688898
 **  OPTIMIZATION CONVERGED  **
 Total job time:  27.01s(wall), 312.80s(cpu)
        *  Thank you very much for using Q-Chem.  Have a nice day.  *
