 Q-Chem 5.1, Q-Chem, Inc., Pleasanton, CA (2018)
 Q-Chem 5.1.1 for Intel X86 EM64T Linux

User input:
--------------------------------------------------------------

$comment
potential surface scanner
$end

$rem
JOBTYPE  PES_SCAN
UNRESTRICTED TRUE
SYM_IGNORE  TRUE
GEOM_OPT_MAX_CYCLES 400
SCF_MAX_CYCLES 400
METHOD   B3LYP
BASIS   6-31G**
PDB_PRINT 2
SCF_CONVERGENCE 6
THRESH 14
SCF_PRINT 1
$end
$molecule
0 1
C 0.034100 0.572900 -0.443500
H 0.076700 0.782000 -1.512400
C 0.317600 1.856700 0.339100
H -0.478400 2.578000 0.154400
H 0.362900 1.630300 1.404300
C 1.654900 2.445600 -0.114500
H 1.856900 3.360200 0.443000
H 2.450900 1.724300 0.070100
H 1.609600 2.672000 -1.179800
Se -1.749100 -0.095100 0.021000
H -1.828300 -1.374900 -0.867600
Se 1.377500 -0.779800 0.011600
H 1.146900 -0.923300 1.547800
$end
$scan
stre 10 11 0.900000 0.901000 0.100000
$end
--------------------------------------------------------------

    9   -4921.7163210720      6.91e-07  Convergence criterion met
 Total energy in the final basis set =    -4921.7163210720
    9   -4921.7270734465      6.56e-07  Convergence criterion met
 Total energy in the final basis set =    -4921.7270734465
    9   -4921.7115658405      6.05e-07  Convergence criterion met
 Total energy in the final basis set =    -4921.7115658405
    9   -4921.6542798655      6.05e-07  Convergence criterion met
 Total energy in the final basis set =    -4921.6542798655
    9   -4921.5522581861      6.24e-07  Convergence criterion met
 Total energy in the final basis set =    -4921.5522581861
    9   -4921.3657033982      6.79e-07  Convergence criterion met
 Total energy in the final basis set =    -4921.3657033982
    9   -4921.3520788680      6.82e-07  Convergence criterion met
 Total energy in the final basis set =    -4921.3520788680
    9   -4921.3470475852      6.80e-07  Convergence criterion met
    9   -4921.3471602809      6.65e-07  Convergence criterion met
 Total energy in the final basis set =    -4921.3471602809
    9   -4921.3471675160      6.65e-07  Convergence criterion met
 Total energy in the final basis set =    -4921.3471675160
    9   -4921.3471716665      6.66e-07  Convergence criterion met
 Total energy in the final basis set =    -4921.3471716665
    9   -4921.3471753274      6.68e-07  Convergence criterion met
 Total energy in the final basis set =    -4921.3471753274
    9   -4921.3471788275      6.71e-07  Convergence criterion met
 Total energy in the final basis set =    -4921.3471788275
    9   -4921.3471806544      6.72e-07  Convergence criterion met
 Total energy in the final basis set =    -4921.3471806544

             Standard Nuclear Orientation (Angstroms)
    I     Atom           X                Y                Z
 ----------------------------------------------------------------
    1      C       0.0743113826     0.4820104958    -0.4276654045
    2      H       0.1563509424     0.6260688515    -1.5073744757
    3      C       0.3253552708     1.8039513825     0.3031239785
    4      H      -0.5182745649     2.4676848670     0.0719933508
    5      H       0.2967563389     1.6333206340     1.3853325848
    6      C       1.6317269779     2.4959688176    -0.0953133824
    7      H       1.7314849353     3.4513917145     0.4293182218
    8      H       2.5013578183     1.8804865017     0.1492859470
    9      H       1.6576864247     2.7045877556    -1.1709397814
   10      Se     -1.7904699230    -0.1344711038    -0.0694132347
   11      H      -1.6874362856    -0.9232799676    -0.4903226959
   12      Se      1.4114322539    -0.9473126476    -0.0631091070
   13      H       1.0419184287    -1.0915073011     1.3585839986
 ----------------------------------------------------------------

    9   -4921.3471815237      6.72e-07  Convergence criterion met
 Total energy in the final basis set =    -4921.3471815237

                    Orbital Energies (a.u.)
 --------------------------------------------------------------

 Alpha MOs
 -- Occupied --
*******-453.889 -58.099 -58.096 -52.156 -52.155 -52.153 -52.153
-52.151 -52.149 -10.261 -10.204 -10.184  -7.842  -7.832  -5.795
 -5.781  -5.778  -5.774  -5.770  -5.764  -2.141  -2.122  -2.113
 -2.111  -2.111  -2.106  -2.105  -2.103  -2.100  -2.098  -0.834
 -0.781  -0.722  -0.659  -0.586  -0.466  -0.455  -0.437  -0.388
 -0.379  -0.366  -0.356  -0.343  -0.312  -0.247  -0.226

 Beta MOs
 -- Occupied --
*******-453.889 -58.099 -58.096 -52.156 -52.155 -52.153 -52.153
-52.151 -52.149 -10.261 -10.204 -10.184  -7.842  -7.832  -5.795
 -5.781  -5.778  -5.774  -5.770  -5.764  -2.141  -2.122  -2.113
 -2.111  -2.111  -2.106  -2.105  -2.103  -2.100  -2.098  -0.834
 -0.781  -0.722  -0.659  -0.586  -0.466  -0.455  -0.437  -0.388
 -0.379  -0.366  -0.356  -0.343  -0.312  -0.247  -0.226

          Ground-State Mulliken Net Atomic Charges

     Atom                 Charge (a.u.)    Spin (a.u.)
  --------------------------------------------------------
      1 C                    -0.222212      -0.000000
      2 H                     0.152935       0.000000
      3 C                    -0.177821       0.000000
      4 H                     0.123128      -0.000000
      5 H                     0.119114      -0.000000
      6 C                    -0.329558       0.000000
      7 H                     0.110502      -0.000000
      8 H                     0.136221      -0.000000
      9 H                     0.105504       0.000000
     10 Se                    0.028371       0.000000
     11 H                    -0.045215      -0.000000
     12 Se                   -0.069413      -0.000000
     13 H                     0.068445      -0.000000
  --------------------------------------------------------
  Sum of atomic charges =     0.000000

                    Cartesian Multipole Moments
 -----------------------------------------------------------------
    Charge (ESU x 10^10)
                 0.0000
    Dipole Moment (Debye)
         X       0.6221      Y       0.6657      Z      -0.1757
       Tot       0.9279
    Quadrupole Moments (Debye-Ang)
        XX     -61.5354     XY       2.4806     YY     -55.2345
        XZ       1.1166     YZ      -0.3859     ZZ     -55.4836

 Final energy is   -4921.34718152367
 **  OPTIMIZATION CONVERGED  **
 Total job time:  109.15s(wall), 1280.92s(cpu)
        *  Thank you very much for using Q-Chem.  Have a nice day.  *
