 Q-Chem 5.1, Q-Chem, Inc., Pleasanton, CA (2018)
 Q-Chem 5.1.1 for Intel X86 EM64T Linux

User input:
--------------------------------------------------------------

$comment
potential surface scanner
$end

$rem
JOBTYPE  PES_SCAN
UNRESTRICTED TRUE
SYM_IGNORE  TRUE
GEOM_OPT_MAX_CYCLES 400
SCF_MAX_CYCLES 400
METHOD   B3LYP
BASIS   6-31G**
PDB_PRINT 2
SCF_CONVERGENCE 6
THRESH 14
SCF_PRINT 1
$end
$molecule
0 3
C 0.517574 0.974202 -1.027070
H 0.093009 1.697250 -1.723558
C 0.668866 1.543646 0.374445
H -0.339864 1.746710 0.759081
H 1.109363 0.787163 1.032144
C 1.503918 2.829918 0.403248
H 1.562224 3.226834 1.421080
H 2.524849 2.648835 0.052987
H 1.062287 3.604200 -0.233518
Se -0.417588 -0.760030 -1.182516
H -1.583754 -1.791257 0.644127
Se 2.097611 0.099834 -1.823999
H -1.966301 -2.158401 1.177045
$end
$scan
stre 10 11 2.300000 2.301000 0.100000
$end
--------------------------------------------------------------

   11   -4921.6624568769      9.80e-07  Convergence criterion met
 Total energy in the final basis set =    -4921.6624568769
   12   -4921.6604902741      7.63e-07  Convergence criterion met
 Total energy in the final basis set =    -4921.6604902741
   12   -4921.6604579052      7.80e-07  Convergence criterion met
 Total energy in the final basis set =    -4921.6604579052
   12   -4921.6604596824      7.91e-07  Convergence criterion met
 Total energy in the final basis set =    -4921.6604596824
   12   -4921.6604635767      8.22e-07  Convergence criterion met
 Total energy in the final basis set =    -4921.6604635767
   12   -4921.6604685441      8.60e-07  Convergence criterion met
 Total energy in the final basis set =    -4921.6604685441
   12   -4921.6604756874      8.96e-07  Convergence criterion met
 Total energy in the final basis set =    -4921.6604756874
   12   -4921.6604836735      8.96e-07  Convergence criterion met
   11   -4921.6613294246      6.08e-07  Convergence criterion met
 Total energy in the final basis set =    -4921.6613294246
   11   -4921.6613317772      6.06e-07  Convergence criterion met
 Total energy in the final basis set =    -4921.6613317772
   11   -4921.6613342617      6.07e-07  Convergence criterion met
 Total energy in the final basis set =    -4921.6613342617
   11   -4921.6613361305      6.10e-07  Convergence criterion met
 Total energy in the final basis set =    -4921.6613361305
   11   -4921.6613372786      6.13e-07  Convergence criterion met
 Total energy in the final basis set =    -4921.6613372786
   11   -4921.6613380764      6.15e-07  Convergence criterion met
 Total energy in the final basis set =    -4921.6613380764

             Standard Nuclear Orientation (Angstroms)
    I     Atom           X                Y                Z
 ----------------------------------------------------------------
    1      C       0.4219299643     1.0216412439    -0.7714098023
    2      H       0.0290732241     1.6252614739    -1.5897341683
    3      C       0.7007544597     1.8402280783     0.4794488198
    4      H      -0.2607109901     2.2368697720     0.8333534742
    5      H       1.0764073213     1.1804254303     1.2688563251
    6      C       1.6807181469     2.9954320006     0.2404185173
    7      H       1.8427969120     3.5570702204     1.1654064387
    8      H       2.6522166042     2.6267129668    -0.1030037808
    9      H       1.2992675951     3.6941354619    -0.5121831668
   10      Se     -0.6614316272    -0.6149853931    -0.5246317797
   11      H      -1.7015322069    -2.4826451541     0.3239284179
   12      Se      1.8743681475    -0.1511667216    -1.4232947817
   13      H      -2.1216635509    -3.0800753794     0.4863414863
 ----------------------------------------------------------------

   11   -4921.6613388118      6.15e-07  Convergence criterion met
 Total energy in the final basis set =    -4921.6613388118

                    Orbital Energies (a.u.)
 --------------------------------------------------------------

 Alpha MOs
 -- Occupied --
*******-453.914 -58.111 -58.109 -52.168 -52.167 -52.167 -52.166
-52.165 -52.165 -10.260 -10.206 -10.190  -7.845  -7.843  -5.787
 -5.786  -5.784  -5.782  -5.782  -5.780  -2.120  -2.119  -2.119
 -2.118  -2.117  -2.116  -2.114  -2.114  -2.112  -2.112  -0.828
 -0.754  -0.672  -0.652  -0.580  -0.473  -0.454  -0.434  -0.415
 -0.392  -0.368  -0.354  -0.319  -0.299  -0.276  -0.255  -0.202

 Beta MOs
 -- Occupied --
*******-453.912 -58.109 -58.108 -52.166 -52.165 -52.164 -52.164
-52.163 -52.162 -10.260 -10.206 -10.190  -7.841  -7.839  -5.785
 -5.784  -5.778  -5.777  -5.776  -5.776  -2.117  -2.116  -2.115
 -2.114  -2.113  -2.113  -2.109  -2.109  -2.107  -2.107  -0.822
 -0.744  -0.646  -0.631  -0.572  -0.470  -0.450  -0.433  -0.411
 -0.385  -0.365  -0.348  -0.310  -0.262  -0.231

          Ground-State Mulliken Net Atomic Charges

     Atom                 Charge (a.u.)    Spin (a.u.)
  --------------------------------------------------------
      1 C                    -0.241400      -0.046025
      2 H                     0.154083      -0.001265
      3 C                    -0.172935       0.002696
      4 H                     0.119865       0.000896
      5 H                     0.121611      -0.001550
      6 C                    -0.327613       0.002879
      7 H                     0.114379      -0.000190
      8 H                     0.126278      -0.000502
      9 H                     0.109452       0.000244
     10 Se                    0.009480       1.008612
     11 H                    -0.021649      -0.004386
     12 Se                   -0.002517       1.035901
     13 H                     0.010966       0.002691
  --------------------------------------------------------
  Sum of atomic charges =    -0.000000

                    Cartesian Multipole Moments
 -----------------------------------------------------------------
    Charge (ESU x 10^10)
                -0.0000
    Dipole Moment (Debye)
         X      -0.0315      Y       1.9612      Z       0.4655
       Tot       2.0159
    Quadrupole Moments (Debye-Ang)
        XX     -59.2358     XY       0.9794     YY     -54.8451
        XZ       0.9409     YZ      -0.6657     ZZ     -58.4281

 Final energy is   -4921.66133881175
 **  OPTIMIZATION CONVERGED  **
 Total job time:  433.32s(wall), 5123.36s(cpu)
        *  Thank you very much for using Q-Chem.  Have a nice day.  *
