 Q-Chem 5.1, Q-Chem, Inc., Pleasanton, CA (2018)
 Q-Chem 5.1.1 for Intel X86 EM64T Linux

User input:
--------------------------------------------------------------

$comment
potential surface scanner
$end

$rem
JOBTYPE  PES_SCAN
UNRESTRICTED TRUE
SYM_IGNORE  TRUE
GEOM_OPT_MAX_CYCLES 400
SCF_MAX_CYCLES 400
METHOD   B3LYP
BASIS   6-31G**
PDB_PRINT 2
SCF_CONVERGENCE 6
THRESH 14
SCF_PRINT 1
$end
$molecule
0 1
C 0.054327 0.608147 -0.328861
H 0.103468 0.736865 -1.411481
C 0.408226 1.932455 0.381949
H -0.414038 2.643269 0.222391
H 0.471805 1.758579 1.461335
C 1.706786 2.564557 -0.133216
H 1.899397 3.506075 0.390332
H 2.559464 1.900133 0.029498
H 1.640821 2.784484 -1.204208
Se -1.819822 0.207069 0.143766
H -1.951314 -2.187997 -1.095736
Se 1.340126 -0.868608 0.028951
H 0.832956 -1.136123 1.388784
$end
$scan
stre 10 11 2.800000 2.801000 0.100000
$end
--------------------------------------------------------------

   12   -4921.6025117087      6.83e-07  Convergence criterion met
 Total energy in the final basis set =    -4921.6025117087
   14   -4921.5946793019      1.55e-07  Convergence criterion met
 Total energy in the final basis set =    -4921.5946793019
   14   -4921.5945265989      1.59e-07  Convergence criterion met
 Total energy in the final basis set =    -4921.5945265989
   14   -4921.5945279849      1.60e-07  Convergence criterion met
 Total energy in the final basis set =    -4921.5945279849

             Standard Nuclear Orientation (Angstroms)
    I     Atom           X                Y                Z
 ----------------------------------------------------------------
    1      C       0.0539436870     0.6174380552    -0.3270628931
    2      H       0.1033099007     0.7470304239    -1.4096053476
    3      C       0.4130607850     1.9403742606     0.3852096631
    4      H      -0.4073607073     2.6539446541     0.2288816696
    5      H       0.4789054552     1.7641047387     1.4639779047
    6      C       1.7121956740     2.5693592296    -0.1325753261
    7      H       1.9086033336     3.5092730865     0.3924542958
    8      H       2.5633231851     1.9021953155     0.0268443099
    9      H       1.6439496773     2.7916387371    -1.2029052567
   10      Se     -1.8192153619     0.2226832574     0.1476457064
   11      H      -1.9789209041    -2.2708963431    -1.1159026176
   12      Se      1.3358990524    -0.8634981706     0.0295472390
   13      H       0.8245082230    -1.1347422448     1.3869946526
 ----------------------------------------------------------------

   14   -4921.5945282115      1.60e-07  Convergence criterion met
 Total energy in the final basis set =    -4921.5945282115

                    Orbital Energies (a.u.)
 --------------------------------------------------------------

 Alpha MOs
 -- Occupied --
*******-453.902 -58.117 -58.097 -52.175 -52.174 -52.170 -52.155
-52.154 -52.151 -10.261 -10.213 -10.189  -7.849  -7.831  -5.795
 -5.791  -5.779  -5.777  -5.772  -5.763  -2.129  -2.128  -2.118
 -2.115  -2.113  -2.110  -2.110  -2.102  -2.098  -2.097  -0.823
 -0.740  -0.690  -0.637  -0.583  -0.472  -0.440  -0.426  -0.389
 -0.379  -0.362  -0.347  -0.319  -0.274  -0.243  -0.225

 Beta MOs
 -- Occupied --
*******-453.902 -58.117 -58.097 -52.175 -52.174 -52.170 -52.155
-52.154 -52.151 -10.261 -10.213 -10.189  -7.849  -7.831  -5.795
 -5.791  -5.779  -5.777  -5.772  -5.763  -2.129  -2.128  -2.118
 -2.115  -2.113  -2.110  -2.110  -2.102  -2.098  -2.097  -0.823
 -0.740  -0.690  -0.637  -0.583  -0.472  -0.440  -0.426  -0.389
 -0.379  -0.362  -0.347  -0.319  -0.274  -0.243  -0.225

          Ground-State Mulliken Net Atomic Charges

     Atom                 Charge (a.u.)    Spin (a.u.)
  --------------------------------------------------------
      1 C                    -0.232593       0.000000
      2 H                     0.159663       0.000000
      3 C                    -0.196227      -0.000000
      4 H                     0.122218      -0.000000
      5 H                     0.126680       0.000000
      6 C                    -0.327683      -0.000000
      7 H                     0.113731      -0.000000
      8 H                     0.139824       0.000000
      9 H                     0.109401       0.000000
     10 Se                   -0.047810       0.000000
     11 H                     0.015372      -0.000000
     12 Se                   -0.053059       0.000000
     13 H                     0.070483      -0.000000
  --------------------------------------------------------
  Sum of atomic charges =    -0.000000

                    Cartesian Multipole Moments
 -----------------------------------------------------------------
    Charge (ESU x 10^10)
                -0.0000
    Dipole Moment (Debye)
         X       0.7486      Y       1.5396      Z       0.2100
       Tot       1.7248
    Quadrupole Moments (Debye-Ang)
        XX     -61.9601     XY       1.2521     YY     -55.0436
        XZ      -0.2350     YZ      -0.2845     ZZ     -56.6639

 Final energy is   -4921.59452821152
 **  OPTIMIZATION CONVERGED  **
 Total job time:  39.49s(wall), 462.54s(cpu)
        *  Thank you very much for using Q-Chem.  Have a nice day.  *
