 Q-Chem 5.1, Q-Chem, Inc., Pleasanton, CA (2018)
 Q-Chem 5.1.1 for Intel X86 EM64T Linux

User input:
--------------------------------------------------------------

$comment
potential surface scanner
$end

$rem
JOBTYPE  PES_SCAN
UNRESTRICTED TRUE
SYM_IGNORE  TRUE
GEOM_OPT_MAX_CYCLES 400
SCF_MAX_CYCLES 400
METHOD   B3LYP
BASIS   6-31G**
PDB_PRINT 2
SCF_CONVERGENCE 6
THRESH 14
SCF_PRINT 1
$end
$molecule
0 3
C 0.276790 0.878187 -1.099523
H 0.573545 1.556486 -1.902990
C 0.190140 1.601674 0.241231
H -0.680138 2.268800 0.183245
H -0.039467 0.875311 1.028741
C 1.434821 2.421754 0.598322
H 1.281400 2.952574 1.542876
H 2.319119 1.787634 0.709085
H 1.653197 3.169629 -0.171859
Se -1.305026 -0.138221 -1.644758
H -1.713292 -1.088025 1.594253
Se 1.653134 -0.566284 -1.208772
H 1.187976 -1.270619 0.003651
$end
$scan
stre 10 11 3.300000 3.301000 0.100000
$end
--------------------------------------------------------------

   12   -4921.6086686016      6.06e-07  Convergence criterion met
 Total energy in the final basis set =    -4921.6086686016
   12   -4921.6088628669      5.88e-07  Convergence criterion met
 Total energy in the final basis set =    -4921.6088628669
   12   -4921.6088745971      5.88e-07  Convergence criterion met
 Total energy in the final basis set =    -4921.6088745971
   12   -4921.6088935561      5.90e-07  Convergence criterion met
 Total energy in the final basis set =    -4921.6088935561
   12   -4921.6088949589      5.90e-07  Convergence criterion met
 Total energy in the final basis set =    -4921.6088949589
   12   -4921.6088982182      5.89e-07  Convergence criterion met
 Total energy in the final basis set =    -4921.6088982182

             Standard Nuclear Orientation (Angstroms)
    I     Atom           X                Y                Z
 ----------------------------------------------------------------
    1      C       0.2713173997     0.8731810079    -1.0891469785
    2      H       0.5602218805     1.5499152927    -1.8966416493
    3      C       0.1920777650     1.6003431445     0.2500688930
    4      H      -0.6801959869     2.2651345395     0.1962070427
    5      H      -0.0295681029     0.8756271874     1.0411724942
    6      C       1.4374074498     2.4246124021     0.5952972817
    7      H       1.2900083361     2.9579297207     1.5394388729
    8      H       2.3238958617     1.7928396618     0.7010470686
    9      H       1.6479754037     3.1709650546    -0.1785391437
   10      Se     -1.3108349987    -0.1497385824    -1.6212349312
   11      H      -1.7093371216    -1.0726063984     1.5219341014
   12      Se      1.6498553106    -0.5694228089    -1.2012628552
   13      H       1.1893758031    -1.2698802214     0.0151618033
 ----------------------------------------------------------------

   12   -4921.6088986705      5.89e-07  Convergence criterion met
 Total energy in the final basis set =    -4921.6088986705

                    Orbital Energies (a.u.)
 --------------------------------------------------------------

 Alpha MOs
 -- Occupied --
*******-453.894 -58.122 -58.088 -52.180 -52.179 -52.177 -52.147
-52.145 -52.142 -10.262 -10.207 -10.189  -7.856  -7.822  -5.801
 -5.797  -5.790  -5.768  -5.765  -5.753  -2.134  -2.134  -2.127
 -2.124  -2.123  -2.102  -2.101  -2.092  -2.090  -2.087  -0.826
 -0.751  -0.693  -0.643  -0.584  -0.471  -0.445  -0.424  -0.400
 -0.385  -0.363  -0.353  -0.322  -0.300  -0.280  -0.228  -0.223

 Beta MOs
 -- Occupied --
*******-453.892 -58.122 -58.087 -52.180 -52.178 -52.176 -52.145
-52.143 -52.141 -10.262 -10.207 -10.189  -7.855  -7.819  -5.800
 -5.796  -5.788  -5.764  -5.760  -5.751  -2.133  -2.133  -2.126
 -2.123  -2.122  -2.097  -2.097  -2.090  -2.086  -2.085  -0.823
 -0.746  -0.682  -0.630  -0.578  -0.470  -0.444  -0.421  -0.398
 -0.382  -0.361  -0.348  -0.317  -0.255  -0.217

          Ground-State Mulliken Net Atomic Charges

     Atom                 Charge (a.u.)    Spin (a.u.)
  --------------------------------------------------------
      1 C                    -0.234457      -0.033640
      2 H                     0.156820       0.003463
      3 C                    -0.169983       0.011855
      4 H                     0.122702      -0.000766
      5 H                     0.118504      -0.004593
      6 C                    -0.329860      -0.000396
      7 H                     0.113682       0.000375
      8 H                     0.127385       0.000092
      9 H                     0.108184       0.000528
     10 Se                   -0.090681       0.855589
     11 H                    -0.024311       0.957610
     12 Se                    0.020518       0.216930
     13 H                     0.081497      -0.007047
  --------------------------------------------------------
  Sum of atomic charges =    -0.000000

                    Cartesian Multipole Moments
 -----------------------------------------------------------------
    Charge (ESU x 10^10)
                -0.0000
    Dipole Moment (Debye)
         X       1.6354      Y       1.4232      Z       1.1398
       Tot       2.4493
    Quadrupole Moments (Debye-Ang)
        XX     -60.1284     XY      -0.8824     YY     -54.7009
        XZ      -1.1657     YZ      -1.9000     ZZ     -61.1780

 Final energy is   -4921.60889867051
 **  OPTIMIZATION CONVERGED  **
 Total job time:  51.34s(wall), 597.33s(cpu)
        *  Thank you very much for using Q-Chem.  Have a nice day.  *
