 Q-Chem 5.1, Q-Chem, Inc., Pleasanton, CA (2018)
 Q-Chem 5.1.1 for Intel X86 EM64T Linux

User input:
--------------------------------------------------------------

$comment
potential surface scanner
$end

$rem
JOBTYPE  PES_SCAN
UNRESTRICTED TRUE
SYM_IGNORE  TRUE
GEOM_OPT_MAX_CYCLES 400
SCF_MAX_CYCLES 400
METHOD   B3LYP
BASIS   6-31G**
PDB_PRINT 2
SCF_CONVERGENCE 6
THRESH 14
SCF_PRINT 1
$end
$molecule
0 1
C 0.063791 0.569385 -0.359348
H 0.123077 0.699485 -1.441314
C 0.386311 1.892980 0.358745
H -0.445293 2.590090 0.184949
H 0.429333 1.717775 1.439384
C 1.684225 2.549173 -0.124039
H 1.850709 3.492280 0.405661
H 2.544697 1.899092 0.055131
H 1.639491 2.771609 -1.195753
Se -1.817889 0.132099 0.088025
H -1.857471 -1.825079 -0.915910
Se 1.362945 -0.892430 0.005544
H 0.868272 -1.147557 1.372429
$end
$scan
stre 10 11 2.300000 2.301000 0.100000
$end
--------------------------------------------------------------

   11   -4921.6536734541      5.36e-07  Convergence criterion met
 Total energy in the final basis set =    -4921.6536734541
   11   -4921.6421942231      9.81e-07  Convergence criterion met
 Total energy in the final basis set =    -4921.6421942231
   12   -4921.6419261843      1.71e-07  Convergence criterion met
 Total energy in the final basis set =    -4921.6419261843

             Standard Nuclear Orientation (Angstroms)
    I     Atom           X                Y                Z
 ----------------------------------------------------------------
    1      C       0.0605338532     0.5772500618    -0.3519565716
    2      H       0.1170816911     0.7076087839    -1.4339940080
    3      C       0.3902801323     1.9009361024     0.3643132276
    4      H      -0.4390745570     2.6013557522     0.1935121728
    5      H       0.4380538655     1.7268409206     1.4448226902
    6      C       1.6884829827     2.5510620895    -0.1266817697
    7      H       1.8618661071     3.4940685599     0.4009335140
    8      H       2.5469541176     1.8972747789     0.0485272128
    9      H       1.6385225470     2.7722286816    -1.1984094411
   10      Se     -1.8197341085     0.1474812411     0.1005098516
   11      H      -1.8681694638    -1.8950581206    -0.9557504563
   12      Se      1.3563069210    -0.8882106925     0.0105223760
   13      H       0.8610939119    -1.1439361588     1.3771552016
 ----------------------------------------------------------------

   12   -4921.6419271317      1.71e-07  Convergence criterion met
 Total energy in the final basis set =    -4921.6419271317

                    Orbital Energies (a.u.)
 --------------------------------------------------------------

 Alpha MOs
 -- Occupied --
*******-453.901 -58.114 -58.097 -52.172 -52.170 -52.167 -52.155
-52.153 -52.151 -10.260 -10.210 -10.188  -7.845  -7.830  -5.792
 -5.787  -5.776  -5.776  -5.772  -5.762  -2.125  -2.125  -2.115
 -2.112  -2.110  -2.109  -2.109  -2.101  -2.098  -2.096  -0.821
 -0.738  -0.689  -0.636  -0.582  -0.470  -0.439  -0.426  -0.387
 -0.378  -0.361  -0.345  -0.319  -0.298  -0.242  -0.224

 Beta MOs
 -- Occupied --
*******-453.901 -58.114 -58.097 -52.172 -52.170 -52.167 -52.155
-52.153 -52.151 -10.260 -10.210 -10.188  -7.845  -7.830  -5.792
 -5.787  -5.776  -5.776  -5.772  -5.762  -2.125  -2.125  -2.115
 -2.112  -2.110  -2.109  -2.109  -2.101  -2.098  -2.096  -0.821
 -0.738  -0.689  -0.636  -0.582  -0.470  -0.439  -0.426  -0.387
 -0.378  -0.361  -0.345  -0.319  -0.298  -0.242  -0.224

          Ground-State Mulliken Net Atomic Charges

     Atom                 Charge (a.u.)    Spin (a.u.)
  --------------------------------------------------------
      1 C                    -0.228252       0.000000
      2 H                     0.157654      -0.000000
      3 C                    -0.195384       0.000000
      4 H                     0.120914      -0.000000
      5 H                     0.124504      -0.000000
      6 C                    -0.327813      -0.000000
      7 H                     0.112429      -0.000000
      8 H                     0.139004      -0.000000
      9 H                     0.108285       0.000000
     10 Se                   -0.051949      -0.000000
     11 H                     0.027707      -0.000000
     12 Se                   -0.056903      -0.000000
     13 H                     0.069801       0.000000
  --------------------------------------------------------
  Sum of atomic charges =    -0.000000

                    Cartesian Multipole Moments
 -----------------------------------------------------------------
    Charge (ESU x 10^10)
                -0.0000
    Dipole Moment (Debye)
         X       0.6068      Y       1.3391      Z       0.1385
       Tot       1.4767
    Quadrupole Moments (Debye-Ang)
        XX     -61.8784     XY       1.4590     YY     -55.2416
        XZ      -0.0398     YZ      -0.2190     ZZ     -56.5798

 Final energy is   -4921.64192713170
 **  OPTIMIZATION CONVERGED  **
 Total job time:  28.32s(wall), 330.23s(cpu)
        *  Thank you very much for using Q-Chem.  Have a nice day.  *
