 Q-Chem 5.1, Q-Chem, Inc., Pleasanton, CA (2018)
 Q-Chem 5.1.1 for Intel X86 EM64T Linux

User input:
--------------------------------------------------------------

$comment
potential surface scanner
$end

$rem
JOBTYPE  PES_SCAN
UNRESTRICTED TRUE
SYM_IGNORE  TRUE
GEOM_OPT_MAX_CYCLES 400
SCF_MAX_CYCLES 400
METHOD   B3LYP
BASIS   6-31G**
PDB_PRINT 2
SCF_CONVERGENCE 6
THRESH 14
SCF_PRINT 1
$end
$molecule
0 1
C 0.034100 0.572900 -0.443500
H 0.076700 0.782000 -1.512400
C 0.317600 1.856700 0.339100
H -0.478400 2.578000 0.154400
H 0.362900 1.630300 1.404300
C 1.654900 2.445600 -0.114500
H 1.856900 3.360200 0.443000
H 2.450900 1.724300 0.070100
H 1.609600 2.672000 -1.179800
Se -1.749100 -0.095100 0.021000
H -1.828300 -1.374900 -0.867600
Se 1.377500 -0.779800 0.011600
H 1.146900 -0.923300 1.547800
$end
$scan
stre 10 11 1.000000 1.001000 0.100000
$end
--------------------------------------------------------------

    9   -4921.7163210720      6.91e-07  Convergence criterion met
 Total energy in the final basis set =    -4921.7163210720
    9   -4921.7270734465      6.56e-07  Convergence criterion met
 Total energy in the final basis set =    -4921.7270734465
    9   -4921.7115658405      6.05e-07  Convergence criterion met
 Total energy in the final basis set =    -4921.7115658405
    9   -4921.6542798655      6.05e-07  Convergence criterion met
 Total energy in the final basis set =    -4921.6542798655
    9   -4921.5563839775      6.23e-07  Convergence criterion met
 Total energy in the final basis set =    -4921.5563839775
    9   -4921.5202017436      6.33e-07  Convergence criterion met
 Total energy in the final basis set =    -4921.5202017436
    9   -4921.5200822784      6.33e-07  Convergence criterion met
 Total energy in the final basis set =    -4921.5200822784
    9   -4921.5201733573      6.35e-07  Convergence criterion met
    9   -4921.5202975284      6.34e-07  Convergence criterion met
 Total energy in the final basis set =    -4921.5202975284
    9   -4921.5203316033      6.34e-07  Convergence criterion met
 Total energy in the final basis set =    -4921.5203316033
    9   -4921.5203662631      6.34e-07  Convergence criterion met
 Total energy in the final basis set =    -4921.5203662631
    9   -4921.5203750167      6.35e-07  Convergence criterion met
 Total energy in the final basis set =    -4921.5203750167
    9   -4921.5203867742      6.37e-07  Convergence criterion met
 Total energy in the final basis set =    -4921.5203867742
    9   -4921.5203880400      6.37e-07  Convergence criterion met
 Total energy in the final basis set =    -4921.5203880400

             Standard Nuclear Orientation (Angstroms)
    I     Atom           X                Y                Z
 ----------------------------------------------------------------
    1      C       0.0728595019     0.4897672621    -0.4292671054
    2      H       0.1566601125     0.6328809371    -1.5089527961
    3      C       0.3298502869     1.8101951905     0.3024952758
    4      H      -0.5121752904     2.4780259173     0.0757317460
    5      H       0.3017282433     1.6376658180     1.3844997408
    6      C       1.6366791266     2.5009656281    -0.0953988086
    7      H       1.7388739260     3.4535898537     0.4338294348
    8      H       2.5052505927     1.8825642022     0.1454385056
    9      H       1.6610025287     2.7145937311    -1.1699709341
   10      Se     -1.7969252649    -0.1041729737    -0.0641828417
   11      H      -1.6877264229    -1.0025971371    -0.4895175592
   12      Se      1.4040129706    -0.9442542294    -0.0643468195
   13      H       1.0221096892    -1.1003241998     1.3531421615
 ----------------------------------------------------------------

    9   -4921.5203889726      6.38e-07  Convergence criterion met
 Total energy in the final basis set =    -4921.5203889726

                    Orbital Energies (a.u.)
 --------------------------------------------------------------

 Alpha MOs
 -- Occupied --
*******-453.887 -58.098 -58.090 -52.156 -52.155 -52.152 -52.147
-52.145 -52.144 -10.260 -10.204 -10.184  -7.832  -7.831  -5.780
 -5.777  -5.773  -5.773  -5.764  -5.762  -2.121  -2.111  -2.111
 -2.111  -2.102  -2.102  -2.099  -2.098  -2.098  -2.098  -0.828
 -0.771  -0.720  -0.658  -0.586  -0.466  -0.455  -0.437  -0.389
 -0.379  -0.366  -0.356  -0.342  -0.312  -0.246  -0.226

 Beta MOs
 -- Occupied --
*******-453.887 -58.098 -58.090 -52.156 -52.155 -52.152 -52.147
-52.145 -52.144 -10.260 -10.204 -10.184  -7.832  -7.831  -5.780
 -5.777  -5.773  -5.773  -5.764  -5.762  -2.121  -2.111  -2.111
 -2.111  -2.102  -2.102  -2.099  -2.098  -2.098  -2.098  -0.828
 -0.771  -0.720  -0.658  -0.586  -0.466  -0.455  -0.437  -0.389
 -0.379  -0.366  -0.356  -0.342  -0.312  -0.246  -0.226

          Ground-State Mulliken Net Atomic Charges

     Atom                 Charge (a.u.)    Spin (a.u.)
  --------------------------------------------------------
      1 C                    -0.221725      -0.000000
      2 H                     0.153058      -0.000000
      3 C                    -0.179436       0.000000
      4 H                     0.121974      -0.000000
      5 H                     0.119452      -0.000000
      6 C                    -0.329416      -0.000000
      7 H                     0.110428       0.000000
      8 H                     0.136219       0.000000
      9 H                     0.105596       0.000000
     10 Se                   -0.034082       0.000000
     11 H                     0.020697       0.000000
     12 Se                   -0.071209      -0.000000
     13 H                     0.068445       0.000000
  --------------------------------------------------------
  Sum of atomic charges =    -0.000000

                    Cartesian Multipole Moments
 -----------------------------------------------------------------
    Charge (ESU x 10^10)
                 0.0000
    Dipole Moment (Debye)
         X       0.5830      Y       0.6557      Z      -0.1286
       Tot       0.8867
    Quadrupole Moments (Debye-Ang)
        XX     -61.5390     XY       2.4864     YY     -55.1483
        XZ       0.9549     YZ      -0.4348     ZZ     -55.7249

 Final energy is   -4921.52038897260
 **  OPTIMIZATION CONVERGED  **
 Total job time:  97.86s(wall), 1148.42s(cpu)
        *  Thank you very much for using Q-Chem.  Have a nice day.  *
