 Q-Chem 5.1, Q-Chem, Inc., Pleasanton, CA (2018)
 Q-Chem 5.1.1 for Intel X86 EM64T Linux

User input:
--------------------------------------------------------------

$comment
potential surface scanner
$end

$rem
JOBTYPE  PES_SCAN
UNRESTRICTED TRUE
SYM_IGNORE  TRUE
GEOM_OPT_MAX_CYCLES 400
SCF_MAX_CYCLES 400
METHOD   B3LYP
BASIS   6-31G**
PDB_PRINT 2
SCF_CONVERGENCE 6
THRESH 14
SCF_PRINT 1
$end
$molecule
0 3
C 0.143599 0.974171 -0.777987
H 0.251257 1.500534 -1.729300
C 0.439275 1.889906 0.406113
H -0.383801 2.615436 0.454192
H 0.384529 1.309866 1.334019
C 1.771983 2.640305 0.311511
H 1.883796 3.322286 1.160011
H 2.623250 1.953564 0.316191
H 1.828160 3.238243 -0.604749
Se -1.569389 0.027433 -0.730406
H -3.127298 -3.389402 0.322283
Se 1.380082 -0.584446 -0.989523
H 1.206755 -1.048997 0.401144
$end
$scan
stre 10 11 3.800000 3.801000 0.100000
$end
--------------------------------------------------------------

   11   -4921.6076366391      6.90e-07  Convergence criterion met
 Total energy in the final basis set =    -4921.6076366391
   11   -4921.6076423166      7.00e-07  Convergence criterion met
 Total energy in the final basis set =    -4921.6076423166

             Standard Nuclear Orientation (Angstroms)
    I     Atom           X                Y                Z
 ----------------------------------------------------------------
    1      C       0.1403517700     0.9653589575    -0.7750025265
    2      H       0.2452789482     1.4913992223    -1.7267910046
    3      C       0.4361086574     1.8825585673     0.4080328536
    4      H      -0.3888368757     2.6058519011     0.4576566094
    5      H       0.3851327092     1.3028313210     1.3363396704
    6      C       1.7661960826     2.6371010049     0.3096243948
    7      H       1.8782928917     3.3195182057     1.1577360351
    8      H       2.6198346054     1.9533096724     0.3116692051
    9      H       1.8175408755     3.2352134850    -0.6068134405
   10      Se     -1.5712858657     0.0160937145    -0.7241615644
   11      H      -3.0827925142    -3.3143562547     0.3070759202
   12      Se      1.3790132235    -0.5913908779    -0.9866094441
   13      H       1.2073634921    -1.0545899191     0.4047422915
 ----------------------------------------------------------------

   11   -4921.6076428938      7.01e-07  Convergence criterion met
 Total energy in the final basis set =    -4921.6076428938

                    Orbital Energies (a.u.)
 --------------------------------------------------------------

 Alpha MOs
 -- Occupied --
*******-453.889 -58.121 -58.084 -52.178 -52.177 -52.175 -52.142
-52.141 -52.137 -10.260 -10.207 -10.188  -7.854  -7.817  -5.799
 -5.795  -5.788  -5.764  -5.760  -5.748  -2.132  -2.132  -2.126
 -2.123  -2.122  -2.097  -2.097  -2.087  -2.085  -2.082  -0.824
 -0.749  -0.691  -0.641  -0.582  -0.470  -0.444  -0.423  -0.398
 -0.384  -0.362  -0.351  -0.321  -0.307  -0.277  -0.226  -0.223

 Beta MOs
 -- Occupied --
*******-453.887 -58.120 -58.083 -52.178 -52.177 -52.174 -52.140
-52.139 -52.137 -10.260 -10.207 -10.188  -7.853  -7.815  -5.798
 -5.794  -5.786  -5.760  -5.755  -5.747  -2.132  -2.131  -2.124
 -2.121  -2.120  -2.093  -2.092  -2.085  -2.082  -2.080  -0.821
 -0.745  -0.680  -0.629  -0.576  -0.469  -0.443  -0.419  -0.396
 -0.382  -0.360  -0.346  -0.316  -0.253  -0.213

          Ground-State Mulliken Net Atomic Charges

     Atom                 Charge (a.u.)    Spin (a.u.)
  --------------------------------------------------------
      1 C                    -0.233744      -0.029533
      2 H                     0.155805       0.001846
      3 C                    -0.170795       0.002402
      4 H                     0.122659      -0.000636
      5 H                     0.117931      -0.000302
      6 C                    -0.329048       0.000077
      7 H                     0.112695       0.000288
      8 H                     0.127227       0.000099
      9 H                     0.108441       0.000028
     10 Se                   -0.109948       0.826526
     11 H                     0.002117       0.995157
     12 Se                    0.018473       0.209768
     13 H                     0.078187      -0.005721
  --------------------------------------------------------
  Sum of atomic charges =     0.000000

                    Cartesian Multipole Moments
 -----------------------------------------------------------------
    Charge (ESU x 10^10)
                 0.0000
    Dipole Moment (Debye)
         X       1.8935      Y       1.3724      Z       0.8368
       Tot       2.4838
    Quadrupole Moments (Debye-Ang)
        XX     -60.6445     XY      -0.4167     YY     -54.4250
        XZ      -0.6795     YZ      -1.7114     ZZ     -58.8682

 Final energy is   -4921.60764289383
 **  OPTIMIZATION CONVERGED  **
 Total job time:  25.54s(wall), 238.67s(cpu)
        *  Thank you very much for using Q-Chem.  Have a nice day.  *
