 Q-Chem 5.1, Q-Chem, Inc., Pleasanton, CA (2018)
 Q-Chem 5.1.1 for Intel X86 EM64T Linux

User input:
--------------------------------------------------------------

$comment
potential surface scanner
$end

$rem
JOBTYPE  PES_SCAN
UNRESTRICTED TRUE
SYM_IGNORE  TRUE
GEOM_OPT_MAX_CYCLES 400
SCF_MAX_CYCLES 400
METHOD   B3LYP
BASIS   6-31G**
PDB_PRINT 2
SCF_CONVERGENCE 6
THRESH 14
SCF_PRINT 1
$end
$molecule
0 3
C 0.439382 0.912012 -0.641421
H -0.009735 1.461487 -1.468698
C 0.755679 1.805727 0.546615
H -0.200541 2.151780 0.962325
H 1.242392 1.215940 1.330481
C 1.621409 3.015086 0.170167
H 1.802442 3.646406 1.045361
H 2.591878 2.700545 -0.225443
H 1.130622 3.630513 -0.591429
Se -0.582787 -0.755898 -0.270180
H -1.716338 -2.237785 0.089083
Se 1.896233 -0.242499 -1.305365
H -2.138443 -2.854411 0.232001
$end
$scan
stre 10 11 1.800000 1.801000 0.100000
$end
--------------------------------------------------------------

   13   -4921.6453652390      5.94e-07  Convergence criterion met
 Total energy in the final basis set =    -4921.6453652390
   13   -4921.6373683147      7.00e-07  Convergence criterion met
 Total energy in the final basis set =    -4921.6373683147
   13   -4921.6372203056      7.08e-07  Convergence criterion met
 Total energy in the final basis set =    -4921.6372203056
   13   -4921.6372277612      7.11e-07  Convergence criterion met
 Total energy in the final basis set =    -4921.6372277612
   13   -4921.6372355648      7.14e-07  Convergence criterion met
 Total energy in the final basis set =    -4921.6372355648
   13   -4921.6372449048      7.18e-07  Convergence criterion met
 Total energy in the final basis set =    -4921.6372449048
   13   -4921.6372534058      7.19e-07  Convergence criterion met
 Total energy in the final basis set =    -4921.6372534058
   13   -4921.6372600776      7.18e-07  Convergence criterion met
   13   -4921.6372664282      7.13e-07  Convergence criterion met
 Total energy in the final basis set =    -4921.6372664282
   13   -4921.6372690098      7.11e-07  Convergence criterion met
 Total energy in the final basis set =    -4921.6372690098
   13   -4921.6372723267      7.09e-07  Convergence criterion met
 Total energy in the final basis set =    -4921.6372723267
   13   -4921.6372761426      7.08e-07  Convergence criterion met
 Total energy in the final basis set =    -4921.6372761426
   13   -4921.6372791082      7.06e-07  Convergence criterion met
 Total energy in the final basis set =    -4921.6372791082
   13   -4921.6372805890      7.05e-07  Convergence criterion met
 Total energy in the final basis set =    -4921.6372805890

             Standard Nuclear Orientation (Angstroms)
    I     Atom           X                Y                Z
 ----------------------------------------------------------------
    1      C       0.4482599950     0.8861212236    -0.6307263241
    2      H      -0.0206812861     1.4241855505    -1.4544229144
    3      C       0.7615304763     1.7879229710     0.5515729869
    4      H      -0.1964471802     2.1193127675     0.9751344997
    5      H       1.2641249713     1.2081897753     1.3330020704
    6      C       1.6033527375     3.0110786924     0.1653410209
    7      H       1.7810158777     3.6476539258     1.0374545456
    8      H       2.5755650754     2.7124836935    -0.2381892418
    9      H       1.0955705697     3.6162664207    -0.5934052384
   10      Se     -0.5510341200    -0.8029249224    -0.2438400089
   11      H      -1.7075000563    -2.1458120338     0.0711854444
   12      Se      1.9131115818    -0.2456708940    -1.3072864547
   13      H      -2.1346756421    -2.7699041701     0.2076766143
 ----------------------------------------------------------------

   13   -4921.6372813273      7.04e-07  Convergence criterion met
 Total energy in the final basis set =    -4921.6372813273

                    Orbital Energies (a.u.)
 --------------------------------------------------------------

 Alpha MOs
 -- Occupied --
*******-453.910 -58.113 -58.105 -52.170 -52.170 -52.169 -52.163
-52.162 -52.161 -10.255 -10.205 -10.189  -7.847  -7.840  -5.790
 -5.787  -5.785  -5.784  -5.778  -5.777  -2.123  -2.122  -2.120
 -2.117  -2.117  -2.117  -2.114  -2.114  -2.108  -2.108  -0.826
 -0.753  -0.677  -0.653  -0.581  -0.485  -0.468  -0.434  -0.405
 -0.389  -0.366  -0.348  -0.308  -0.296  -0.277  -0.255  -0.203

 Beta MOs
 -- Occupied --
*******-453.908 -58.112 -58.104 -52.169 -52.167 -52.167 -52.162
-52.159 -52.159 -10.255 -10.205 -10.189  -7.844  -7.836  -5.787
 -5.782  -5.781  -5.780  -5.773  -5.772  -2.119  -2.118  -2.116
 -2.114  -2.112  -2.112  -2.111  -2.111  -2.103  -2.103  -0.819
 -0.742  -0.645  -0.641  -0.573  -0.478  -0.466  -0.432  -0.402
 -0.383  -0.363  -0.341  -0.295  -0.262  -0.231

          Ground-State Mulliken Net Atomic Charges

     Atom                 Charge (a.u.)    Spin (a.u.)
  --------------------------------------------------------
      1 C                    -0.257647      -0.036598
      2 H                     0.151252      -0.000971
      3 C                    -0.173221       0.002235
      4 H                     0.120465       0.001596
      5 H                     0.120463      -0.001452
      6 C                    -0.327264       0.002828
      7 H                     0.113574      -0.000326
      8 H                     0.124528      -0.000458
      9 H                     0.109008       0.000142
     10 Se                    0.045723       0.957904
     11 H                    -0.059419      -0.009013
     12 Se                    0.012870       1.070930
     13 H                     0.019667       0.013182
  --------------------------------------------------------
  Sum of atomic charges =    -0.000000

                    Cartesian Multipole Moments
 -----------------------------------------------------------------
    Charge (ESU x 10^10)
                 0.0000
    Dipole Moment (Debye)
         X      -0.0549      Y       1.8877      Z       0.3060
       Tot       1.9132
    Quadrupole Moments (Debye-Ang)
        XX     -58.8811     XY       0.9288     YY     -55.5186
        XZ       0.8484     YZ      -0.3280     ZZ     -58.1974

 Final energy is   -4921.63728132729
 **  OPTIMIZATION CONVERGED  **
 Total job time:  120.72s(wall), 1417.51s(cpu)
        *  Thank you very much for using Q-Chem.  Have a nice day.  *
