 Q-Chem 5.1, Q-Chem, Inc., Pleasanton, CA (2018)
 Q-Chem 5.1.1 for Intel X86 EM64T Linux

User input:
--------------------------------------------------------------

$comment
potential surface scanner
$end

$rem
JOBTYPE  PES_SCAN
UNRESTRICTED TRUE
SYM_IGNORE  TRUE
GEOM_OPT_MAX_CYCLES 400
SCF_MAX_CYCLES 400
METHOD   B3LYP
BASIS   6-31G**
PDB_PRINT 2
SCF_CONVERGENCE 6
THRESH 14
SCF_PRINT 1
$end
$molecule
0 3
C 0.448260 0.886121 -0.630726
H -0.020681 1.424186 -1.454423
C 0.761530 1.787923 0.551573
H -0.196447 2.119313 0.975134
H 1.264125 1.208190 1.333002
C 1.603353 3.011079 0.165341
H 1.781016 3.647654 1.037455
H 2.575565 2.712484 -0.238189
H 1.095571 3.616266 -0.593405
Se -0.551034 -0.802925 -0.243840
H -1.707500 -2.145812 0.071185
Se 1.913112 -0.245671 -1.307286
H -2.134676 -2.769904 0.207677
$end
$scan
stre 10 11 1.700000 1.701000 0.100000
$end
--------------------------------------------------------------

   13   -4921.6372813163      7.04e-07  Convergence criterion met
 Total energy in the final basis set =    -4921.6372813163
   13   -4921.6264661766      6.38e-07  Convergence criterion met
 Total energy in the final basis set =    -4921.6264661766
   13   -4921.6262618735      6.37e-07  Convergence criterion met
 Total energy in the final basis set =    -4921.6262618735
   13   -4921.6262709545      6.40e-07  Convergence criterion met
 Total energy in the final basis set =    -4921.6262709545
   13   -4921.6262764891      6.44e-07  Convergence criterion met
 Total energy in the final basis set =    -4921.6262764891
   13   -4921.6262859015      6.54e-07  Convergence criterion met
 Total energy in the final basis set =    -4921.6262859015
   13   -4921.6262935881      6.65e-07  Convergence criterion met
 Total energy in the final basis set =    -4921.6262935881
   13   -4921.6263004023      6.73e-07  Convergence criterion met
   13   -4921.6263052366      6.76e-07  Convergence criterion met
 Total energy in the final basis set =    -4921.6263052366
   13   -4921.6263090312      6.77e-07  Convergence criterion met
 Total energy in the final basis set =    -4921.6263090312
   13   -4921.6263123703      6.76e-07  Convergence criterion met
 Total energy in the final basis set =    -4921.6263123703
   13   -4921.6263158121      6.78e-07  Convergence criterion met
 Total energy in the final basis set =    -4921.6263158121
   13   -4921.6263188754      6.82e-07  Convergence criterion met
 Total energy in the final basis set =    -4921.6263188754
   13   -4921.6263208238      6.86e-07  Convergence criterion met
 Total energy in the final basis set =    -4921.6263208238

             Standard Nuclear Orientation (Angstroms)
    I     Atom           X                Y                Z
 ----------------------------------------------------------------
    1      C       0.4546906704     0.8617119765    -0.6218821086
    2      H      -0.0345834045     1.3862879627    -1.4422499986
    3      C       0.7656860422     1.7713928865     0.5545819388
    4      H      -0.1937047785     2.0891962455     0.9853185107
    5      H       1.2821508875     1.2005342457     1.3335767942
    6      C       1.5867277238     3.0064287941     0.1614216710
    7      H       1.7585973590     3.6475401359     1.0314393011
    8      H       2.5615930371     2.7219060253    -0.2458217956
    9      H       1.0666191769     3.6022810842    -0.5963814448
   10      Se     -0.5210330958    -0.8501927512    -0.2124744807
   11      H      -1.6857032302    -2.0605739089     0.0492913529
   12      Se      1.9272410034    -0.2454187242    -1.3117675899
   13      H      -2.1360873913    -2.6821899722     0.1884458495
 ----------------------------------------------------------------

   13   -4921.6263216454      6.89e-07  Convergence criterion met
 Total energy in the final basis set =    -4921.6263216454

                    Orbital Energies (a.u.)
 --------------------------------------------------------------

 Alpha MOs
 -- Occupied --
*******-453.909 -58.114 -58.104 -52.171 -52.171 -52.170 -52.162
-52.160 -52.160 -10.254 -10.205 -10.189  -7.848  -7.839  -5.790
 -5.788  -5.785  -5.784  -5.777  -5.776  -2.123  -2.123  -2.121
 -2.118  -2.118  -2.116  -2.114  -2.113  -2.107  -2.107  -0.825
 -0.753  -0.681  -0.654  -0.581  -0.491  -0.469  -0.434  -0.404
 -0.388  -0.365  -0.346  -0.305  -0.294  -0.277  -0.255  -0.203

 Beta MOs
 -- Occupied --
*******-453.907 -58.113 -58.103 -52.170 -52.168 -52.167 -52.161
-52.158 -52.158 -10.254 -10.205 -10.189  -7.844  -7.836  -5.788
 -5.782  -5.782  -5.780  -5.772  -5.771  -2.120  -2.118  -2.117
 -2.113  -2.113  -2.113  -2.110  -2.110  -2.102  -2.102  -0.818
 -0.742  -0.648  -0.644  -0.573  -0.484  -0.466  -0.432  -0.400
 -0.382  -0.363  -0.339  -0.289  -0.262  -0.231

          Ground-State Mulliken Net Atomic Charges

     Atom                 Charge (a.u.)    Spin (a.u.)
  --------------------------------------------------------
      1 C                    -0.258609      -0.031160
      2 H                     0.151235      -0.000675
      3 C                    -0.173230       0.002114
      4 H                     0.120686       0.001936
      5 H                     0.120340      -0.001399
      6 C                    -0.326913       0.003091
      7 H                     0.113388      -0.000374
      8 H                     0.124152      -0.000474
      9 H                     0.109011       0.000142
     10 Se                    0.045502       0.929499
     11 H                    -0.054818      -0.013527
     12 Se                    0.017816       1.079937
     13 H                     0.011440       0.030888
  --------------------------------------------------------
  Sum of atomic charges =     0.000000

                    Cartesian Multipole Moments
 -----------------------------------------------------------------
    Charge (ESU x 10^10)
                 0.0000
    Dipole Moment (Debye)
         X      -0.0759      Y       1.8932      Z       0.2731
       Tot       1.9143
    Quadrupole Moments (Debye-Ang)
        XX     -58.7384     XY       0.8944     YY     -55.7816
        XZ       0.8419     YZ      -0.2462     ZZ     -58.1791

 Final energy is   -4921.62632164539
 **  OPTIMIZATION CONVERGED  **
 Total job time:  112.81s(wall), 1327.48s(cpu)
        *  Thank you very much for using Q-Chem.  Have a nice day.  *
