 Q-Chem 5.1, Q-Chem, Inc., Pleasanton, CA (2018)
 Q-Chem 5.1.1 for Intel X86 EM64T Linux

User input:
--------------------------------------------------------------

$comment
potential surface scanner
$end

$rem
JOBTYPE  PES_SCAN
UNRESTRICTED TRUE
SYM_IGNORE  TRUE
GEOM_OPT_MAX_CYCLES 400
SCF_MAX_CYCLES 400
METHOD   B3LYP
BASIS   6-31G**
PDB_PRINT 2
SCF_CONVERGENCE 6
THRESH 14
SCF_PRINT 1
$end
$molecule
0 1
C 0.034100 0.572900 -0.443500
H 0.076700 0.782000 -1.512400
C 0.317600 1.856700 0.339100
H -0.478400 2.578000 0.154400
H 0.362900 1.630300 1.404300
C 1.654900 2.445600 -0.114500
H 1.856900 3.360200 0.443000
H 2.450900 1.724300 0.070100
H 1.609600 2.672000 -1.179800
Se -1.749100 -0.095100 0.021000
H -1.828300 -1.374900 -0.867600
Se 1.377500 -0.779800 0.011600
H 1.146900 -0.923300 1.547800
$end
$scan
stre 10 11 1.200000 1.201000 0.100000
$end
--------------------------------------------------------------

    9   -4921.7163210720      6.91e-07  Convergence criterion met
 Total energy in the final basis set =    -4921.7163210720
    9   -4921.7270734465      6.56e-07  Convergence criterion met
 Total energy in the final basis set =    -4921.7270734465
    9   -4921.7115658405      6.05e-07  Convergence criterion met
 Total energy in the final basis set =    -4921.7115658405
    9   -4921.6828486242      6.07e-07  Convergence criterion met
 Total energy in the final basis set =    -4921.6828486242
    9   -4921.6822578340      6.15e-07  Convergence criterion met
 Total energy in the final basis set =    -4921.6822578340
    9   -4921.6826066027      6.31e-07  Convergence criterion met
 Total energy in the final basis set =    -4921.6826066027
    9   -4921.6826984608      6.33e-07  Convergence criterion met
 Total energy in the final basis set =    -4921.6826984608
    9   -4921.6827964622      6.29e-07  Convergence criterion met
    9   -4921.6828451872      6.25e-07  Convergence criterion met
 Total energy in the final basis set =    -4921.6828451872
    9   -4921.6828522828      6.27e-07  Convergence criterion met
 Total energy in the final basis set =    -4921.6828522828
    9   -4921.6828597347      6.28e-07  Convergence criterion met
 Total energy in the final basis set =    -4921.6828597347
    9   -4921.6828670566      6.29e-07  Convergence criterion met
 Total energy in the final basis set =    -4921.6828670566
    9   -4921.6828714101      6.28e-07  Convergence criterion met
 Total energy in the final basis set =    -4921.6828714101
    9   -4921.6828729504      6.27e-07  Convergence criterion met
 Total energy in the final basis set =    -4921.6828729504

             Standard Nuclear Orientation (Angstroms)
    I     Atom           X                Y                Z
 ----------------------------------------------------------------
    1      C       0.0676364054     0.5066441068    -0.3960589489
    2      H       0.1449678298     0.6459469111    -1.4765578709
    3      C       0.3411393755     1.8291256529     0.3269274837
    4      H      -0.5031808241     2.5006810521     0.1209426014
    5      H       0.3465820913     1.6594067269     1.4097083493
    6      C       1.6406726849     2.5089208435    -0.1133531985
    7      H       1.7659074598     3.4657751975     0.4028136063
    8      H       2.5109462692     1.8853932316     0.1082479372
    9      H       1.6350360315     2.7110319334    -1.1905429638
   10      Se     -1.8045177498    -0.0846039179    -0.0267867184
   11      H      -1.6714459134    -1.1147615493    -0.6276754877
   12      Se      1.4010431688    -0.9280632583    -0.0281610297
   13      H       0.9574131711    -1.1365969303     1.3639962401
 ----------------------------------------------------------------

    9   -4921.6828732461      6.26e-07  Convergence criterion met
 Total energy in the final basis set =    -4921.6828732461

                    Orbital Energies (a.u.)
 --------------------------------------------------------------

 Alpha MOs
 -- Occupied --
*******-453.891 -58.097 -58.090 -52.154 -52.153 -52.151 -52.147
-52.145 -52.143 -10.258 -10.204 -10.183  -7.830  -7.826  -5.776
 -5.772  -5.772  -5.768  -5.762  -5.758  -2.109  -2.109  -2.108
 -2.105  -2.101  -2.098  -2.097  -2.096  -2.093  -2.093  -0.821
 -0.751  -0.710  -0.654  -0.584  -0.466  -0.450  -0.436  -0.387
 -0.378  -0.368  -0.355  -0.342  -0.311  -0.244  -0.223

 Beta MOs
 -- Occupied --
*******-453.891 -58.097 -58.090 -52.154 -52.153 -52.151 -52.147
-52.145 -52.143 -10.258 -10.204 -10.183  -7.830  -7.826  -5.776
 -5.772  -5.772  -5.768  -5.762  -5.758  -2.109  -2.109  -2.108
 -2.105  -2.101  -2.098  -2.097  -2.096  -2.093  -2.093  -0.821
 -0.751  -0.710  -0.654  -0.584  -0.466  -0.450  -0.436  -0.387
 -0.378  -0.368  -0.355  -0.342  -0.311  -0.244  -0.223

          Ground-State Mulliken Net Atomic Charges

     Atom                 Charge (a.u.)    Spin (a.u.)
  --------------------------------------------------------
      1 C                    -0.224137       0.000000
      2 H                     0.152148      -0.000000
      3 C                    -0.180419      -0.000000
      4 H                     0.120408       0.000000
      5 H                     0.119021       0.000000
      6 C                    -0.329591       0.000000
      7 H                     0.110257      -0.000000
      8 H                     0.136935      -0.000000
      9 H                     0.105410      -0.000000
     10 Se                   -0.081079      -0.000000
     11 H                     0.075629       0.000000
     12 Se                   -0.074162       0.000000
     13 H                     0.069582      -0.000000
  --------------------------------------------------------
  Sum of atomic charges =    -0.000000

                    Cartesian Multipole Moments
 -----------------------------------------------------------------
    Charge (ESU x 10^10)
                -0.0000
    Dipole Moment (Debye)
         X       0.4451      Y       0.7461      Z      -0.1599
       Tot       0.8834
    Quadrupole Moments (Debye-Ang)
        XX     -61.5575     XY       2.3644     YY     -55.3210
        XZ       0.8238     YZ      -0.2101     ZZ     -55.8160

 Final energy is   -4921.68287324607
 **  OPTIMIZATION CONVERGED  **
 Total job time:  109.12s(wall), 1281.30s(cpu)
        *  Thank you very much for using Q-Chem.  Have a nice day.  *
