 Q-Chem 5.1, Q-Chem, Inc., Pleasanton, CA (2018)
 Q-Chem 5.1.1 for Intel X86 EM64T Linux

User input:
--------------------------------------------------------------

$comment
potential surface scanner
$end

$rem
JOBTYPE  PES_SCAN
UNRESTRICTED TRUE
SYM_IGNORE  TRUE
GEOM_OPT_MAX_CYCLES 400
SCF_MAX_CYCLES 400
METHOD   B3LYP
BASIS   6-31G**
PDB_PRINT 2
SCF_CONVERGENCE 6
THRESH 14
SCF_PRINT 1
$end
$molecule
0 1
C 0.311481 1.118139 -1.094277
H -1.166865 -0.128453 -2.678966
C 0.392269 2.060204 0.091140
H 0.065619 3.045777 -0.274043
H -0.363253 1.763276 0.831509
C 1.759806 2.189738 0.761861
H 1.697615 2.905113 1.587774
H 2.093720 1.228666 1.162080
H 2.515424 2.537108 0.054504
Se -1.505527 0.627884 -1.463940
H 0.004960 -1.815142 1.600379
Se 1.701313 0.551689 -2.063581
H -0.674350 -1.635092 1.359062
$end
$scan
stre 10 11 4.300000 4.301000 0.100000
$end
--------------------------------------------------------------

   11   -4921.6897503400      3.34e-07  Convergence criterion met
 Total energy in the final basis set =    -4921.6897503400
   11   -4921.6887553154      3.42e-07  Convergence criterion met
 Total energy in the final basis set =    -4921.6887553154
   11   -4921.6890368011      3.40e-07  Convergence criterion met
 Total energy in the final basis set =    -4921.6890368011
   11   -4921.6897564873      3.30e-07  Convergence criterion met
 Total energy in the final basis set =    -4921.6897564873
   11   -4921.6897672365      3.32e-07  Convergence criterion met
 Total energy in the final basis set =    -4921.6897672365
   11   -4921.6897701104      3.33e-07  Convergence criterion met
 Total energy in the final basis set =    -4921.6897701104
   11   -4921.6897771990      3.36e-07  Convergence criterion met
 Total energy in the final basis set =    -4921.6897771990
   11   -4921.6897787585      3.37e-07  Convergence criterion met
   11   -4921.6897859105      3.35e-07  Convergence criterion met
 Total energy in the final basis set =    -4921.6897859105
   11   -4921.6897876243      3.34e-07  Convergence criterion met
 Total energy in the final basis set =    -4921.6897876243
   11   -4921.6897893509      3.33e-07  Convergence criterion met
 Total energy in the final basis set =    -4921.6897893509
   11   -4921.6897921521      3.32e-07  Convergence criterion met
 Total energy in the final basis set =    -4921.6897921521
   11   -4921.6897948916      3.32e-07  Convergence criterion met
 Total energy in the final basis set =    -4921.6897948916
   11   -4921.6897966373      3.33e-07  Convergence criterion met
 Total energy in the final basis set =    -4921.6897966373

             Standard Nuclear Orientation (Angstroms)
    I     Atom           X                Y                Z
 ----------------------------------------------------------------
    1      C       0.3149237033     1.1360683793    -1.1151422108
    2      H      -1.1631531077    -0.1067120368    -2.7045042517
    3      C       0.3931584431     2.0649971154     0.0813095784
    4      H       0.0654898691     3.0542099449    -0.2724645187
    5      H      -0.3617238030     1.7545678479     0.8165762953
    6      C       1.7585593406     2.1872215989     0.7575845090
    7      H       1.6924378358     2.8911729419     1.5929843078
    8      H       2.0914384912     1.2209548083     1.1458980281
    9      H       2.5170783970     2.5446270656     0.0582944387
   10      Se     -1.5021328772     0.6432103698    -1.4851733570
   11      H      -0.0043209042    -1.8584044326     1.6752827431
   12      Se      1.7041996176     0.5844108290    -2.0932866982
   13      H      -0.6737430054    -1.6674174316     1.4161431361
 ----------------------------------------------------------------

   11   -4921.6897975203      3.34e-07  Convergence criterion met
 Total energy in the final basis set =    -4921.6897975203

                    Orbital Energies (a.u.)
 --------------------------------------------------------------

 Alpha MOs
 -- Occupied --
*******-453.879 -58.122 -58.075 -52.180 -52.179 -52.177 -52.132
-52.131 -52.129 -10.289 -10.219 -10.186  -7.856  -7.808  -5.801
 -5.797  -5.790  -5.753  -5.750  -5.741  -2.134  -2.134  -2.128
 -2.124  -2.123  -2.087  -2.086  -2.079  -2.076  -2.074  -0.831
 -0.753  -0.697  -0.652  -0.527  -0.470  -0.449  -0.431  -0.418
 -0.381  -0.370  -0.365  -0.339  -0.306  -0.241  -0.214

 Beta MOs
 -- Occupied --
*******-453.879 -58.122 -58.075 -52.180 -52.179 -52.177 -52.132
-52.131 -52.129 -10.289 -10.219 -10.186  -7.856  -7.808  -5.801
 -5.797  -5.790  -5.753  -5.750  -5.741  -2.134  -2.134  -2.128
 -2.124  -2.123  -2.087  -2.086  -2.079  -2.076  -2.074  -0.831
 -0.753  -0.697  -0.652  -0.527  -0.470  -0.449  -0.431  -0.418
 -0.381  -0.370  -0.365  -0.339  -0.306  -0.241  -0.214

          Ground-State Mulliken Net Atomic Charges

     Atom                 Charge (a.u.)    Spin (a.u.)
  --------------------------------------------------------
      1 C                    -0.032877       0.000000
      2 H                     0.091721       0.000000
      3 C                    -0.225415      -0.000000
      4 H                     0.150821      -0.000000
      5 H                     0.130566      -0.000000
      6 C                    -0.315170      -0.000000
      7 H                     0.104081       0.000000
      8 H                     0.126388       0.000000
      9 H                     0.141250      -0.000000
     10 Se                    0.019763      -0.000000
     11 H                    -0.003877       0.000000
     12 Se                   -0.191345       0.000000
     13 H                     0.004092      -0.000000
  --------------------------------------------------------
  Sum of atomic charges =    -0.000000

                    Cartesian Multipole Moments
 -----------------------------------------------------------------
    Charge (ESU x 10^10)
                 0.0000
    Dipole Moment (Debye)
         X      -1.3571      Y       0.8271      Z       1.1965
       Tot       1.9893
    Quadrupole Moments (Debye-Ang)
        XX     -59.9149     XY       0.0643     YY     -55.5786
        XZ       4.1350     YZ       2.6934     ZZ     -58.9768

 Final energy is   -4921.68979752033
 **  OPTIMIZATION CONVERGED  **
 Total job time:  109.50s(wall), 1231.17s(cpu)
        *  Thank you very much for using Q-Chem.  Have a nice day.  *
