 Q-Chem 5.1, Q-Chem, Inc., Pleasanton, CA (2018)
 Q-Chem 5.1.1 for Intel X86 EM64T Linux

User input:
--------------------------------------------------------------

$comment
potential surface scanner
$end

$rem
JOBTYPE  PES_SCAN
UNRESTRICTED TRUE
SYM_IGNORE  TRUE
GEOM_OPT_MAX_CYCLES 400
SCF_MAX_CYCLES 400
METHOD   B3LYP
BASIS   6-31G**
PDB_PRINT 2
SCF_CONVERGENCE 6
THRESH 14
SCF_PRINT 1
$end
$molecule
0 1
C 0.160331 0.676292 -0.662823
H 0.386722 0.978320 -1.754932
C 0.346666 1.818595 0.344605
H -0.478518 2.523123 0.206368
H 0.218542 1.378170 1.340679
C 1.685091 2.557257 0.264695
H 1.719856 3.345006 1.023514
H 2.527691 1.882143 0.431292
H 1.817689 3.032115 -0.714015
Se -1.631341 0.367938 -1.258009
H -0.390847 -1.868116 0.827953
Se 1.531409 -0.640409 -0.784212
H -1.061086 -1.601529 0.608389
$end
$scan
stre 10 11 3.400000 3.401000 0.100000
$end
--------------------------------------------------------------

   11   -4921.6254109546      6.08e-07  Convergence criterion met
 Total energy in the final basis set =    -4921.6254109546
   11   -4921.6237821196      4.41e-07  Convergence criterion met
 Total energy in the final basis set =    -4921.6237821196
   11   -4921.6246302402      5.31e-07  Convergence criterion met
 Total energy in the final basis set =    -4921.6246302402
   11   -4921.6251023580      7.41e-07  Convergence criterion met
 Total energy in the final basis set =    -4921.6251023580
   11   -4921.6251253797      7.29e-07  Convergence criterion met
 Total energy in the final basis set =    -4921.6251253797
   11   -4921.6251382739      7.15e-07  Convergence criterion met
 Total energy in the final basis set =    -4921.6251382739
   11   -4921.6251630153      6.48e-07  Convergence criterion met
 Total energy in the final basis set =    -4921.6251630153
   11   -4921.6251744109      5.72e-07  Convergence criterion met
 Total energy in the final basis set =    -4921.6251744109
   11   -4921.6251826466      4.88e-07  Convergence criterion met
 Total energy in the final basis set =    -4921.6251826466
   11   -4921.6251849174      4.64e-07  Convergence criterion met
 Total energy in the final basis set =    -4921.6251849174

             Standard Nuclear Orientation (Angstroms)
    I     Atom           X                Y                Z
 ----------------------------------------------------------------
    1      C       0.1625846826     0.6845473706    -0.6692365058
    2      H       0.3948184951     0.9761113345    -1.7684828331
    3      C       0.3499613796     1.8230426498     0.3413741398
    4      H      -0.4766971569     2.5268315216     0.2094383415
    5      H       0.2237986156     1.3759687954     1.3349191216
    6      C       1.6870003883     2.5649397029     0.2653227357
    7      H       1.7207035899     3.3467580922     1.0302801891
    8      H       2.5313875178     1.8906118848     0.4250003854
    9      H       1.8166446398     3.0479282049    -0.7097611743
   10      Se     -1.6207877337     0.4015197673    -1.2922209523
   11      H      -0.4211787086    -1.9242725781     0.8784075810
   12      Se      1.5467356749    -0.6122801403    -0.8224837804
   13      H      -1.0827663843    -1.6528016056     0.6509467519
 ----------------------------------------------------------------

   11   -4921.6251858993      4.65e-07  Convergence criterion met
 Total energy in the final basis set =    -4921.6251858993

                    Orbital Energies (a.u.)
 --------------------------------------------------------------

 Alpha MOs
 -- Occupied --
*******-453.911 -58.106 -58.106 -52.164 -52.164 -52.163 -52.163
-52.160 -52.160 -10.286 -10.212 -10.189  -7.839  -7.839  -5.786
 -5.785  -5.780  -5.780  -5.769  -5.769  -2.119  -2.118  -2.118
 -2.118  -2.110  -2.109  -2.105  -2.105  -2.103  -2.103  -0.841
 -0.753  -0.686  -0.643  -0.561  -0.476  -0.450  -0.439  -0.423
 -0.390  -0.371  -0.351  -0.341  -0.248  -0.244  -0.224

 Beta MOs
 -- Occupied --
*******-453.911 -58.106 -58.106 -52.164 -52.164 -52.163 -52.163
-52.160 -52.160 -10.286 -10.212 -10.189  -7.839  -7.839  -5.786
 -5.785  -5.780  -5.780  -5.769  -5.769  -2.119  -2.118  -2.118
 -2.118  -2.110  -2.109  -2.105  -2.105  -2.103  -2.103  -0.841
 -0.753  -0.686  -0.643  -0.561  -0.476  -0.450  -0.439  -0.423
 -0.390  -0.371  -0.351  -0.341  -0.248  -0.244  -0.224

          Ground-State Mulliken Net Atomic Charges

     Atom                 Charge (a.u.)    Spin (a.u.)
  --------------------------------------------------------
      1 C                    -0.222301      -0.000000
      2 H                     0.192145       0.000000
      3 C                    -0.164517       0.000000
      4 H                     0.133328      -0.000000
      5 H                     0.135629       0.000000
      6 C                    -0.330289       0.000000
      7 H                     0.113096      -0.000000
      8 H                     0.141044       0.000000
      9 H                     0.106898      -0.000000
     10 Se                   -0.057729       0.000000
     11 H                    -0.000711       0.000000
     12 Se                   -0.050261      -0.000000
     13 H                     0.003668      -0.000000
  --------------------------------------------------------
  Sum of atomic charges =    -0.000000

                    Cartesian Multipole Moments
 -----------------------------------------------------------------
    Charge (ESU x 10^10)
                 0.0000
    Dipole Moment (Debye)
         X       0.5660      Y       1.6222      Z       0.7411
       Tot       1.8711
    Quadrupole Moments (Debye-Ang)
        XX     -60.3583     XY       1.6982     YY     -56.6201
        XZ      -1.1084     YZ      -2.1537     ZZ     -58.1362

 Final energy is   -4921.62518589926
 **  OPTIMIZATION CONVERGED  **
 Total job time:  74.44s(wall), 873.07s(cpu)
        *  Thank you very much for using Q-Chem.  Have a nice day.  *
