 Q-Chem 5.1, Q-Chem, Inc., Pleasanton, CA (2018)
 Q-Chem 5.1.1 for Intel X86 EM64T Linux

User input:
--------------------------------------------------------------

$comment
potential surface scanner
$end

$rem
JOBTYPE  PES_SCAN
UNRESTRICTED TRUE
SYM_IGNORE  TRUE
GEOM_OPT_MAX_CYCLES 400
SCF_MAX_CYCLES 400
METHOD   B3LYP
BASIS   6-31G**
PDB_PRINT 2
SCF_CONVERGENCE 6
THRESH 14
SCF_PRINT 1
$end
$molecule
0 1
C 0.189887 0.685353 -0.653182
H 0.389656 0.977701 -1.766253
C 0.369543 1.825150 0.355391
H -0.475017 2.510767 0.245033
H 0.279108 1.371713 1.349890
C 1.689110 2.595464 0.249846
H 1.722790 3.379451 1.012495
H 2.549852 1.938256 0.392876
H 1.787231 3.078406 -0.728864
Se -1.581672 0.439034 -1.341972
H -0.506782 -2.015628 0.909527
Se 1.573842 -0.598967 -0.812102
H -1.155341 -1.737795 0.660819
$end
$scan
stre 10 11 3.600000 3.601000 0.100000
$end
--------------------------------------------------------------

   11   -4921.6250262526      7.95e-07  Convergence criterion met
 Total energy in the final basis set =    -4921.6250262526
   11   -4921.6235429249      7.11e-07  Convergence criterion met
 Total energy in the final basis set =    -4921.6235429249
   11   -4921.6243881971      7.65e-07  Convergence criterion met
 Total energy in the final basis set =    -4921.6243881971
   11   -4921.6248272983      8.38e-07  Convergence criterion met
 Total energy in the final basis set =    -4921.6248272983
   11   -4921.6248436588      8.37e-07  Convergence criterion met
 Total energy in the final basis set =    -4921.6248436588
   11   -4921.6248485024      8.43e-07  Convergence criterion met
 Total energy in the final basis set =    -4921.6248485024
   11   -4921.6248563287      8.53e-07  Convergence criterion met
 Total energy in the final basis set =    -4921.6248563287
   11   -4921.6248603819      8.53e-07  Convergence criterion met
 Total energy in the final basis set =    -4921.6248603819
   11   -4921.6248672701      8.42e-07  Convergence criterion met
 Total energy in the final basis set =    -4921.6248672701
   11   -4921.6248701598      8.27e-07  Convergence criterion met
 Total energy in the final basis set =    -4921.6248701598
   11   -4921.6248711663      8.18e-07  Convergence criterion met
 Total energy in the final basis set =    -4921.6248711663

             Standard Nuclear Orientation (Angstroms)
    I     Atom           X                Y                Z
 ----------------------------------------------------------------
    1      C       0.1954759680     0.6951646748    -0.6683467807
    2      H       0.3842278418     0.9940830389    -1.7841777472
    3      C       0.3716427426     1.8294318649     0.3472017396
    4      H      -0.4719283332     2.5161916807     0.2370674854
    5      H       0.2757672701     1.3696285672     1.3382971184
    6      C       1.6922614450     2.5995793475     0.2537306625
    7      H       1.7241397776     3.3754836379     1.0247157880
    8      H       2.5520036063     1.9402349531     0.3924666013
    9      H       1.7938129006     3.0927700966    -0.7194761250
   10      Se     -1.5745837036     0.4634728736    -1.3706597202
   11      H      -0.5290719543    -2.0699468348     0.9635831589
   12      Se      1.5842866722    -0.5777525471    -0.8436001754
   13      H      -1.1658272330    -1.7794363533     0.7027019946
 ----------------------------------------------------------------

   11   -4921.6248718932      8.12e-07  Convergence criterion met
 Total energy in the final basis set =    -4921.6248718932

                    Orbital Energies (a.u.)
 --------------------------------------------------------------

 Alpha MOs
 -- Occupied --
*******-453.909 -58.107 -58.104 -52.165 -52.164 -52.162 -52.161
-52.160 -52.157 -10.290 -10.213 -10.190  -7.840  -7.836  -5.787
 -5.783  -5.781  -5.778  -5.770  -5.767  -2.120  -2.119  -2.116
 -2.116  -2.111  -2.107  -2.106  -2.104  -2.103  -2.101  -0.843
 -0.754  -0.687  -0.644  -0.559  -0.477  -0.451  -0.436  -0.424
 -0.392  -0.372  -0.350  -0.343  -0.247  -0.244  -0.224

 Beta MOs
 -- Occupied --
*******-453.909 -58.107 -58.104 -52.165 -52.164 -52.162 -52.161
-52.160 -52.157 -10.290 -10.213 -10.190  -7.840  -7.836  -5.787
 -5.783  -5.781  -5.778  -5.770  -5.767  -2.120  -2.119  -2.116
 -2.116  -2.111  -2.107  -2.106  -2.104  -2.103  -2.101  -0.843
 -0.754  -0.687  -0.644  -0.559  -0.477  -0.451  -0.436  -0.424
 -0.392  -0.372  -0.350  -0.343  -0.247  -0.244  -0.224

          Ground-State Mulliken Net Atomic Charges

     Atom                 Charge (a.u.)    Spin (a.u.)
  --------------------------------------------------------
      1 C                    -0.210995      -0.000000
      2 H                     0.192152       0.000000
      3 C                    -0.166722      -0.000000
      4 H                     0.134425      -0.000000
      5 H                     0.137490       0.000000
      6 C                    -0.329459       0.000000
      7 H                     0.113526       0.000000
      8 H                     0.141549      -0.000000
      9 H                     0.107736      -0.000000
     10 Se                   -0.061763       0.000000
     11 H                    -0.001157       0.000000
     12 Se                   -0.060298      -0.000000
     13 H                     0.003517      -0.000000
  --------------------------------------------------------
  Sum of atomic charges =    -0.000000

                    Cartesian Multipole Moments
 -----------------------------------------------------------------
    Charge (ESU x 10^10)
                 0.0000
    Dipole Moment (Debye)
         X       0.4654      Y       1.6617      Z       0.8208
       Tot       1.9109
    Quadrupole Moments (Debye-Ang)
        XX     -60.0811     XY       1.8046     YY     -56.5501
        XZ      -1.0131     YZ      -2.0000     ZZ     -58.3715

 Final energy is   -4921.62487189318
 **  OPTIMIZATION CONVERGED  **
 Total job time:  81.15s(wall), 951.11s(cpu)
        *  Thank you very much for using Q-Chem.  Have a nice day.  *
