 Q-Chem 5.1, Q-Chem, Inc., Pleasanton, CA (2018)
 Q-Chem 5.1.1 for Intel X86 EM64T Linux

User input:
--------------------------------------------------------------

$comment
potential surface scanner
$end

$rem
JOBTYPE  PES_SCAN
UNRESTRICTED TRUE
SYM_IGNORE  TRUE
GEOM_OPT_MAX_CYCLES 400
SCF_MAX_CYCLES 400
METHOD   B3LYP
BASIS   6-31G**
PDB_PRINT 2
SCF_CONVERGENCE 6
THRESH 14
SCF_PRINT 1
$end
$molecule
0 1
C 0.060534 0.577250 -0.351957
H 0.117082 0.707609 -1.433994
C 0.390280 1.900936 0.364313
H -0.439075 2.601356 0.193512
H 0.438054 1.726841 1.444823
C 1.688483 2.551062 -0.126682
H 1.861866 3.494069 0.400934
H 2.546954 1.897275 0.048527
H 1.638523 2.772229 -1.198409
Se -1.819734 0.147481 0.100510
H -1.868169 -1.895058 -0.955750
Se 1.356307 -0.888211 0.010522
H 0.861094 -1.143936 1.377155
$end
$scan
stre 10 11 2.400000 2.401000 0.100000
$end
--------------------------------------------------------------

   12   -4921.6419271850      1.71e-07  Convergence criterion met
 Total energy in the final basis set =    -4921.6419271850
   12   -4921.6311913079      2.18e-07  Convergence criterion met
 Total energy in the final basis set =    -4921.6311913079
   12   -4921.6309502964      2.19e-07  Convergence criterion met
 Total energy in the final basis set =    -4921.6309502964
   12   -4921.6309517644      2.19e-07  Convergence criterion met
 Total energy in the final basis set =    -4921.6309517644

             Standard Nuclear Orientation (Angstroms)
    I     Atom           X                Y                Z
 ----------------------------------------------------------------
    1      C       0.0588025775     0.5839638755    -0.3431858084
    2      H       0.1132682456     0.7129947472    -1.4254862469
    3      C       0.3947055877     1.9091155289     0.3699863095
    4      H      -0.4331734618     2.6117718585     0.2021269825
    5      H       0.4485117415     1.7364436131     1.4503313637
    6      C       1.6922676916     2.5540495229    -0.1302742137
    7      H       1.8713782450     3.4974244101     0.3947041608
    8      H       2.5495467708     1.8977438751     0.0412391720
    9      H       1.6362644411     2.7733020128    -1.2020640822
   10      Se     -1.8192777989     0.1610798502     0.1150765515
   11      H      -1.8864663830    -1.9623493244    -1.0014059831
   12      Se      1.3536625926    -0.8826803410     0.0195095957
   13      H       0.8527087505    -1.1439566291     1.3829461989
 ----------------------------------------------------------------

   12   -4921.6309523917      2.19e-07  Convergence criterion met
 Total energy in the final basis set =    -4921.6309523917

                    Orbital Energies (a.u.)
 --------------------------------------------------------------

 Alpha MOs
 -- Occupied --
*******-453.902 -58.115 -58.097 -52.173 -52.172 -52.168 -52.155
-52.153 -52.151 -10.260 -10.211 -10.188  -7.846  -7.830  -5.793
 -5.788  -5.777  -5.776  -5.772  -5.762  -2.126  -2.126  -2.116
 -2.113  -2.111  -2.110  -2.109  -2.101  -2.098  -2.096  -0.821
 -0.738  -0.689  -0.636  -0.582  -0.471  -0.439  -0.426  -0.388
 -0.378  -0.361  -0.346  -0.319  -0.293  -0.242  -0.224

 Beta MOs
 -- Occupied --
*******-453.902 -58.115 -58.097 -52.173 -52.172 -52.168 -52.155
-52.153 -52.151 -10.260 -10.211 -10.188  -7.846  -7.830  -5.793
 -5.788  -5.777  -5.776  -5.772  -5.762  -2.126  -2.126  -2.116
 -2.113  -2.111  -2.110  -2.109  -2.101  -2.098  -2.096  -0.821
 -0.738  -0.689  -0.636  -0.582  -0.471  -0.439  -0.426  -0.388
 -0.378  -0.361  -0.346  -0.319  -0.293  -0.242  -0.224

          Ground-State Mulliken Net Atomic Charges

     Atom                 Charge (a.u.)    Spin (a.u.)
  --------------------------------------------------------
      1 C                    -0.229145      -0.000000
      2 H                     0.158215       0.000000
      3 C                    -0.195797      -0.000000
      4 H                     0.121278      -0.000000
      5 H                     0.124913       0.000000
      6 C                    -0.327763       0.000000
      7 H                     0.112699      -0.000000
      8 H                     0.139205      -0.000000
      9 H                     0.108532       0.000000
     10 Se                   -0.051015       0.000000
     11 H                     0.024832       0.000000
     12 Se                   -0.055903       0.000000
     13 H                     0.069949      -0.000000
  --------------------------------------------------------
  Sum of atomic charges =    -0.000000

                    Cartesian Multipole Moments
 -----------------------------------------------------------------
    Charge (ESU x 10^10)
                 0.0000
    Dipole Moment (Debye)
         X       0.6335      Y       1.3881      Z       0.1534
       Tot       1.5335
    Quadrupole Moments (Debye-Ang)
        XX     -61.9044     XY       1.4033     YY     -55.2219
        XZ      -0.0900     YZ      -0.2091     ZZ     -56.5745

 Final energy is   -4921.63095239166
 **  OPTIMIZATION CONVERGED  **
 Total job time:  37.21s(wall), 429.97s(cpu)
        *  Thank you very much for using Q-Chem.  Have a nice day.  *
