 Q-Chem 5.1, Q-Chem, Inc., Pleasanton, CA (2018)
 Q-Chem 5.1.1 for Intel X86 EM64T Linux

User input:
--------------------------------------------------------------

$comment
potential surface scanner
$end

$rem
JOBTYPE  PES_SCAN
UNRESTRICTED TRUE
SYM_IGNORE  TRUE
GEOM_OPT_MAX_CYCLES 400
SCF_MAX_CYCLES 400
METHOD   B3LYP
BASIS   6-31G**
PDB_PRINT 2
SCF_CONVERGENCE 6
THRESH 14
SCF_PRINT 1
$end
$molecule
0 1
C 0.134438 0.678685 -0.694489
H 0.387058 1.003232 -1.761355
C 0.323346 1.810402 0.326895
H -0.482035 2.534357 0.170313
H 0.159505 1.371457 1.318188
C 1.679205 2.518577 0.281591
H 1.716082 3.300143 1.046805
H 2.502569 1.823293 0.462444
H 1.845734 2.996943 -0.690280
Se -1.678145 0.320987 -1.207801
H -0.272337 -1.741188 0.794981
Se 1.479052 -0.682811 -0.762773
H -0.962267 -1.485172 0.588985
$end
$scan
stre 10 11 3.300000 3.301000 0.100000
$end
--------------------------------------------------------------

   11   -4921.6258376684      6.46e-07  Convergence criterion met
 Total energy in the final basis set =    -4921.6258376684
   11   -4921.6238302304      6.97e-07  Convergence criterion met
 Total energy in the final basis set =    -4921.6238302304
   11   -4921.6246380119      7.01e-07  Convergence criterion met
 Total energy in the final basis set =    -4921.6246380119
   11   -4921.6251622178      6.61e-07  Convergence criterion met
 Total energy in the final basis set =    -4921.6251622178
   11   -4921.6252082807      6.46e-07  Convergence criterion met
 Total energy in the final basis set =    -4921.6252082807
   11   -4921.6252482870      5.42e-07  Convergence criterion met
 Total energy in the final basis set =    -4921.6252482870
   11   -4921.6253337772      4.10e-07  Convergence criterion met
 Total energy in the final basis set =    -4921.6253337772
   10   -4921.6253607456      9.89e-07  Convergence criterion met
   10   -4921.6253831866      7.17e-07  Convergence criterion met
 Total energy in the final basis set =    -4921.6253831866
   10   -4921.6253936583      7.70e-07  Convergence criterion met
 Total energy in the final basis set =    -4921.6253936583
   11   -4921.6254024140      4.38e-07  Convergence criterion met
 Total energy in the final basis set =    -4921.6254024140
   11   -4921.6254069855      5.57e-07  Convergence criterion met
 Total energy in the final basis set =    -4921.6254069855
   11   -4921.6254092541      6.16e-07  Convergence criterion met
 Total energy in the final basis set =    -4921.6254092541
   11   -4921.6254103435      6.20e-07  Convergence criterion met
 Total energy in the final basis set =    -4921.6254103435

             Standard Nuclear Orientation (Angstroms)
    I     Atom           X                Y                Z
 ----------------------------------------------------------------
    1      C       0.1603309351     0.6762921354    -0.6628228670
    2      H       0.3867217005     0.9783202586    -1.7549324046
    3      C       0.3466659123     1.8185948418     0.3446047473
    4      H      -0.4785175200     2.5231232615     0.2063677646
    5      H       0.2185424158     1.3781701610     1.3406786166
    6      C       1.6850905855     2.5572570727     0.2646950876
    7      H       1.7198561652     3.3450063741     1.0235143830
    8      H       2.5276911066     1.8821425156     0.4312924820
    9      H       1.8176887554     3.0321153734    -0.7140152859
   10      Se     -1.6313413230     0.3679378350    -1.2580085165
   11      H      -0.3908466022    -1.8681164193     0.8279527591
   12      Se      1.5314089419    -0.6404093774    -0.7842116238
   13      H      -1.0610860731    -1.6015290326     0.6083888576
 ----------------------------------------------------------------

   11   -4921.6254109546      6.08e-07  Convergence criterion met
 Total energy in the final basis set =    -4921.6254109546

                    Orbital Energies (a.u.)
 --------------------------------------------------------------

 Alpha MOs
 -- Occupied --
*******-453.912 -58.107 -58.107 -52.165 -52.165 -52.163 -52.163
-52.160 -52.160 -10.284 -10.211 -10.189  -7.839  -7.839  -5.786
 -5.786  -5.781  -5.780  -5.770  -5.770  -2.119  -2.119  -2.119
 -2.119  -2.110  -2.110  -2.105  -2.105  -2.104  -2.104  -0.839
 -0.752  -0.685  -0.642  -0.563  -0.476  -0.449  -0.441  -0.422
 -0.389  -0.370  -0.350  -0.341  -0.248  -0.244  -0.224

 Beta MOs
 -- Occupied --
*******-453.912 -58.107 -58.107 -52.165 -52.165 -52.163 -52.163
-52.160 -52.160 -10.284 -10.211 -10.189  -7.839  -7.839  -5.786
 -5.786  -5.781  -5.780  -5.770  -5.770  -2.119  -2.119  -2.119
 -2.119  -2.110  -2.110  -2.105  -2.105  -2.104  -2.104  -0.839
 -0.752  -0.685  -0.642  -0.563  -0.476  -0.449  -0.441  -0.422
 -0.389  -0.370  -0.350  -0.341  -0.248  -0.244  -0.224

          Ground-State Mulliken Net Atomic Charges

     Atom                 Charge (a.u.)    Spin (a.u.)
  --------------------------------------------------------
      1 C                    -0.229412       0.000000
      2 H                     0.191411       0.000000
      3 C                    -0.163104      -0.000000
      4 H                     0.132313       0.000000
      5 H                     0.134403      -0.000000
      6 C                    -0.330470       0.000000
      7 H                     0.113080      -0.000000
      8 H                     0.140558       0.000000
      9 H                     0.106344      -0.000000
     10 Se                   -0.053385       0.000000
     11 H                     0.000027       0.000000
     12 Se                   -0.045661      -0.000000
     13 H                     0.003895      -0.000000
  --------------------------------------------------------
  Sum of atomic charges =     0.000000

                    Cartesian Multipole Moments
 -----------------------------------------------------------------
    Charge (ESU x 10^10)
                -0.0000
    Dipole Moment (Debye)
         X       0.5597      Y       1.6140      Z       0.6873
       Tot       1.8414
    Quadrupole Moments (Debye-Ang)
        XX     -60.4383     XY       1.7222     YY     -56.6554
        XZ      -1.1617     YZ      -2.2209     ZZ     -58.0406

 Final energy is   -4921.62541095460
 **  OPTIMIZATION CONVERGED  **
 Total job time:  112.59s(wall), 1327.91s(cpu)
        *  Thank you very much for using Q-Chem.  Have a nice day.  *
