 Q-Chem 5.1, Q-Chem, Inc., Pleasanton, CA (2018)
 Q-Chem 5.1.1 for Intel X86 EM64T Linux

User input:
--------------------------------------------------------------

$comment
potential surface scanner
$end

$rem
JOBTYPE  PES_SCAN
UNRESTRICTED TRUE
SYM_IGNORE  TRUE
GEOM_OPT_MAX_CYCLES 400
SCF_MAX_CYCLES 400
METHOD   B3LYP
BASIS   6-31G**
PDB_PRINT 2
SCF_CONVERGENCE 6
THRESH 14
SCF_PRINT 1
$end
$molecule
0 1
C 0.053944 0.617438 -0.327063
H 0.103310 0.747030 -1.409605
C 0.413061 1.940374 0.385210
H -0.407361 2.653945 0.228882
H 0.478905 1.764105 1.463978
C 1.712196 2.569359 -0.132575
H 1.908603 3.509273 0.392454
H 2.563323 1.902195 0.026844
H 1.643950 2.791639 -1.202905
Se -1.819215 0.222683 0.147646
H -1.978921 -2.270896 -1.115903
Se 1.335899 -0.863498 0.029547
H 0.824508 -1.134742 1.386995
$end
$scan
stre 10 11 2.900000 2.901000 0.100000
$end
--------------------------------------------------------------

   14   -4921.5945282270      1.60e-07  Convergence criterion met
 Total energy in the final basis set =    -4921.5945282270
   14   -4921.5873761768      5.29e-07  Convergence criterion met
 Total energy in the final basis set =    -4921.5873761768
   14   -4921.5872408208      5.46e-07  Convergence criterion met
 Total energy in the final basis set =    -4921.5872408208
   14   -4921.5872431842      5.51e-07  Convergence criterion met
 Total energy in the final basis set =    -4921.5872431842

             Standard Nuclear Orientation (Angstroms)
    I     Atom           X                Y                Z
 ----------------------------------------------------------------
    1      C       0.0533168520     0.6284321945    -0.3275363178
    2      H       0.1038583665     0.7602051920    -1.4098009712
    3      C       0.4180221995     1.9484284442     0.3883109952
    4      H      -0.4000777802     2.6654985055     0.2360294456
    5      H       0.4852920440     1.7680482706     1.4662144991
    6      C       1.7183565219     2.5743234213    -0.1306267042
    7      H       1.9191486715     3.5114755459     0.3976904706
    8      H       2.5674265477     1.9035426541     0.0243275156
    9      H       1.6482367006     2.8009705653    -1.1998864638
   10      Se     -1.8193567291     0.2377915081     0.1461330717
   11      H      -2.0078081183    -2.3605338246    -1.1279120865
   12      Se      1.3296899233    -0.8584831026     0.0270868992
   13      H       0.8160968005    -1.1307943742     1.3834746465
 ----------------------------------------------------------------

   14   -4921.5872437336      5.50e-07  Convergence criterion met
 Total energy in the final basis set =    -4921.5872437336

                    Orbital Energies (a.u.)
 --------------------------------------------------------------

 Alpha MOs
 -- Occupied --
*******-453.902 -58.117 -58.098 -52.176 -52.174 -52.171 -52.155
-52.154 -52.151 -10.262 -10.213 -10.190  -7.849  -7.831  -5.795
 -5.791  -5.779  -5.777  -5.773  -5.763  -2.129  -2.128  -2.119
 -2.115  -2.113  -2.110  -2.110  -2.102  -2.098  -2.097  -0.823
 -0.740  -0.690  -0.637  -0.584  -0.472  -0.440  -0.427  -0.389
 -0.380  -0.362  -0.348  -0.320  -0.270  -0.243  -0.225

 Beta MOs
 -- Occupied --
*******-453.902 -58.117 -58.098 -52.176 -52.174 -52.171 -52.155
-52.154 -52.151 -10.262 -10.213 -10.190  -7.849  -7.831  -5.795
 -5.791  -5.779  -5.777  -5.773  -5.763  -2.129  -2.128  -2.119
 -2.115  -2.113  -2.110  -2.110  -2.102  -2.098  -2.097  -0.823
 -0.740  -0.690  -0.637  -0.584  -0.472  -0.440  -0.427  -0.389
 -0.380  -0.362  -0.348  -0.320  -0.270  -0.243  -0.225

          Ground-State Mulliken Net Atomic Charges

     Atom                 Charge (a.u.)    Spin (a.u.)
  --------------------------------------------------------
      1 C                    -0.233370      -0.000000
      2 H                     0.159769       0.000000
      3 C                    -0.195733      -0.000000
      4 H                     0.122133       0.000000
      5 H                     0.127080       0.000000
      6 C                    -0.327791      -0.000000
      7 H                     0.113962       0.000000
      8 H                     0.139948      -0.000000
      9 H                     0.109566      -0.000000
     10 Se                   -0.046802      -0.000000
     11 H                     0.013441       0.000000
     12 Se                   -0.052801      -0.000000
     13 H                     0.070598       0.000000
  --------------------------------------------------------
  Sum of atomic charges =    -0.000000

                    Cartesian Multipole Moments
 -----------------------------------------------------------------
    Charge (ESU x 10^10)
                -0.0000
    Dipole Moment (Debye)
         X       0.7723      Y       1.5701      Z       0.2253
       Tot       1.7643
    Quadrupole Moments (Debye-Ang)
        XX     -61.9581     XY       1.2188     YY     -54.9874
        XZ      -0.2708     YZ      -0.3338     ZZ     -56.7208

 Final energy is   -4921.58724373355
 **  OPTIMIZATION CONVERGED  **
 Total job time:  45.52s(wall), 473.90s(cpu)
        *  Thank you very much for using Q-Chem.  Have a nice day.  *
