 Q-Chem 5.1, Q-Chem, Inc., Pleasanton, CA (2018)
 Q-Chem 5.1.1 for Intel X86 EM64T Linux

User input:
--------------------------------------------------------------

$comment
potential surface scanner
$end

$rem
JOBTYPE  PES_SCAN
UNRESTRICTED TRUE
SYM_IGNORE  TRUE
GEOM_OPT_MAX_CYCLES 400
SCF_MAX_CYCLES 400
METHOD   B3LYP
BASIS   6-31G**
PDB_PRINT 2
SCF_CONVERGENCE 6
THRESH 14
SCF_PRINT 1
$end
$molecule
0 3
C 0.559632 1.016958 -1.103684
H 0.150493 1.764524 -1.783230
C 0.666588 1.530960 0.322979
H -0.353886 1.717142 0.684432
H 1.088395 0.749834 0.964011
C 1.495676 2.817108 0.431251
H 1.508490 3.177603 1.464066
H 2.531256 2.650416 0.119320
H 1.078866 3.612510 -0.196069
Se -0.353300 -0.714888 -1.357256
H -1.664272 -1.881285 0.824687
Se 2.169461 0.186712 -1.889863
H -2.045204 -2.178692 1.392857
$end
$scan
stre 10 11 2.700000 2.701000 0.100000
$end
--------------------------------------------------------------

   11   -4921.6664075943      6.54e-07  Convergence criterion met
 Total energy in the final basis set =    -4921.6664075943
   11   -4921.6658402966      6.69e-07  Convergence criterion met
 Total energy in the final basis set =    -4921.6658402966
   11   -4921.6658300017      6.69e-07  Convergence criterion met
 Total energy in the final basis set =    -4921.6658300017
   11   -4921.6658310263      6.70e-07  Convergence criterion met
 Total energy in the final basis set =    -4921.6658310263
   11   -4921.6658338273      6.73e-07  Convergence criterion met
 Total energy in the final basis set =    -4921.6658338273
   11   -4921.6658384089      6.79e-07  Convergence criterion met
 Total energy in the final basis set =    -4921.6658384089
   11   -4921.6658449887      6.85e-07  Convergence criterion met
 Total energy in the final basis set =    -4921.6658449887
   11   -4921.6658505223      6.84e-07  Convergence criterion met
 Total energy in the final basis set =    -4921.6658505223
   11   -4921.6658528440      6.78e-07  Convergence criterion met
 Total energy in the final basis set =    -4921.6658528440

             Standard Nuclear Orientation (Angstroms)
    I     Atom           X                Y                Z
 ----------------------------------------------------------------
    1      C       0.5529239904     1.0083323758    -1.0657006076
    2      H       0.1360521102     1.7420138930    -1.7555796551
    3      C       0.6854753416     1.5545453102     0.3468520845
    4      H      -0.3288402290     1.7448538463     0.7232246029
    5      H       1.1227511257     0.7892855726     0.9964795187
    6      C       1.5117462915     2.8454186008     0.4089834130
    7      H       1.5584675770     3.2212805538     1.4353903842
    8      H       2.5369338589     2.6784887605     0.0642782356
    9      H       1.0702873494     3.6298318732    -0.2153006745
   10      Se     -0.3727082829    -0.7244577559    -1.2627171037
   11      H      -1.7007747743    -1.9116140259     0.7662973147
   12      Se      2.1452600198     0.1508137477    -1.8581488715
   13      H      -2.0853793784    -2.2798907521     1.2894423588
 ----------------------------------------------------------------

   11   -4921.6658536029      6.72e-07  Convergence criterion met
 Total energy in the final basis set =    -4921.6658536029

                    Orbital Energies (a.u.)
 --------------------------------------------------------------

 Alpha MOs
 -- Occupied --
*******-453.916 -58.110 -58.110 -52.167 -52.167 -52.167 -52.167
-52.166 -52.166 -10.261 -10.207 -10.190  -7.844  -7.844  -5.787
 -5.787  -5.784  -5.783  -5.782  -5.782  -2.120  -2.119  -2.119
 -2.118  -2.117  -2.117  -2.114  -2.114  -2.114  -2.114  -0.830
 -0.755  -0.672  -0.651  -0.580  -0.473  -0.445  -0.429  -0.422
 -0.392  -0.370  -0.356  -0.323  -0.299  -0.276  -0.254  -0.203

 Beta MOs
 -- Occupied --
*******-453.914 -58.109 -58.109 -52.166 -52.166 -52.164 -52.164
-52.164 -52.164 -10.261 -10.207 -10.190  -7.841  -7.840  -5.785
 -5.785  -5.778  -5.778  -5.777  -5.777  -2.117  -2.116  -2.115
 -2.114  -2.114  -2.114  -2.109  -2.109  -2.108  -2.108  -0.824
 -0.745  -0.647  -0.630  -0.573  -0.470  -0.441  -0.427  -0.417
 -0.386  -0.367  -0.351  -0.314  -0.262  -0.231

          Ground-State Mulliken Net Atomic Charges

     Atom                 Charge (a.u.)    Spin (a.u.)
  --------------------------------------------------------
      1 C                    -0.227620      -0.046999
      2 H                     0.155073      -0.001237
      3 C                    -0.173215       0.002715
      4 H                     0.120787       0.000940
      5 H                     0.122502      -0.001513
      6 C                    -0.328383       0.002680
      7 H                     0.114870      -0.000187
      8 H                     0.126721      -0.000411
      9 H                     0.109476       0.000166
     10 Se                   -0.004116       1.008881
     11 H                     0.000364      -0.005568
     12 Se                   -0.006741       1.023684
     13 H                    -0.009717       0.016849
  --------------------------------------------------------
  Sum of atomic charges =     0.000000

                    Cartesian Multipole Moments
 -----------------------------------------------------------------
    Charge (ESU x 10^10)
                 0.0000
    Dipole Moment (Debye)
         X      -0.2406      Y       1.8729      Z       0.8266
       Tot       2.0613
    Quadrupole Moments (Debye-Ang)
        XX     -59.7533     XY       0.5552     YY     -55.6055
        XZ       1.3924     YZ      -0.8753     ZZ     -59.2502

 Final energy is   -4921.66585360289
 **  OPTIMIZATION CONVERGED  **
 Total job time:  65.49s(wall), 769.33s(cpu)
        *  Thank you very much for using Q-Chem.  Have a nice day.  *
