 Q-Chem 5.1, Q-Chem, Inc., Pleasanton, CA (2018)
 Q-Chem 5.1.1 for Intel X86 EM64T Linux

User input:
--------------------------------------------------------------

$comment
potential surface scanner
$end

$rem
JOBTYPE  PES_SCAN
UNRESTRICTED TRUE
SYM_IGNORE  TRUE
GEOM_OPT_MAX_CYCLES 400
SCF_MAX_CYCLES 400
METHOD   B3LYP
BASIS   6-31G**
PDB_PRINT 2
SCF_CONVERGENCE 6
THRESH 14
SCF_PRINT 1
$end
$molecule
0 3
C 0.130796 0.939227 -0.766053
H 0.227660 1.463835 -1.719489
C 0.426137 1.861102 0.413528
H -0.405022 2.576888 0.467830
H 0.387089 1.282559 1.343150
C 1.748406 2.627782 0.304265
H 1.861308 3.311209 1.151457
H 2.608265 1.951858 0.299147
H 1.786521 3.226337 -0.612513
Se -1.575035 -0.020924 -0.705244
H -2.953731 -3.088639 0.263427
Se 1.377550 -0.610560 -0.979318
H 1.212255 -1.071777 0.413316
$end
$scan
stre 10 11 3.400000 3.401000 0.100000
$end
--------------------------------------------------------------

   11   -4921.6076293487      8.56e-07  Convergence criterion met
 Total energy in the final basis set =    -4921.6076293487
   12   -4921.6076080002      6.56e-07  Convergence criterion met
 Total energy in the final basis set =    -4921.6076080002
   12   -4921.6076093171      6.57e-07  Convergence criterion met
 Total energy in the final basis set =    -4921.6076093171
   11   -4921.6076400671      9.57e-07  Convergence criterion met
 Total energy in the final basis set =    -4921.6076400671
   11   -4921.6076509509      9.32e-07  Convergence criterion met
 Total energy in the final basis set =    -4921.6076509509
   11   -4921.6076707928      8.85e-07  Convergence criterion met
 Total energy in the final basis set =    -4921.6076707928
   11   -4921.6076821502      8.61e-07  Convergence criterion met
 Total energy in the final basis set =    -4921.6076821502
   11   -4921.6076912596      8.49e-07  Convergence criterion met
   12   -4921.6085959338      6.00e-07  Convergence criterion met
 Total energy in the final basis set =    -4921.6085959338
   12   -4921.6086181666      6.09e-07  Convergence criterion met
 Total energy in the final basis set =    -4921.6086181666
   12   -4921.6085361658      5.58e-07  Convergence criterion met
 Total energy in the final basis set =    -4921.6085361658
   12   -4921.6085524606      5.96e-07  Convergence criterion met
 Total energy in the final basis set =    -4921.6085524606
   12   -4921.6086658614      6.04e-07  Convergence criterion met
 Total energy in the final basis set =    -4921.6086658614
   12   -4921.6086677357      6.09e-07  Convergence criterion met
 Total energy in the final basis set =    -4921.6086677357

             Standard Nuclear Orientation (Angstroms)
    I     Atom           X                Y                Z
 ----------------------------------------------------------------
    1      C       0.2767897893     0.8781870094    -1.0995228317
    2      H       0.5735446223     1.5564855792    -1.9029901643
    3      C       0.1901399508     1.6016735696     0.2412311795
    4      H      -0.6801380052     2.2687996798     0.1832449553
    5      H      -0.0394666670     0.8753107804     1.0287407779
    6      C       1.4348214809     2.4217537105     0.5983224675
    7      H       1.2813995229     2.9525735725     1.5428759485
    8      H       2.3191186253     1.7876335794     0.7090854299
    9      H       1.6531971240     3.1696288149    -0.1718586024
   10      Se     -1.3050257014    -0.1382212081    -1.6447577470
   11      H      -1.7132916992    -1.0880250812     1.5942531585
   12      Se      1.6531342746    -0.5662844327    -1.2087722506
   13      H       1.1879756829    -1.2706185738     0.0036506789
 ----------------------------------------------------------------

   12   -4921.6086686020      6.06e-07  Convergence criterion met
 Total energy in the final basis set =    -4921.6086686020

                    Orbital Energies (a.u.)
 --------------------------------------------------------------

 Alpha MOs
 -- Occupied --
*******-453.893 -58.122 -58.088 -52.180 -52.178 -52.177 -52.146
-52.145 -52.141 -10.262 -10.207 -10.189  -7.856  -7.821  -5.800
 -5.797  -5.790  -5.767  -5.764  -5.752  -2.134  -2.133  -2.127
 -2.124  -2.123  -2.101  -2.100  -2.091  -2.089  -2.086  -0.825
 -0.750  -0.693  -0.642  -0.584  -0.471  -0.445  -0.424  -0.400
 -0.384  -0.363  -0.353  -0.322  -0.302  -0.280  -0.228  -0.224

 Beta MOs
 -- Occupied --
*******-453.891 -58.122 -58.087 -52.179 -52.178 -52.176 -52.144
-52.142 -52.140 -10.262 -10.207 -10.189  -7.855  -7.818  -5.800
 -5.796  -5.788  -5.763  -5.759  -5.750  -2.133  -2.133  -2.126
 -2.123  -2.122  -2.096  -2.096  -2.089  -2.085  -2.084  -0.823
 -0.746  -0.682  -0.630  -0.578  -0.470  -0.444  -0.420  -0.397
 -0.382  -0.361  -0.347  -0.317  -0.255  -0.216

          Ground-State Mulliken Net Atomic Charges

     Atom                 Charge (a.u.)    Spin (a.u.)
  --------------------------------------------------------
      1 C                    -0.234045      -0.033320
      2 H                     0.156589       0.003280
      3 C                    -0.169929       0.011669
      4 H                     0.122632      -0.000755
      5 H                     0.117824      -0.004696
      6 C                    -0.329736      -0.000339
      7 H                     0.113496       0.000367
      8 H                     0.127330       0.000096
      9 H                     0.108249       0.000498
     10 Se                   -0.094964       0.849540
     11 H                    -0.017967       0.965170
     12 Se                    0.019809       0.215462
     13 H                     0.080711      -0.006972
  --------------------------------------------------------
  Sum of atomic charges =     0.000000

                    Cartesian Multipole Moments
 -----------------------------------------------------------------
    Charge (ESU x 10^10)
                 0.0000
    Dipole Moment (Debye)
         X       1.5988      Y       1.3889      Z       1.2254
       Tot       2.4469
    Quadrupole Moments (Debye-Ang)
        XX     -60.1088     XY      -0.8074     YY     -54.6699
        XZ      -1.2941     YZ      -1.9433     ZZ     -61.2785

 Final energy is   -4921.60866860197
 **  OPTIMIZATION CONVERGED  **
 Total job time:  293.08s(wall), 3454.90s(cpu)
        *  Thank you very much for using Q-Chem.  Have a nice day.  *
