 Q-Chem 5.1, Q-Chem, Inc., Pleasanton, CA (2018)
 Q-Chem 5.1.1 for Intel X86 EM64T Linux

User input:
--------------------------------------------------------------

$comment
potential surface scanner
$end

$rem
JOBTYPE  PES_SCAN
UNRESTRICTED TRUE
SYM_IGNORE  TRUE
GEOM_OPT_MAX_CYCLES 400
SCF_MAX_CYCLES 400
METHOD   B3LYP
BASIS   6-31G**
PDB_PRINT 2
SCF_CONVERGENCE 6
THRESH 14
SCF_PRINT 1
$end
$molecule
0 3
C 0.034145 1.035465 -0.724232
H 0.184544 1.498471 -1.701959
C 0.436650 1.975755 0.407213
H -0.302426 2.787880 0.415844
H 0.326236 1.457235 1.366115
C 1.843078 2.568242 0.267658
H 2.036868 3.280073 1.075801
H 2.612993 1.792184 0.309081
H 1.957070 3.102916 -0.681711
Se -1.763965 0.270001 -0.616280
H -2.591735 -3.693630 0.027479
Se 1.099783 -0.654428 -0.852933
H 0.958957 -0.971266 0.581423
$end
$scan
stre 10 11 4.000000 4.001000 0.100000
$end
--------------------------------------------------------------

   11   -4921.6075053641      6.79e-07  Convergence criterion met
 Total energy in the final basis set =    -4921.6075053641
   11   -4921.6074972382      6.89e-07  Convergence criterion met
 Total energy in the final basis set =    -4921.6074972382
   11   -4921.6074999744      6.88e-07  Convergence criterion met
 Total energy in the final basis set =    -4921.6074999744
   11   -4921.6075067331      6.83e-07  Convergence criterion met
 Total energy in the final basis set =    -4921.6075067331

             Standard Nuclear Orientation (Angstroms)
    I     Atom           X                Y                Z
 ----------------------------------------------------------------
    1      C       0.0383265000     1.0214996033    -0.7203249952
    2      H       0.1817133087     1.4849090212    -1.6989214286
    3      C       0.4352185323     1.9664344409     0.4092061576
    4      H      -0.3117150911     2.7713252431     0.4199839225
    5      H       0.3332211451     1.4473409971     1.3687247691
    6      C       1.8353670076     2.5725363990     0.2645968493
    7      H       2.0249589700     3.2864780293     1.0718662288
    8      H       2.6130032034     1.8040532059     0.3035188115
    9      H       1.9407674766     3.1080280740    -0.6853019645
   10      Se     -1.7519749696     0.2391007411    -0.6066423700
   11      H      -2.6104531402    -3.6182929068     0.0126553950
   12      Se      1.1195899872    -0.6583361779    -0.8503080583
   13      H       0.9841750700    -0.9761786702     0.5844456827
 ----------------------------------------------------------------

   11   -4921.6075073953      6.83e-07  Convergence criterion met
 Total energy in the final basis set =    -4921.6075073953

                    Orbital Energies (a.u.)
 --------------------------------------------------------------

 Alpha MOs
 -- Occupied --
*******-453.888 -58.121 -58.083 -52.178 -52.177 -52.176 -52.142
-52.140 -52.137 -10.260 -10.207 -10.189  -7.855  -7.817  -5.799
 -5.796  -5.788  -5.763  -5.759  -5.747  -2.133  -2.132  -2.126
 -2.123  -2.122  -2.097  -2.096  -2.086  -2.084  -2.082  -0.824
 -0.749  -0.691  -0.641  -0.582  -0.470  -0.444  -0.423  -0.399
 -0.384  -0.361  -0.351  -0.321  -0.308  -0.277  -0.225  -0.223

 Beta MOs
 -- Occupied --
*******-453.887 -58.121 -58.082 -52.178 -52.177 -52.175 -52.140
-52.138 -52.136 -10.260 -10.207 -10.189  -7.854  -7.814  -5.799
 -5.795  -5.787  -5.759  -5.755  -5.746  -2.132  -2.131  -2.125
 -2.122  -2.121  -2.092  -2.092  -2.084  -2.081  -2.079  -0.822
 -0.745  -0.681  -0.629  -0.576  -0.470  -0.443  -0.419  -0.397
 -0.382  -0.360  -0.346  -0.316  -0.254  -0.213

          Ground-State Mulliken Net Atomic Charges

     Atom                 Charge (a.u.)    Spin (a.u.)
  --------------------------------------------------------
      1 C                    -0.232625      -0.030841
      2 H                     0.155871       0.001660
      3 C                    -0.172157       0.002370
      4 H                     0.123143      -0.000559
      5 H                     0.117847      -0.000319
      6 C                    -0.328278       0.000036
      7 H                     0.112600       0.000283
      8 H                     0.126532       0.000069
      9 H                     0.108792       0.000030
     10 Se                   -0.110236       0.823441
     11 H                     0.001282       0.996986
     12 Se                    0.019750       0.212777
     13 H                     0.077481      -0.005934
  --------------------------------------------------------
  Sum of atomic charges =     0.000000

                    Cartesian Multipole Moments
 -----------------------------------------------------------------
    Charge (ESU x 10^10)
                 0.0000
    Dipole Moment (Debye)
         X       2.0770      Y       1.2551      Z       0.7465
       Tot       2.5390
    Quadrupole Moments (Debye-Ang)
        XX     -61.4371     XY       0.0456     YY     -54.3948
        XZ      -0.6073     YZ      -1.5781     ZZ     -58.4137

 Final energy is   -4921.60750739527
 **  OPTIMIZATION CONVERGED  **
 Total job time:  34.17s(wall), 396.18s(cpu)
        *  Thank you very much for using Q-Chem.  Have a nice day.  *
