 Q-Chem 5.1, Q-Chem, Inc., Pleasanton, CA (2018)
 Q-Chem 5.1.1 for Intel X86 EM64T Linux

User input:
--------------------------------------------------------------

$comment
potential surface scanner
$end

$rem
JOBTYPE  PES_SCAN
UNRESTRICTED TRUE
SYM_IGNORE  TRUE
GEOM_OPT_MAX_CYCLES 400
SCF_MAX_CYCLES 400
METHOD   B3LYP
BASIS   6-31G**
PDB_PRINT 2
SCF_CONVERGENCE 6
THRESH 14
SCF_PRINT 1
$end
$molecule
0 1
C 0.053317 0.628432 -0.327536
H 0.103858 0.760205 -1.409801
C 0.418022 1.948428 0.388311
H -0.400078 2.665499 0.236029
H 0.485292 1.768048 1.466214
C 1.718357 2.574323 -0.130627
H 1.919149 3.511476 0.397690
H 2.567427 1.903543 0.024328
H 1.648237 2.800971 -1.199886
Se -1.819357 0.237792 0.146133
H -2.007808 -2.360534 -1.127912
Se 1.329690 -0.858483 0.027087
H 0.816097 -1.130794 1.383475
$end
$scan
stre 10 11 3.000000 3.001000 0.100000
$end
--------------------------------------------------------------

   14   -4921.5872436988      5.50e-07  Convergence criterion met
 Total energy in the final basis set =    -4921.5872436988
   15   -4921.5807330244      2.61e-07  Convergence criterion met
 Total energy in the final basis set =    -4921.5807330244
   15   -4921.5806132674      2.29e-07  Convergence criterion met
 Total energy in the final basis set =    -4921.5806132674
   15   -4921.5806161791      1.97e-07  Convergence criterion met
 Total energy in the final basis set =    -4921.5806161791

             Standard Nuclear Orientation (Angstroms)
    I     Atom           X                Y                Z
 ----------------------------------------------------------------
    1      C       0.0536970887     0.6392738499    -0.3268821709
    2      H       0.1054757453     0.7729243899    -1.4089026518
    3      C       0.4233463996     1.9561956425     0.3917899366
    4      H      -0.3930409773     2.6760206793     0.2431475649
    5      H       0.4920865040     1.7725387283     1.4689612110
    6      C       1.7244254068     2.5794894393    -0.1288775357
    7      H       1.9294572646     3.5142398545     0.4020464113
    8      H       2.5719258898     1.9057469507     0.0214815127
    9      H       1.6519946887     2.8098592705    -1.1971745964
   10      Se     -1.8182839216     0.2478268391     0.1443695614
   11      H      -2.0461414050    -2.4502801031    -1.1472571146
   12      Se      1.3239288084    -0.8539656620     0.0260754747
   13      H       0.8133315080    -1.1209638790     1.3847273967
 ----------------------------------------------------------------

   15   -4921.5806170058      1.94e-07  Convergence criterion met
 Total energy in the final basis set =    -4921.5806170058

                    Orbital Energies (a.u.)
 --------------------------------------------------------------

 Alpha MOs
 -- Occupied --
*******-453.902 -58.117 -58.098 -52.176 -52.174 -52.171 -52.155
-52.154 -52.152 -10.262 -10.214 -10.190  -7.849  -7.831  -5.796
 -5.791  -5.779  -5.777  -5.773  -5.763  -2.129  -2.129  -2.119
 -2.116  -2.113  -2.110  -2.110  -2.102  -2.098  -2.097  -0.823
 -0.740  -0.690  -0.637  -0.584  -0.472  -0.440  -0.427  -0.389
 -0.380  -0.362  -0.348  -0.320  -0.267  -0.243  -0.225

 Beta MOs
 -- Occupied --
*******-453.902 -58.117 -58.098 -52.176 -52.174 -52.171 -52.155
-52.154 -52.152 -10.262 -10.214 -10.190  -7.849  -7.831  -5.796
 -5.791  -5.779  -5.777  -5.773  -5.763  -2.129  -2.129  -2.119
 -2.116  -2.113  -2.110  -2.110  -2.102  -2.098  -2.097  -0.823
 -0.740  -0.690  -0.637  -0.584  -0.472  -0.440  -0.427  -0.389
 -0.380  -0.362  -0.348  -0.320  -0.267  -0.243  -0.225

          Ground-State Mulliken Net Atomic Charges

     Atom                 Charge (a.u.)    Spin (a.u.)
  --------------------------------------------------------
      1 C                    -0.234106       0.000000
      2 H                     0.159779      -0.000000
      3 C                    -0.194773      -0.000000
      4 H                     0.121868       0.000000
      5 H                     0.127196       0.000000
      6 C                    -0.327976      -0.000000
      7 H                     0.114146      -0.000000
      8 H                     0.140062      -0.000000
      9 H                     0.109670       0.000000
     10 Se                   -0.045383      -0.000000
     11 H                     0.011438       0.000000
     12 Se                   -0.052495       0.000000
     13 H                     0.070574      -0.000000
  --------------------------------------------------------
  Sum of atomic charges =    -0.000000

                    Cartesian Multipole Moments
 -----------------------------------------------------------------
    Charge (ESU x 10^10)
                -0.0000
    Dipole Moment (Debye)
         X       0.7934      Y       1.6038      Z       0.2415
       Tot       1.8055
    Quadrupole Moments (Debye-Ang)
        XX     -61.9507     XY       1.1678     YY     -54.9723
        XZ      -0.2978     YZ      -0.3735     ZZ     -56.7576

 Final energy is   -4921.58061700583
 **  OPTIMIZATION CONVERGED  **
 Total job time:  42.44s(wall), 496.32s(cpu)
        *  Thank you very much for using Q-Chem.  Have a nice day.  *
