 Q-Chem 5.1, Q-Chem, Inc., Pleasanton, CA (2018)
 Q-Chem 5.1.1 for Intel X86 EM64T Linux

User input:
--------------------------------------------------------------

$comment
potential surface scanner
$end

$rem
JOBTYPE  PES_SCAN
UNRESTRICTED TRUE
SYM_IGNORE  TRUE
GEOM_OPT_MAX_CYCLES 400
SCF_MAX_CYCLES 400
METHOD   B3LYP
BASIS   6-31G**
PDB_PRINT 2
SCF_CONVERGENCE 6
THRESH 14
SCF_PRINT 1
$end
$molecule
0 1
C 0.053697 0.639274 -0.326882
H 0.105476 0.772924 -1.408903
C 0.423346 1.956196 0.391790
H -0.393041 2.676021 0.243148
H 0.492087 1.772539 1.468961
C 1.724425 2.579489 -0.128878
H 1.929457 3.514240 0.402046
H 2.571926 1.905747 0.021482
H 1.651995 2.809859 -1.197175
Se -1.818284 0.247827 0.144370
H -2.046141 -2.450280 -1.147257
Se 1.323929 -0.853966 0.026075
H 0.813332 -1.120964 1.384727
$end
$scan
stre 10 11 3.100000 3.101000 0.100000
$end
--------------------------------------------------------------

   15   -4921.5806169961      1.94e-07  Convergence criterion met
 Total energy in the final basis set =    -4921.5806169961
   17   -4921.5747221512      3.50e-07  Convergence criterion met
 Total energy in the final basis set =    -4921.5747221512
   17   -4921.5746205241      3.97e-07  Convergence criterion met
 Total energy in the final basis set =    -4921.5746205241
   17   -4921.5746371342      5.01e-07  Convergence criterion met
 Total energy in the final basis set =    -4921.5746371342
   17   -4921.5746400491      5.10e-07  Convergence criterion met
 Total energy in the final basis set =    -4921.5746400491
   17   -4921.5746428052      5.06e-07  Convergence criterion met
 Total energy in the final basis set =    -4921.5746428052

             Standard Nuclear Orientation (Angstroms)
    I     Atom           X                Y                Z
 ----------------------------------------------------------------
    1      C       0.0619007260     0.6505918647    -0.3317272104
    2      H       0.1205436299     0.7859531477    -1.4132594154
    3      C       0.4295183347     1.9619075226     0.3933332767
    4      H      -0.3879592451     2.6813847000     0.2471134216
    5      H       0.4957899932     1.7734402287     1.4698554214
    6      C       1.7309833246     2.5891172832    -0.1221415882
    7      H       1.9355724042     3.5204398330     0.4149349902
    8      H       2.5790565331     1.9152868179     0.0241101150
    9      H       1.6593738871     2.8264394132    -1.1889735551
   10      Se     -1.8090988658     0.2420650815     0.1286258696
   11      H      -2.1406422163    -2.5561157744    -1.1637604750
   12      Se      1.3231869875    -0.8512212496     0.0217702112
   13      H       0.8339785069    -1.0903828684     1.3936229384
 ----------------------------------------------------------------

   17   -4921.5746437860      5.03e-07  Convergence criterion met
 Total energy in the final basis set =    -4921.5746437860

                    Orbital Energies (a.u.)
 --------------------------------------------------------------

 Alpha MOs
 -- Occupied --
*******-453.903 -58.117 -58.099 -52.176 -52.174 -52.171 -52.156
-52.155 -52.152 -10.262 -10.213 -10.190  -7.849  -7.832  -5.796
 -5.791  -5.779  -5.778  -5.774  -5.764  -2.129  -2.129  -2.119
 -2.116  -2.113  -2.111  -2.111  -2.103  -2.099  -2.098  -0.823
 -0.741  -0.691  -0.638  -0.584  -0.472  -0.441  -0.427  -0.389
 -0.380  -0.363  -0.349  -0.320  -0.264  -0.243  -0.225

 Beta MOs
 -- Occupied --
*******-453.903 -58.117 -58.099 -52.176 -52.174 -52.171 -52.156
-52.155 -52.152 -10.262 -10.213 -10.190  -7.849  -7.832  -5.796
 -5.791  -5.779  -5.778  -5.774  -5.764  -2.129  -2.129  -2.119
 -2.116  -2.113  -2.111  -2.111  -2.103  -2.099  -2.098  -0.823
 -0.741  -0.691  -0.638  -0.584  -0.472  -0.441  -0.427  -0.389
 -0.380  -0.363  -0.349  -0.320  -0.264  -0.243  -0.225

          Ground-State Mulliken Net Atomic Charges

     Atom                 Charge (a.u.)    Spin (a.u.)
  --------------------------------------------------------
      1 C                    -0.234801      -0.000000
      2 H                     0.159489      -0.000000
      3 C                    -0.192760       0.000000
      4 H                     0.121296      -0.000000
      5 H                     0.126671      -0.000000
      6 C                    -0.328448       0.000000
      7 H                     0.114307       0.000000
      8 H                     0.139925       0.000000
      9 H                     0.109758      -0.000000
     10 Se                   -0.044349       0.000000
     11 H                     0.007717      -0.000000
     12 Se                   -0.049205       0.000000
     13 H                     0.070401       0.000000
  --------------------------------------------------------
  Sum of atomic charges =    -0.000000

                    Cartesian Multipole Moments
 -----------------------------------------------------------------
    Charge (ESU x 10^10)
                -0.0000
    Dipole Moment (Debye)
         X       0.8603      Y       1.6585      Z       0.2772
       Tot       1.8888
    Quadrupole Moments (Debye-Ang)
        XX     -61.9387     XY       1.0085     YY     -55.0507
        XZ      -0.3143     YZ      -0.4321     ZZ     -56.7781

 Final energy is   -4921.57464378601
 **  OPTIMIZATION CONVERGED  **
 Total job time:  64.23s(wall), 755.16s(cpu)
        *  Thank you very much for using Q-Chem.  Have a nice day.  *
