 Q-Chem 5.1, Q-Chem, Inc., Pleasanton, CA (2018)
 Q-Chem 5.1.1 for Intel X86 EM64T Linux

User input:
--------------------------------------------------------------

$comment
potential surface scanner
$end

$rem
JOBTYPE  PES_SCAN
UNRESTRICTED TRUE
SYM_IGNORE  TRUE
GEOM_OPT_MAX_CYCLES 400
SCF_MAX_CYCLES 400
METHOD   B3LYP
BASIS   6-31G**
PDB_PRINT 2
SCF_CONVERGENCE 6
THRESH 14
SCF_PRINT 1
$end
$molecule
0 1
C 0.034100 0.572900 -0.443500
H 0.076700 0.782000 -1.512400
C 0.317600 1.856700 0.339100
H -0.478400 2.578000 0.154400
H 0.362900 1.630300 1.404300
C 1.654900 2.445600 -0.114500
H 1.856900 3.360200 0.443000
H 2.450900 1.724300 0.070100
H 1.609600 2.672000 -1.179800
Se -1.749100 -0.095100 0.021000
H -1.828300 -1.374900 -0.867600
Se 1.377500 -0.779800 0.011600
H 1.146900 -0.923300 1.547800
$end
$scan
stre 10 11 0.800000 0.801000 0.100000
$end
--------------------------------------------------------------

    9   -4921.7163210720      6.91e-07  Convergence criterion met
 Total energy in the final basis set =    -4921.7163210720
    9   -4921.7270734465      6.56e-07  Convergence criterion met
 Total energy in the final basis set =    -4921.7270734465
    9   -4921.7115658405      6.05e-07  Convergence criterion met
 Total energy in the final basis set =    -4921.7115658405
    9   -4921.6542798655      6.05e-07  Convergence criterion met
 Total energy in the final basis set =    -4921.6542798655
    9   -4921.5522581861      6.24e-07  Convergence criterion met
 Total energy in the final basis set =    -4921.5522581861
    9   -4921.3102327444      6.98e-07  Convergence criterion met
 Total energy in the final basis set =    -4921.3102327444
    9   -4921.1762383686      7.43e-07  Convergence criterion met
 Total energy in the final basis set =    -4921.1762383686
    9   -4921.0827981769      7.69e-07  Convergence criterion met
 Total energy in the final basis set =    -4921.0827981769
    9   -4921.0618351368      7.71e-07  Convergence criterion met
 Total energy in the final basis set =    -4921.0618351368
    9   -4921.0615082993      7.67e-07  Convergence criterion met
 Total energy in the final basis set =    -4921.0615082993
    9   -4921.0615975484      7.48e-07  Convergence criterion met
 Total energy in the final basis set =    -4921.0615975484
    9   -4921.0616022401      7.47e-07  Convergence criterion met
 Total energy in the final basis set =    -4921.0616022401
    9   -4921.0616141805      7.47e-07  Convergence criterion met
 Total energy in the final basis set =    -4921.0616141805

             Standard Nuclear Orientation (Angstroms)
    I     Atom           X                Y                Z
 ----------------------------------------------------------------
    1      C       0.0750676141     0.4747182229    -0.4256556407
    2      H       0.1538348044     0.6183660017    -1.5058078404
    3      C       0.3192239022     1.7986402463     0.3020110189
    4      H      -0.5245277285     2.4599450921     0.0662396876
    5      H       0.2862614521     1.6314602140     1.3846919477
    6      C       1.6277070663     2.4887236530    -0.0942715260
    7      H       1.7269404529     3.4437781148     0.4307534474
    8      H       2.4959573345     1.8720623740     0.1516764517
    9      H       1.6552497774     2.6965480230    -1.1699317193
   10      Se     -1.7830618450    -0.1650156061    -0.0777220378
   11      H      -1.6894832465    -0.8461005292    -0.4868264430
   12      Se      1.4194927517    -0.9470491928    -0.0643099808
   13      H       1.0695376644    -1.0771766138     1.3626526347
 ----------------------------------------------------------------

    9   -4921.0616149080      7.47e-07  Convergence criterion met
 Total energy in the final basis set =    -4921.0616149080

                    Orbital Energies (a.u.)
 --------------------------------------------------------------

 Alpha MOs
 -- Occupied --
*******-453.899 -58.111 -58.099 -52.167 -52.166 -52.163 -52.157
-52.156 -52.153 -10.262 -10.204 -10.184  -7.864  -7.833  -5.827
 -5.798  -5.786  -5.778  -5.774  -5.765  -2.180  -2.143  -2.134
 -2.120  -2.120  -2.112  -2.111  -2.103  -2.100  -2.099  -0.841
 -0.787  -0.724  -0.660  -0.587  -0.467  -0.454  -0.438  -0.389
 -0.378  -0.364  -0.357  -0.342  -0.313  -0.249  -0.227

 Beta MOs
 -- Occupied --
*******-453.899 -58.111 -58.099 -52.167 -52.166 -52.163 -52.157
-52.156 -52.153 -10.262 -10.204 -10.184  -7.864  -7.833  -5.827
 -5.798  -5.786  -5.778  -5.774  -5.765  -2.180  -2.143  -2.134
 -2.120  -2.120  -2.112  -2.111  -2.103  -2.100  -2.099  -0.841
 -0.787  -0.724  -0.660  -0.587  -0.467  -0.454  -0.438  -0.389
 -0.378  -0.364  -0.357  -0.342  -0.313  -0.249  -0.227

          Ground-State Mulliken Net Atomic Charges

     Atom                 Charge (a.u.)    Spin (a.u.)
  --------------------------------------------------------
      1 C                    -0.221661      -0.000000
      2 H                     0.152716      -0.000000
      3 C                    -0.176490      -0.000000
      4 H                     0.124357       0.000000
      5 H                     0.118811      -0.000000
      6 C                    -0.329665       0.000000
      7 H                     0.110570      -0.000000
      8 H                     0.136478      -0.000000
      9 H                     0.105537      -0.000000
     10 Se                    0.114563      -0.000000
     11 H                    -0.136400       0.000000
     12 Se                   -0.067178       0.000000
     13 H                     0.068362      -0.000000
  --------------------------------------------------------
  Sum of atomic charges =     0.000000

                    Cartesian Multipole Moments
 -----------------------------------------------------------------
    Charge (ESU x 10^10)
                 0.0000
    Dipole Moment (Debye)
         X       0.6723      Y       0.6871      Z      -0.2219
       Tot       0.9866
    Quadrupole Moments (Debye-Ang)
        XX     -61.5296     XY       2.4337     YY     -55.3369
        XZ       1.3042     YZ      -0.3460     ZZ     -55.2432

 Final energy is   -4921.06161490801
 **  OPTIMIZATION CONVERGED  **
 Total job time:  86.30s(wall), 1009.50s(cpu)
        *  Thank you very much for using Q-Chem.  Have a nice day.  *
