 Q-Chem 5.1, Q-Chem, Inc., Pleasanton, CA (2018)
 Q-Chem 5.1.1 for Intel X86 EM64T Linux

User input:
--------------------------------------------------------------

$comment
potential surface scanner
$end

$rem
JOBTYPE  PES_SCAN
UNRESTRICTED TRUE
SYM_IGNORE  TRUE
GEOM_OPT_MAX_CYCLES 400
SCF_MAX_CYCLES 400
METHOD   B3LYP
BASIS   6-31G**
PDB_PRINT 2
SCF_CONVERGENCE 6
THRESH 14
SCF_PRINT 1
$end
$molecule
0 3
C 0.030056 1.049503 -0.728374
H 0.187386 1.512179 -1.705154
C 0.438051 1.984936 0.405156
H -0.293015 2.804287 0.411676
H 0.319066 1.466991 1.363348
C 1.850643 2.563700 0.270876
H 2.048499 3.273286 1.080008
H 2.612751 1.780148 0.314770
H 1.973333 3.097584 -0.677860
Se -1.775699 0.301083 -0.626228
H -2.572051 -3.768032 0.043191
Se 1.079875 -0.650345 -0.855884
H 0.933304 -0.966422 0.577974
$end
$scan
stre 10 11 4.100000 4.101000 0.100000
$end
--------------------------------------------------------------

   11   -4921.6075004510      6.77e-07  Convergence criterion met
 Total energy in the final basis set =    -4921.6075004510
   11   -4921.6074948912      6.85e-07  Convergence criterion met
 Total energy in the final basis set =    -4921.6074948912
   11   -4921.6074977986      6.84e-07  Convergence criterion met
 Total energy in the final basis set =    -4921.6074977986
   11   -4921.6075047664      6.80e-07  Convergence criterion met
 Total energy in the final basis set =    -4921.6075047664

             Standard Nuclear Orientation (Angstroms)
    I     Atom           X                Y                Z
 ----------------------------------------------------------------
    1      C       0.0341447015     1.0354649258    -0.7242322034
    2      H       0.1845438552     1.4984708666    -1.7019590013
    3      C       0.4366504299     1.9757550831     0.4072133814
    4      H      -0.3024256410     2.7878801743     0.4158436459
    5      H       0.3262355342     1.4572354601     1.3661154338
    6      C       1.8430780593     2.5682415330     0.2676584110
    7      H       2.0368678277     3.2800732768     1.0758008322
    8      H       2.6129932802     1.7921838767     0.3090805097
    9      H       1.9570701015     3.1029164167    -0.6817110293
   10      Se     -1.7639645880     0.2700008113    -0.6162798705
   11      H      -2.5917349033    -3.6936303037     0.0274785654
   12      Se      1.0997831754    -0.6544282962    -0.8529330080
   13      H       0.9589571673    -0.9712658246     0.5814233332
 ----------------------------------------------------------------

   11   -4921.6075053638      6.79e-07  Convergence criterion met
 Total energy in the final basis set =    -4921.6075053638

                    Orbital Energies (a.u.)
 --------------------------------------------------------------

 Alpha MOs
 -- Occupied --
*******-453.888 -58.121 -58.083 -52.178 -52.177 -52.176 -52.142
-52.140 -52.137 -10.260 -10.207 -10.189  -7.855  -7.817  -5.799
 -5.796  -5.788  -5.763  -5.759  -5.747  -2.133  -2.132  -2.126
 -2.123  -2.122  -2.097  -2.096  -2.087  -2.084  -2.082  -0.824
 -0.749  -0.691  -0.641  -0.582  -0.470  -0.444  -0.423  -0.399
 -0.384  -0.361  -0.351  -0.321  -0.308  -0.277  -0.225  -0.223

 Beta MOs
 -- Occupied --
*******-453.887 -58.121 -58.082 -52.178 -52.177 -52.175 -52.140
-52.138 -52.136 -10.260 -10.207 -10.189  -7.854  -7.814  -5.799
 -5.795  -5.787  -5.759  -5.755  -5.746  -2.132  -2.131  -2.125
 -2.122  -2.121  -2.092  -2.092  -2.084  -2.081  -2.079  -0.822
 -0.745  -0.681  -0.629  -0.576  -0.470  -0.443  -0.419  -0.397
 -0.382  -0.360  -0.346  -0.316  -0.254  -0.213

          Ground-State Mulliken Net Atomic Charges

     Atom                 Charge (a.u.)    Spin (a.u.)
  --------------------------------------------------------
      1 C                    -0.232605      -0.031088
      2 H                     0.155871       0.001653
      3 C                    -0.172193       0.002365
      4 H                     0.123142      -0.000558
      5 H                     0.117865      -0.000321
      6 C                    -0.328236       0.000021
      7 H                     0.112597       0.000280
      8 H                     0.126513       0.000070
      9 H                     0.108798       0.000030
     10 Se                   -0.109908       0.823459
     11 H                     0.001088       0.997504
     12 Se                    0.019613       0.212517
     13 H                     0.077455      -0.005931
  --------------------------------------------------------
  Sum of atomic charges =    -0.000000

                    Cartesian Multipole Moments
 -----------------------------------------------------------------
    Charge (ESU x 10^10)
                -0.0000
    Dipole Moment (Debye)
         X       2.0862      Y       1.2371      Z       0.7534
       Tot       2.5397
    Quadrupole Moments (Debye-Ang)
        XX     -61.4985     XY       0.1203     YY     -54.3664
        XZ      -0.6478     YZ      -1.5641     ZZ     -58.4262

 Final energy is   -4921.60750536378
 **  OPTIMIZATION CONVERGED  **
 Total job time:  34.03s(wall), 394.14s(cpu)
        *  Thank you very much for using Q-Chem.  Have a nice day.  *
