 Q-Chem 5.1, Q-Chem, Inc., Pleasanton, CA (2018)
 Q-Chem 5.1.1 for Intel X86 EM64T Linux

User input:
--------------------------------------------------------------

$comment
potential surface scanner
$end

$rem
JOBTYPE  PES_SCAN
UNRESTRICTED TRUE
SYM_IGNORE  TRUE
GEOM_OPT_MAX_CYCLES 400
SCF_MAX_CYCLES 400
METHOD   B3LYP
BASIS   6-31G**
PDB_PRINT 2
SCF_CONVERGENCE 6
THRESH 14
SCF_PRINT 1
$end
$molecule
0 1
C 0.058803 0.583964 -0.343186
H 0.113268 0.712995 -1.425486
C 0.394706 1.909116 0.369986
H -0.433173 2.611772 0.202127
H 0.448512 1.736444 1.450331
C 1.692268 2.554050 -0.130274
H 1.871378 3.497424 0.394704
H 2.549547 1.897744 0.041239
H 1.636264 2.773302 -1.202064
Se -1.819278 0.161080 0.115077
H -1.886466 -1.962349 -1.001406
Se 1.353663 -0.882680 0.019510
H 0.852709 -1.143957 1.382946
$end
$scan
stre 10 11 2.500000 2.501000 0.100000
$end
--------------------------------------------------------------

   12   -4921.6309523870      2.19e-07  Convergence criterion met
 Total energy in the final basis set =    -4921.6309523870
   12   -4921.6209378352      2.96e-07  Convergence criterion met
 Total energy in the final basis set =    -4921.6209378352
   12   -4921.6207209114      2.97e-07  Convergence criterion met
 Total energy in the final basis set =    -4921.6207209114

             Standard Nuclear Orientation (Angstroms)
    I     Atom           X                Y                Z
 ----------------------------------------------------------------
    1      C       0.0574250805     0.5918615921    -0.3384246641
    2      H       0.1097260769     0.7201848856    -1.4209080112
    3      C       0.3991679110     1.9167737327     0.3737170666
    4      H      -0.4269239310     2.6220971282     0.2086749365
    5      H       0.4561548884     1.7438312405     1.4537957046
    6      C       1.6971005490     2.5576306730    -0.1311981812
    7      H       1.8805698437     3.5003789282     0.3934170876
    8      H       2.5528966071     1.8986859887     0.0375257434
    9      H       1.6380298500     2.7771601868    -1.2027295433
   10      Se     -1.8196398480     0.1766697078     0.1251600003
   11      H      -1.9082972003    -2.0369880047    -1.0332262149
   12      Se      1.3492934361    -0.8781310554     0.0226307213
   13      H       0.8466977367    -1.1412500037     1.3850693543
 ----------------------------------------------------------------

   12   -4921.6207215179      2.96e-07  Convergence criterion met
 Total energy in the final basis set =    -4921.6207215179

                    Orbital Energies (a.u.)
 --------------------------------------------------------------

 Alpha MOs
 -- Occupied --
*******-453.902 -58.116 -58.097 -52.174 -52.172 -52.169 -52.155
-52.154 -52.151 -10.260 -10.212 -10.188  -7.847  -7.830  -5.794
 -5.789  -5.777  -5.776  -5.772  -5.762  -2.127  -2.127  -2.117
 -2.114  -2.111  -2.110  -2.109  -2.101  -2.098  -2.096  -0.822
 -0.739  -0.689  -0.636  -0.583  -0.471  -0.439  -0.426  -0.388
 -0.379  -0.361  -0.346  -0.319  -0.288  -0.242  -0.224

 Beta MOs
 -- Occupied --
*******-453.902 -58.116 -58.097 -52.174 -52.172 -52.169 -52.155
-52.154 -52.151 -10.260 -10.212 -10.188  -7.847  -7.830  -5.794
 -5.789  -5.777  -5.776  -5.772  -5.762  -2.127  -2.127  -2.117
 -2.114  -2.111  -2.110  -2.109  -2.101  -2.098  -2.096  -0.822
 -0.739  -0.689  -0.636  -0.583  -0.471  -0.439  -0.426  -0.388
 -0.379  -0.361  -0.346  -0.319  -0.288  -0.242  -0.224

          Ground-State Mulliken Net Atomic Charges

     Atom                 Charge (a.u.)    Spin (a.u.)
  --------------------------------------------------------
      1 C                    -0.230052       0.000000
      2 H                     0.158695      -0.000000
      3 C                    -0.196106       0.000000
      4 H                     0.121585      -0.000000
      5 H                     0.125357      -0.000000
      6 C                    -0.327685      -0.000000
      7 H                     0.112969       0.000000
      8 H                     0.139388       0.000000
      9 H                     0.108783      -0.000000
     10 Se                   -0.050342      -0.000000
     11 H                     0.022233       0.000000
     12 Se                   -0.054875      -0.000000
     13 H                     0.070052       0.000000
  --------------------------------------------------------
  Sum of atomic charges =    -0.000000

                    Cartesian Multipole Moments
 -----------------------------------------------------------------
    Charge (ESU x 10^10)
                -0.0000
    Dipole Moment (Debye)
         X       0.6662      Y       1.4312      Z       0.1693
       Tot       1.5877
    Quadrupole Moments (Debye-Ang)
        XX     -61.9279     XY       1.3561     YY     -55.1758
        XZ      -0.1287     YZ      -0.2156     ZZ     -56.5889

 Final energy is   -4921.62072151787
 **  OPTIMIZATION CONVERGED  **
 Total job time:  30.20s(wall), 345.12s(cpu)
        *  Thank you very much for using Q-Chem.  Have a nice day.  *
