 Q-Chem 5.1, Q-Chem, Inc., Pleasanton, CA (2018)
 Q-Chem 5.1.1 for Intel X86 EM64T Linux

User input:
--------------------------------------------------------------

$comment
potential surface scanner
$end

$rem
JOBTYPE  PES_SCAN
UNRESTRICTED TRUE
SYM_IGNORE  TRUE
GEOM_OPT_MAX_CYCLES 400
SCF_MAX_CYCLES 400
METHOD   B3LYP
BASIS   6-31G**
PDB_PRINT 2
SCF_CONVERGENCE 6
THRESH 14
SCF_PRINT 1
$end
$molecule
0 3
C 0.450432 0.922755 -0.645332
H 0.000149 1.473109 -1.471322
C 0.763392 1.814729 0.544991
H -0.193753 2.158818 0.960231
H 1.250195 1.224356 1.328279
C 1.627259 3.026163 0.171056
H 1.806218 3.656281 1.047511
H 2.598619 2.714160 -0.224270
H 1.135747 3.641948 -0.589784
Se -0.568303 -0.741779 -0.277442
H -1.763443 -2.300573 0.099123
Se 1.910178 -0.229032 -1.310563
H -2.184497 -2.912033 0.241019
$end
$scan
stre 10 11 1.900000 1.901000 0.100000
$end
--------------------------------------------------------------

   12   -4921.6512637711      8.68e-07  Convergence criterion met
 Total energy in the final basis set =    -4921.6512637711
   13   -4921.6454696301      5.88e-07  Convergence criterion met
 Total energy in the final basis set =    -4921.6454696301
   13   -4921.6453643185      5.96e-07  Convergence criterion met
 Total energy in the final basis set =    -4921.6453643185

             Standard Nuclear Orientation (Angstroms)
    I     Atom           X                Y                Z
 ----------------------------------------------------------------
    1      C       0.4393815563     0.9120117502    -0.6414206168
    2      H      -0.0097348990     1.4614874634    -1.4686976230
    3      C       0.7556790117     1.8057270781     0.5466146574
    4      H      -0.2005411057     2.1517799046     0.9623249127
    5      H       1.2423922860     1.2159395643     1.3304807981
    6      C       1.6214090406     3.0150855114     0.1701666890
    7      H       1.8024420764     3.6464059322     1.0453613766
    8      H       2.5918779474     2.7005453595    -0.2254434002
    9      H       1.1306218144     3.6305131575    -0.5914287177
   10      Se     -0.5827866146    -0.7558976238    -0.2701796577
   11      H      -1.7163381225    -2.2377854966     0.0890828328
   12      Se      1.8962328744    -0.2424993832    -1.3053654282
   13      H      -2.1384428655    -2.8544112176     0.2320011771
 ----------------------------------------------------------------

   13   -4921.6453652991      5.94e-07  Convergence criterion met
 Total energy in the final basis set =    -4921.6453652991

                    Orbital Energies (a.u.)
 --------------------------------------------------------------

 Alpha MOs
 -- Occupied --
*******-453.911 -58.113 -58.106 -52.170 -52.169 -52.169 -52.164
-52.163 -52.162 -10.256 -10.205 -10.189  -7.847  -7.841  -5.789
 -5.786  -5.785  -5.784  -5.779  -5.778  -2.122  -2.121  -2.119
 -2.117  -2.117  -2.116  -2.115  -2.114  -2.109  -2.109  -0.826
 -0.754  -0.675  -0.653  -0.580  -0.479  -0.468  -0.434  -0.407
 -0.389  -0.366  -0.350  -0.311  -0.297  -0.277  -0.255  -0.203

 Beta MOs
 -- Occupied --
*******-453.909 -58.111 -58.105 -52.168 -52.166 -52.166 -52.162
-52.160 -52.160 -10.256 -10.205 -10.189  -7.843  -7.837  -5.787
 -5.782  -5.780  -5.779  -5.774  -5.773  -2.119  -2.117  -2.116
 -2.114  -2.111  -2.111  -2.111  -2.111  -2.104  -2.104  -0.820
 -0.743  -0.645  -0.637  -0.573  -0.473  -0.466  -0.433  -0.404
 -0.383  -0.364  -0.343  -0.299  -0.262  -0.231

          Ground-State Mulliken Net Atomic Charges

     Atom                 Charge (a.u.)    Spin (a.u.)
  --------------------------------------------------------
      1 C                    -0.255512      -0.040288
      2 H                     0.151591      -0.001134
      3 C                    -0.173268       0.002363
      4 H                     0.120366       0.001390
      5 H                     0.120748      -0.001488
      6 C                    -0.327551       0.002708
      7 H                     0.113799      -0.000284
      8 H                     0.124924      -0.000443
      9 H                     0.109066       0.000146
     10 Se                    0.041066       0.977637
     11 H                    -0.057071      -0.006444
     12 Se                    0.008571       1.062164
     13 H                     0.023271       0.003672
  --------------------------------------------------------
  Sum of atomic charges =    -0.000000

                    Cartesian Multipole Moments
 -----------------------------------------------------------------
    Charge (ESU x 10^10)
                -0.0000
    Dipole Moment (Debye)
         X      -0.0388      Y       1.8971      Z       0.3304
       Tot       1.9261
    Quadrupole Moments (Debye-Ang)
        XX     -58.9790     XY       0.9725     YY     -55.2993
        XZ       0.8622     YZ      -0.3954     ZZ     -58.2239

 Final energy is   -4921.64536529909
 **  OPTIMIZATION CONVERGED  **
 Total job time:  29.59s(wall), 344.74s(cpu)
        *  Thank you very much for using Q-Chem.  Have a nice day.  *
