 Q-Chem 5.1, Q-Chem, Inc., Pleasanton, CA (2018)
 Q-Chem 5.1.1 for Intel X86 EM64T Linux

User input:
--------------------------------------------------------------

$comment
potential surface scanner
$end

$rem
JOBTYPE  PES_SCAN
UNRESTRICTED TRUE
SYM_IGNORE  TRUE
GEOM_OPT_MAX_CYCLES 400
SCF_MAX_CYCLES 400
METHOD   B3LYP
BASIS   6-31G**
PDB_PRINT 2
SCF_CONVERGENCE 6
THRESH 14
SCF_PRINT 1
$end
$molecule
0 3
C 0.013711 1.106107 -0.737761
H 0.190383 1.557517 -1.716473
C 0.443657 2.020751 0.401167
H -0.259985 2.863678 0.400475
H 0.297420 1.504902 1.356523
C 1.876696 2.549643 0.279109
H 2.092645 3.251843 1.089725
H 2.610880 1.739997 0.332001
H 2.027650 3.077829 -0.668621
Se -1.773387 0.332008 -0.647644
H -2.473842 -3.951467 0.074301
Se 0.973792 -0.650018 -0.861321
H 0.812579 -0.953892 0.572019
$end
$scan
stre 10 11 4.500000 4.501000 0.100000
$end
--------------------------------------------------------------

   11   -4921.6069216010      5.42e-07  Convergence criterion met
 Total energy in the final basis set =    -4921.6069216010
   11   -4921.6069889141      5.48e-07  Convergence criterion met
 Total energy in the final basis set =    -4921.6069889141
   11   -4921.6071047184      5.61e-07  Convergence criterion met
 Total energy in the final basis set =    -4921.6071047184
   11   -4921.6073968434      6.41e-07  Convergence criterion met
 Total energy in the final basis set =    -4921.6073968434
   11   -4921.6074250884      6.59e-07  Convergence criterion met
 Total energy in the final basis set =    -4921.6074250884
   11   -4921.6074569770      6.79e-07  Convergence criterion met
 Total energy in the final basis set =    -4921.6074569770
   11   -4921.6074652278      6.79e-07  Convergence criterion met
 Total energy in the final basis set =    -4921.6074652278
   11   -4921.6074685206      6.75e-07  Convergence criterion met
 Total energy in the final basis set =    -4921.6074685206
   11   -4921.6074706202      6.73e-07  Convergence criterion met
 Total energy in the final basis set =    -4921.6074706202
   11   -4921.6074723624      6.73e-07  Convergence criterion met
 Total energy in the final basis set =    -4921.6074723624

             Standard Nuclear Orientation (Angstroms)
    I     Atom           X                Y                Z
 ----------------------------------------------------------------
    1      C       0.0175874617     1.0915322363    -0.7410564800
    2      H       0.1966000675     1.5528602779    -1.7147917581
    3      C       0.4421937445     2.0126149248     0.3986543631
    4      H      -0.2636389171     2.8537748753     0.3979114552
    5      H       0.2963160374     1.4973838792     1.3545750581
    6      C       1.8726989865     2.5493365512     0.2815181394
    7      H       2.0820127382     3.2522206001     1.0936765163
    8      H       2.6107274813     1.7437028689     0.3338034145
    9      H       2.0224972412     3.0800374578    -0.6651153443
   10      Se     -1.8106519807     0.3949590663    -0.6564333728
   11      H      -2.5083133308    -3.9867763833     0.0943402225
   12      Se      1.0193139489    -0.6363417151    -0.8671783706
   13      H       0.8548555215    -0.9564066391     0.5635961567
 ----------------------------------------------------------------

   11   -4921.6074732369      6.75e-07  Convergence criterion met
 Total energy in the final basis set =    -4921.6074732369

                    Orbital Energies (a.u.)
 --------------------------------------------------------------

 Alpha MOs
 -- Occupied --
*******-453.889 -58.121 -58.083 -52.178 -52.177 -52.176 -52.142
-52.140 -52.137 -10.260 -10.207 -10.189  -7.855  -7.817  -5.799
 -5.795  -5.788  -5.763  -5.760  -5.747  -2.133  -2.132  -2.126
 -2.123  -2.122  -2.097  -2.096  -2.087  -2.084  -2.082  -0.824
 -0.749  -0.691  -0.641  -0.582  -0.470  -0.444  -0.423  -0.399
 -0.384  -0.361  -0.351  -0.321  -0.309  -0.278  -0.225  -0.223

 Beta MOs
 -- Occupied --
*******-453.887 -58.121 -58.082 -52.178 -52.177 -52.175 -52.140
-52.138 -52.136 -10.260 -10.207 -10.189  -7.854  -7.814  -5.799
 -5.795  -5.787  -5.759  -5.755  -5.746  -2.132  -2.131  -2.125
 -2.122  -2.121  -2.093  -2.092  -2.084  -2.081  -2.080  -0.822
 -0.745  -0.681  -0.629  -0.576  -0.470  -0.443  -0.419  -0.397
 -0.382  -0.360  -0.346  -0.316  -0.254  -0.213

          Ground-State Mulliken Net Atomic Charges

     Atom                 Charge (a.u.)    Spin (a.u.)
  --------------------------------------------------------
      1 C                    -0.232565      -0.031626
      2 H                     0.155851       0.001629
      3 C                    -0.172304       0.002347
      4 H                     0.123080      -0.000561
      5 H                     0.118016      -0.000330
      6 C                    -0.328094      -0.000021
      7 H                     0.112609       0.000277
      8 H                     0.126440       0.000070
      9 H                     0.108807       0.000031
     10 Se                   -0.108964       0.823686
     11 H                     0.000489       0.998881
     12 Se                    0.019256       0.211526
     13 H                     0.077380      -0.005909
  --------------------------------------------------------
  Sum of atomic charges =    -0.000000

                    Cartesian Multipole Moments
 -----------------------------------------------------------------
    Charge (ESU x 10^10)
                 0.0000
    Dipole Moment (Debye)
         X       2.1218      Y       1.1606      Z       0.7829
       Tot       2.5420
    Quadrupole Moments (Debye-Ang)
        XX     -61.7376     XY       0.4348     YY     -54.2641
        XZ      -0.8226     YZ      -1.5037     ZZ     -58.4954

 Final energy is   -4921.60747323688
 **  OPTIMIZATION CONVERGED  **
 Total job time:  73.70s(wall), 859.85s(cpu)
        *  Thank you very much for using Q-Chem.  Have a nice day.  *
