 Q-Chem 5.1, Q-Chem, Inc., Pleasanton, CA (2018)
 Q-Chem 5.1.1 for Intel X86 EM64T Linux

User input:
--------------------------------------------------------------

$comment
potential surface scanner
$end

$rem
JOBTYPE  PES_SCAN
UNRESTRICTED TRUE
SYM_IGNORE  TRUE
GEOM_OPT_MAX_CYCLES 400
SCF_MAX_CYCLES 400
METHOD   B3LYP
BASIS   6-31G**
PDB_PRINT 2
SCF_CONVERGENCE 6
THRESH 14
SCF_PRINT 1
$end
$molecule
0 1
C 0.313987 1.114360 -1.086410
H -1.165210 -0.165831 -2.643627
C 0.394702 2.063373 0.094285
H 0.071819 3.047856 -0.276780
H -0.360753 1.770796 0.835974
C 1.763100 2.192489 0.764431
H 1.702427 2.908782 1.589806
H 2.095151 1.231485 1.166376
H 2.518580 2.538604 0.056535
Se -1.498867 0.595174 -1.430324
H -0.009460 -1.792438 1.551450
Se 1.701190 0.564394 -2.069166
H -0.694456 -1.620137 1.320953
$end
$scan
stre 10 11 4.200000 4.201000 0.100000
$end
--------------------------------------------------------------

   11   -4921.6896978284      3.35e-07  Convergence criterion met
 Total energy in the final basis set =    -4921.6896978284
   11   -4921.6885461362      3.40e-07  Convergence criterion met
 Total energy in the final basis set =    -4921.6885461362
   11   -4921.6889145585      3.37e-07  Convergence criterion met
 Total energy in the final basis set =    -4921.6889145585
   11   -4921.6897226365      3.30e-07  Convergence criterion met
 Total energy in the final basis set =    -4921.6897226365
   11   -4921.6897376094      3.32e-07  Convergence criterion met
 Total energy in the final basis set =    -4921.6897376094
   11   -4921.6897399006      3.33e-07  Convergence criterion met
 Total energy in the final basis set =    -4921.6897399006
   11   -4921.6897468063      3.37e-07  Convergence criterion met
 Total energy in the final basis set =    -4921.6897468063
   11   -4921.6897477504      3.37e-07  Convergence criterion met
 Total energy in the final basis set =    -4921.6897477504
   11   -4921.6897499270      3.35e-07  Convergence criterion met
 Total energy in the final basis set =    -4921.6897499270

             Standard Nuclear Orientation (Angstroms)
    I     Atom           X                Y                Z
 ----------------------------------------------------------------
    1      C       0.3114807957     1.1181392172    -1.0942768181
    2      H      -1.1668648401    -0.1284531023    -2.6789658775
    3      C       0.3922688691     2.0602043609     0.0911403354
    4      H       0.0656190504     3.0457765846    -0.2740426151
    5      H      -0.3632531281     1.7632758135     0.8315086973
    6      C       1.7598055955     2.1897382185     0.7618607320
    7      H       1.6976153405     2.9051125088     1.5877742319
    8      H       2.0937196943     1.2286658954     1.1620799017
    9      H       2.5154236474     2.5371075935     0.0545040848
   10      Se     -1.5055274531     0.6278844611    -1.4639398836
   11      H       0.0049596985    -1.8151419206     1.6003792152
   12      Se      1.7013126077     0.5516889724    -2.0635811776
   13      H      -0.6743498779    -1.6350916030     1.3590621735
 ----------------------------------------------------------------

   11   -4921.6897503403      3.34e-07  Convergence criterion met
 Total energy in the final basis set =    -4921.6897503403

                    Orbital Energies (a.u.)
 --------------------------------------------------------------

 Alpha MOs
 -- Occupied --
*******-453.879 -58.123 -58.075 -52.180 -52.179 -52.177 -52.132
-52.131 -52.129 -10.289 -10.219 -10.186  -7.856  -7.808  -5.801
 -5.797  -5.790  -5.753  -5.749  -5.740  -2.135  -2.134  -2.128
 -2.124  -2.124  -2.087  -2.086  -2.079  -2.076  -2.074  -0.831
 -0.753  -0.697  -0.652  -0.527  -0.470  -0.449  -0.431  -0.418
 -0.381  -0.370  -0.365  -0.339  -0.306  -0.241  -0.214

 Beta MOs
 -- Occupied --
*******-453.879 -58.123 -58.075 -52.180 -52.179 -52.177 -52.132
-52.131 -52.129 -10.289 -10.219 -10.186  -7.856  -7.808  -5.801
 -5.797  -5.790  -5.753  -5.749  -5.740  -2.135  -2.134  -2.128
 -2.124  -2.124  -2.087  -2.086  -2.079  -2.076  -2.074  -0.831
 -0.753  -0.697  -0.652  -0.527  -0.470  -0.449  -0.431  -0.418
 -0.381  -0.370  -0.365  -0.339  -0.306  -0.241  -0.214

          Ground-State Mulliken Net Atomic Charges

     Atom                 Charge (a.u.)    Spin (a.u.)
  --------------------------------------------------------
      1 C                    -0.032610      -0.000000
      2 H                     0.091858      -0.000000
      3 C                    -0.225600       0.000000
      4 H                     0.150819      -0.000000
      5 H                     0.130551      -0.000000
      6 C                    -0.315169       0.000000
      7 H                     0.103939      -0.000000
      8 H                     0.126420      -0.000000
      9 H                     0.141345      -0.000000
     10 Se                    0.019944       0.000000
     11 H                    -0.004110       0.000000
     12 Se                   -0.191699       0.000000
     13 H                     0.004311      -0.000000
  --------------------------------------------------------
  Sum of atomic charges =     0.000000

                    Cartesian Multipole Moments
 -----------------------------------------------------------------
    Charge (ESU x 10^10)
                 0.0000
    Dipole Moment (Debye)
         X      -1.3613      Y       0.8499      Z       1.1810
       Tot       1.9925
    Quadrupole Moments (Debye-Ang)
        XX     -59.8921     XY       0.1206     YY     -55.5439
        XZ       4.0824     YZ       2.6537     ZZ     -58.9309

 Final energy is   -4921.68975034025
 **  OPTIMIZATION CONVERGED  **
 Total job time:  65.05s(wall), 763.36s(cpu)
        *  Thank you very much for using Q-Chem.  Have a nice day.  *
