 Q-Chem 5.1, Q-Chem, Inc., Pleasanton, CA (2018)
 Q-Chem 5.1.1 for Intel X86 EM64T Linux

User input:
--------------------------------------------------------------

$comment
potential surface scanner
$end

$rem
JOBTYPE  PES_SCAN
UNRESTRICTED TRUE
SYM_IGNORE  TRUE
GEOM_OPT_MAX_CYCLES 400
SCF_MAX_CYCLES 400
METHOD   B3LYP
BASIS   6-31G**
PDB_PRINT 2
SCF_CONVERGENCE 6
THRESH 14
SCF_PRINT 1
$end
$molecule
0 3
C 0.240611 0.882129 -1.077332
H 0.571639 1.525386 -1.896350
C 0.161687 1.650134 0.238782
H -0.670958 2.358882 0.136963
H -0.125162 0.960928 1.040964
C 1.438107 2.415640 0.604009
H 1.283653 2.992451 1.520985
H 2.282001 1.740056 0.770576
H 1.723230 3.117801 -0.187177
Se -1.369684 -0.092432 -1.615649
H -1.319618 -1.215539 1.380369
Se 1.560327 -0.615350 -1.133414
H 1.056364 -1.271185 0.090774
$end
$scan
stre 10 11 3.100000 3.101000 0.100000
$end
--------------------------------------------------------------

   12   -4921.6092104921      6.96e-07  Convergence criterion met
 Total energy in the final basis set =    -4921.6092104921
   12   -4921.6094762380      6.86e-07  Convergence criterion met
 Total energy in the final basis set =    -4921.6094762380
   12   -4921.6095075967      6.75e-07  Convergence criterion met
 Total energy in the final basis set =    -4921.6095075967
   12   -4921.6095480564      6.56e-07  Convergence criterion met
 Total energy in the final basis set =    -4921.6095480564
   12   -4921.6095500549      6.56e-07  Convergence criterion met
 Total energy in the final basis set =    -4921.6095500549
   12   -4921.6095532728      6.58e-07  Convergence criterion met
 Total energy in the final basis set =    -4921.6095532728

             Standard Nuclear Orientation (Angstroms)
    I     Atom           X                Y                Z
 ----------------------------------------------------------------
    1      C       0.2358946312     0.8775437557    -1.0658291605
    2      H       0.5551392071     1.5182592860    -1.8912374887
    3      C       0.1631349274     1.6509948674     0.2470333496
    4      H      -0.6697837953     2.3595948365     0.1459229601
    5      H      -0.1191186076     0.9657827348     1.0534618429
    6      C       1.4413961715     2.4184584917     0.6016050404
    7      H       1.2912117905     3.0007897330     1.5158111782
    8      H       2.2855501315     1.7433851942     0.7684411125
    9      H       1.7232070101     3.1161142408    -0.1947657251
   10      Se     -1.3710733665    -0.1108700433    -1.5895239371
   11      H      -1.3285480467    -1.2028180305     1.3114831105
   12      Se      1.5637226620    -0.6131894224    -1.1252363834
   13      H       1.0614642848    -1.2751446438     0.0963341005
 ----------------------------------------------------------------

   12   -4921.6095537542      6.57e-07  Convergence criterion met
 Total energy in the final basis set =    -4921.6095537542

                    Orbital Energies (a.u.)
 --------------------------------------------------------------

 Alpha MOs
 -- Occupied --
*******-453.896 -58.123 -58.091 -52.180 -52.179 -52.178 -52.149
-52.148 -52.145 -10.263 -10.207 -10.189  -7.857  -7.824  -5.801
 -5.798  -5.791  -5.770  -5.767  -5.756  -2.135  -2.134  -2.128
 -2.125  -2.124  -2.104  -2.103  -2.094  -2.092  -2.090  -0.827
 -0.752  -0.694  -0.644  -0.585  -0.472  -0.446  -0.425  -0.401
 -0.385  -0.364  -0.353  -0.324  -0.297  -0.281  -0.229  -0.222

 Beta MOs
 -- Occupied --
*******-453.894 -58.123 -58.090 -52.180 -52.179 -52.177 -52.147
-52.145 -52.144 -10.263 -10.207 -10.189  -7.856  -7.821  -5.801
 -5.797  -5.789  -5.766  -5.762  -5.754  -2.134  -2.133  -2.127
 -2.124  -2.123  -2.099  -2.099  -2.092  -2.089  -2.087  -0.824
 -0.747  -0.683  -0.631  -0.578  -0.471  -0.444  -0.421  -0.398
 -0.383  -0.361  -0.348  -0.318  -0.256  -0.220

          Ground-State Mulliken Net Atomic Charges

     Atom                 Charge (a.u.)    Spin (a.u.)
  --------------------------------------------------------
      1 C                    -0.234659      -0.035196
      2 H                     0.157184       0.003675
      3 C                    -0.170720       0.014559
      4 H                     0.122071      -0.000774
      5 H                     0.120779      -0.005006
      6 C                    -0.329206      -0.000569
      7 H                     0.113835       0.000454
      8 H                     0.127416       0.000087
      9 H                     0.107905       0.000671
     10 Se                   -0.079624       0.871383
     11 H                    -0.041064       0.930016
     12 Se                    0.023008       0.229643
     13 H                     0.083074      -0.008943
  --------------------------------------------------------
  Sum of atomic charges =     0.000000

                    Cartesian Multipole Moments
 -----------------------------------------------------------------
    Charge (ESU x 10^10)
                 0.0000
    Dipole Moment (Debye)
         X       1.6566      Y       1.5028      Z       0.9701
       Tot       2.4380
    Quadrupole Moments (Debye-Ang)
        XX     -60.1550     XY      -0.8371     YY     -54.7474
        XZ      -1.1453     YZ      -1.7247     ZZ     -60.8946

 Final energy is   -4921.60955375419
 **  OPTIMIZATION CONVERGED  **
 Total job time:  51.02s(wall), 598.62s(cpu)
        *  Thank you very much for using Q-Chem.  Have a nice day.  *
