 Q-Chem 5.1, Q-Chem, Inc., Pleasanton, CA (2018)
 Q-Chem 5.1.1 for Intel X86 EM64T Linux

User input:
--------------------------------------------------------------

$comment
potential surface scanner
$end

$rem
JOBTYPE  PES_SCAN
UNRESTRICTED TRUE
SYM_IGNORE  TRUE
GEOM_OPT_MAX_CYCLES 400
SCF_MAX_CYCLES 400
METHOD   B3LYP
BASIS   6-31G**
PDB_PRINT 2
SCF_CONVERGENCE 6
THRESH 14
SCF_PRINT 1
$end
$molecule
0 3
C 0.235895 0.877544 -1.065829
H 0.555139 1.518259 -1.891237
C 0.163135 1.650995 0.247033
H -0.669784 2.359595 0.145923
H -0.119119 0.965783 1.053462
C 1.441396 2.418458 0.601605
H 1.291212 3.000790 1.515811
H 2.285550 1.743385 0.768441
H 1.723207 3.116114 -0.194766
Se -1.371073 -0.110870 -1.589524
H -1.328548 -1.202818 1.311483
Se 1.563723 -0.613189 -1.125236
H 1.061464 -1.275145 0.096334
$end
$scan
stre 10 11 3.000000 3.001000 0.100000
$end
--------------------------------------------------------------

   12   -4921.6095537540      6.57e-07  Convergence criterion met
 Total energy in the final basis set =    -4921.6095537540
   12   -4921.6098724138      6.51e-07  Convergence criterion met
 Total energy in the final basis set =    -4921.6098724138
   12   -4921.6099034696      6.36e-07  Convergence criterion met
 Total energy in the final basis set =    -4921.6099034696
   12   -4921.6099403043      6.12e-07  Convergence criterion met
 Total energy in the final basis set =    -4921.6099403043
   12   -4921.6099429386      6.11e-07  Convergence criterion met
 Total energy in the final basis set =    -4921.6099429386
   12   -4921.6099479924      6.10e-07  Convergence criterion met
 Total energy in the final basis set =    -4921.6099479924
   12   -4921.6099491498      6.10e-07  Convergence criterion met
 Total energy in the final basis set =    -4921.6099491498
   12   -4921.6099519348      6.07e-07  Convergence criterion met
 Total energy in the final basis set =    -4921.6099519348
   12   -4921.6099542517      6.05e-07  Convergence criterion met
 Total energy in the final basis set =    -4921.6099542517
   12   -4921.6099567652      6.05e-07  Convergence criterion met
 Total energy in the final basis set =    -4921.6099567652
   12   -4921.6099585792      6.05e-07  Convergence criterion met
 Total energy in the final basis set =    -4921.6099585792
   12   -4921.6099600385      6.07e-07  Convergence criterion met
 Total energy in the final basis set =    -4921.6099600385

             Standard Nuclear Orientation (Angstroms)
    I     Atom           X                Y                Z
 ----------------------------------------------------------------
    1      C       0.2335319178     0.8716038704    -1.0519820946
    2      H       0.5579929379     1.5076162132    -1.8790253139
    3      C       0.1662924097     1.6490837020     0.2586672107
    4      H      -0.6730663885     2.3506462170     0.1626677251
    5      H      -0.1025828794     0.9651800952     1.0711710159
    6      C       1.4429629716     2.4270929336     0.5961359654
    7      H       1.2979566229     3.0148805518     1.5076403910
    8      H       2.2928481656     1.7582748355     0.7597611493
    9      H       1.7123212673     3.1207284040    -0.2079564946
   10      Se     -1.3800898222    -0.1069568348    -1.5741473379
   11      H      -1.3076629685    -1.1984401111     1.2193127663
   12      Se      1.5471187592    -0.6310068591    -1.1090787591
   13      H       1.0445740065    -1.2798020177     0.1203337764
 ----------------------------------------------------------------

   12   -4921.6099610289      6.08e-07  Convergence criterion met
 Total energy in the final basis set =    -4921.6099610289

                    Orbital Energies (a.u.)
 --------------------------------------------------------------

 Alpha MOs
 -- Occupied --
*******-453.898 -58.124 -58.092 -52.181 -52.180 -52.178 -52.151
-52.149 -52.146 -10.263 -10.207 -10.190  -7.857  -7.826  -5.802
 -5.798  -5.791  -5.771  -5.768  -5.757  -2.135  -2.134  -2.129
 -2.126  -2.125  -2.105  -2.104  -2.096  -2.093  -2.091  -0.827
 -0.752  -0.695  -0.645  -0.586  -0.472  -0.446  -0.426  -0.401
 -0.386  -0.364  -0.354  -0.324  -0.295  -0.282  -0.230  -0.221

 Beta MOs
 -- Occupied --
*******-453.896 -58.123 -58.091 -52.181 -52.179 -52.177 -52.148
-52.147 -52.145 -10.264 -10.207 -10.190  -7.856  -7.822  -5.801
 -5.797  -5.789  -5.767  -5.763  -5.755  -2.135  -2.134  -2.127
 -2.124  -2.123  -2.100  -2.100  -2.093  -2.090  -2.088  -0.824
 -0.748  -0.683  -0.632  -0.579  -0.471  -0.444  -0.422  -0.398
 -0.383  -0.361  -0.348  -0.319  -0.257  -0.221

          Ground-State Mulliken Net Atomic Charges

     Atom                 Charge (a.u.)    Spin (a.u.)
  --------------------------------------------------------
      1 C                    -0.234623      -0.035806
      2 H                     0.157292       0.003687
      3 C                    -0.170691       0.014802
      4 H                     0.122328      -0.000821
      5 H                     0.121556      -0.004690
      6 C                    -0.329553      -0.000620
      7 H                     0.114173       0.000450
      8 H                     0.127291       0.000093
      9 H                     0.107902       0.000699
     10 Se                   -0.072641       0.880879
     11 H                    -0.051646       0.915855
     12 Se                    0.024592       0.234632
     13 H                     0.084019      -0.009160
  --------------------------------------------------------
  Sum of atomic charges =    -0.000000

                    Cartesian Multipole Moments
 -----------------------------------------------------------------
    Charge (ESU x 10^10)
                -0.0000
    Dipole Moment (Debye)
         X       1.6907      Y       1.5446      Z       0.8833
       Tot       2.4545
    Quadrupole Moments (Debye-Ang)
        XX     -60.1481     XY      -0.8914     YY     -54.8098
        XZ      -1.0436     YZ      -1.6216     ZZ     -60.7575

 Final energy is   -4921.60996102888
 **  OPTIMIZATION CONVERGED  **
 Total job time:  95.22s(wall), 1118.69s(cpu)
        *  Thank you very much for using Q-Chem.  Have a nice day.  *
