 Q-Chem 5.1, Q-Chem, Inc., Pleasanton, CA (2018)
 Q-Chem 5.1.1 for Intel X86 EM64T Linux

User input:
--------------------------------------------------------------

$comment
potential surface scanner
$end

$rem
JOBTYPE  PES_SCAN
UNRESTRICTED TRUE
SYM_IGNORE  TRUE
GEOM_OPT_MAX_CYCLES 400
SCF_MAX_CYCLES 400
METHOD   B3LYP
BASIS   6-31G**
PDB_PRINT 2
SCF_CONVERGENCE 6
THRESH 14
SCF_PRINT 1
$end
$molecule
0 1
C 0.057425 0.591862 -0.338425
H 0.109726 0.720185 -1.420908
C 0.399168 1.916774 0.373717
H -0.426924 2.622097 0.208675
H 0.456155 1.743831 1.453796
C 1.697101 2.557631 -0.131198
H 1.880570 3.500379 0.393417
H 2.552897 1.898686 0.037526
H 1.638030 2.777160 -1.202730
Se -1.819640 0.176670 0.125160
H -1.908297 -2.036988 -1.033226
Se 1.349293 -0.878131 0.022631
H 0.846698 -1.141250 1.385069
$end
$scan
stre 10 11 2.600000 2.601000 0.100000
$end
--------------------------------------------------------------

   12   -4921.6207215039      2.96e-07  Convergence criterion met
 Total energy in the final basis set =    -4921.6207215039
   12   -4921.6114289701      4.09e-07  Convergence criterion met
 Total energy in the final basis set =    -4921.6114289701
   12   -4921.6112351006      4.11e-07  Convergence criterion met
 Total energy in the final basis set =    -4921.6112351006

             Standard Nuclear Orientation (Angstroms)
    I     Atom           X                Y                Z
 ----------------------------------------------------------------
    1      C       0.0557790789     0.5998943962    -0.3334687230
    2      H       0.1063924919     0.7284625678    -1.4160170253
    3      C       0.4036143506     1.9245910799     0.3779100822
    4      H      -0.4205410302     2.6326779217     0.2155398144
    5      H       0.4639669488     1.7513504753     1.4576672558
    6      C       1.7018718157     2.5609536230    -0.1323120844
    7      H       1.8900323382     3.5031566849     0.3916146950
    8      H       2.5560747964     1.8992114755     0.0334203586
    9      H       1.6392744819     2.7805149276    -1.2036100104
   10      Se     -1.8198159372     0.1920753084     0.1348873445
   11      H      -1.9289721921    -2.1118676105    -1.0650840012
   12      Se      1.3446531680    -0.8734027455     0.0258865271
   13      H       0.8398716889    -1.1387121042     1.3870697669
 ----------------------------------------------------------------

   12   -4921.6112357104      4.07e-07  Convergence criterion met
 Total energy in the final basis set =    -4921.6112357104

                    Orbital Energies (a.u.)
 --------------------------------------------------------------

 Alpha MOs
 -- Occupied --
*******-453.902 -58.116 -58.097 -52.174 -52.173 -52.170 -52.155
-52.154 -52.151 -10.261 -10.212 -10.189  -7.848  -7.831  -5.794
 -5.790  -5.778  -5.776  -5.772  -5.762  -2.128  -2.127  -2.118
 -2.114  -2.112  -2.110  -2.109  -2.101  -2.098  -2.096  -0.822
 -0.739  -0.690  -0.636  -0.583  -0.471  -0.439  -0.426  -0.388
 -0.379  -0.362  -0.347  -0.319  -0.283  -0.242  -0.224

 Beta MOs
 -- Occupied --
*******-453.902 -58.116 -58.097 -52.174 -52.173 -52.170 -52.155
-52.154 -52.151 -10.261 -10.212 -10.189  -7.848  -7.831  -5.794
 -5.790  -5.778  -5.776  -5.772  -5.762  -2.128  -2.127  -2.118
 -2.114  -2.112  -2.110  -2.109  -2.101  -2.098  -2.096  -0.822
 -0.739  -0.690  -0.636  -0.583  -0.471  -0.439  -0.426  -0.388
 -0.379  -0.362  -0.347  -0.319  -0.283  -0.242  -0.224

          Ground-State Mulliken Net Atomic Charges

     Atom                 Charge (a.u.)    Spin (a.u.)
  --------------------------------------------------------
      1 C                    -0.230937      -0.000000
      2 H                     0.159094      -0.000000
      3 C                    -0.196301       0.000000
      4 H                     0.121862      -0.000000
      5 H                     0.125787      -0.000000
      6 C                    -0.327656      -0.000000
      7 H                     0.113224       0.000000
      8 H                     0.139557       0.000000
      9 H                     0.109004       0.000000
     10 Se                   -0.049623      -0.000000
     11 H                     0.019836       0.000000
     12 Se                   -0.054026      -0.000000
     13 H                     0.070179       0.000000
  --------------------------------------------------------
  Sum of atomic charges =    -0.000000

                    Cartesian Multipole Moments
 -----------------------------------------------------------------
    Charge (ESU x 10^10)
                -0.0000
    Dipole Moment (Debye)
         X       0.6965      Y       1.4699      Z       0.1833
       Tot       1.6369
    Quadrupole Moments (Debye-Ang)
        XX     -61.9456     XY       1.3152     YY     -55.1332
        XZ      -0.1642     YZ      -0.2275     ZZ     -56.6033

 Final energy is   -4921.61123571039
 **  OPTIMIZATION CONVERGED  **
 Total job time:  28.96s(wall), 337.73s(cpu)
        *  Thank you very much for using Q-Chem.  Have a nice day.  *
