 Q-Chem 5.1, Q-Chem, Inc., Pleasanton, CA (2018)
 Q-Chem 5.1.1 for Intel X86 EM64T Linux

User input:
--------------------------------------------------------------

$comment
potential surface scanner
$end

$rem
JOBTYPE  PES_SCAN
UNRESTRICTED TRUE
SYM_IGNORE  TRUE
GEOM_OPT_MAX_CYCLES 400
SCF_MAX_CYCLES 400
METHOD   B3LYP
BASIS   6-31G**
PDB_PRINT 2
SCF_CONVERGENCE 6
THRESH 14
SCF_PRINT 1
$end
$molecule
0 1
C 0.315336 1.070558 -1.021349
H -1.174674 -0.298910 -2.493271
C 0.403575 2.069270 0.116849
H 0.087794 3.038817 -0.297097
H -0.352313 1.816555 0.872615
C 1.774672 2.217341 0.778306
H 1.719267 2.961627 1.578759
H 2.105833 1.269212 1.210441
H 2.528868 2.535607 0.056070
Se -1.493729 0.511927 -1.308443
H -0.034140 -1.691854 1.280562
Se 1.693794 0.501523 -2.005898
H -0.742073 -1.552766 1.105959
$end
$scan
stre 10 11 3.800000 3.801000 0.100000
$end
--------------------------------------------------------------

   11   -4921.6891060491      3.34e-07  Convergence criterion met
 Total energy in the final basis set =    -4921.6891060491
   11   -4921.6882391413      3.36e-07  Convergence criterion met
 Total energy in the final basis set =    -4921.6882391413
   11   -4921.6886414410      3.34e-07  Convergence criterion met
 Total energy in the final basis set =    -4921.6886414410
   11   -4921.6893081053      3.30e-07  Convergence criterion met
 Total energy in the final basis set =    -4921.6893081053
   11   -4921.6893207709      3.31e-07  Convergence criterion met
 Total energy in the final basis set =    -4921.6893207709
   11   -4921.6893223437      3.32e-07  Convergence criterion met
 Total energy in the final basis set =    -4921.6893223437
   11   -4921.6893259414      3.36e-07  Convergence criterion met
 Total energy in the final basis set =    -4921.6893259414

             Standard Nuclear Orientation (Angstroms)
    I     Atom           X                Y                Z
 ----------------------------------------------------------------
    1      C       0.3122529471     1.0745633193    -1.0315984209
    2      H      -1.1769856851    -0.2658473195    -2.5297090946
    3      C       0.4009496774     2.0653365069     0.1137572433
    4      H       0.0833138787     3.0372048332    -0.2935882356
    5      H      -0.3547505116     1.8075781185     0.8680240284
    6      C       1.7714318274     2.2123572547     0.7762010541
    7      H       1.7142011968     2.9515015102     1.5813795573
    8      H       2.1050855400     1.2625053082     1.2025684740
    9      H       2.5247902305     2.5371875853     0.0561041670
   10      Se     -1.5012163794     0.5415963540    -1.3437633988
   11      H      -0.0192069549    -1.7094774755     1.3351010008
   12      Se      1.6939129890     0.4961735625    -2.0067161243
   13      H      -0.7215687559    -1.5617725576     1.1457427492
 ----------------------------------------------------------------

   11   -4921.6893266754      3.36e-07  Convergence criterion met
 Total energy in the final basis set =    -4921.6893266754

                    Orbital Energies (a.u.)
 --------------------------------------------------------------

 Alpha MOs
 -- Occupied --
*******-453.879 -58.123 -58.074 -52.180 -52.179 -52.177 -52.132
-52.131 -52.128 -10.289 -10.219 -10.186  -7.856  -7.808  -5.802
 -5.797  -5.790  -5.753  -5.749  -5.740  -2.135  -2.134  -2.128
 -2.124  -2.124  -2.087  -2.086  -2.079  -2.076  -2.074  -0.831
 -0.753  -0.697  -0.652  -0.528  -0.470  -0.449  -0.430  -0.418
 -0.381  -0.370  -0.364  -0.339  -0.305  -0.241  -0.214

 Beta MOs
 -- Occupied --
*******-453.879 -58.123 -58.074 -52.180 -52.179 -52.177 -52.132
-52.131 -52.128 -10.289 -10.219 -10.186  -7.856  -7.808  -5.802
 -5.797  -5.790  -5.753  -5.749  -5.740  -2.135  -2.134  -2.128
 -2.124  -2.124  -2.087  -2.086  -2.079  -2.076  -2.074  -0.831
 -0.753  -0.697  -0.652  -0.528  -0.470  -0.449  -0.430  -0.418
 -0.381  -0.370  -0.364  -0.339  -0.305  -0.241  -0.214

          Ground-State Mulliken Net Atomic Charges

     Atom                 Charge (a.u.)    Spin (a.u.)
  --------------------------------------------------------
      1 C                    -0.031808      -0.000000
      2 H                     0.091828       0.000000
      3 C                    -0.225512       0.000000
      4 H                     0.151245       0.000000
      5 H                     0.129345       0.000000
      6 C                    -0.315233      -0.000000
      7 H                     0.104126       0.000000
      8 H                     0.125989       0.000000
      9 H                     0.141648      -0.000000
     10 Se                    0.021413      -0.000000
     11 H                    -0.005445       0.000000
     12 Se                   -0.192758       0.000000
     13 H                     0.005161      -0.000000
  --------------------------------------------------------
  Sum of atomic charges =     0.000000

                    Cartesian Multipole Moments
 -----------------------------------------------------------------
    Charge (ESU x 10^10)
                -0.0000
    Dipole Moment (Debye)
         X      -1.3704      Y       0.8654      Z       1.1746
       Tot       2.0016
    Quadrupole Moments (Debye-Ang)
        XX     -59.8367     XY       0.3374     YY     -55.3434
        XZ       3.9312     YZ       2.7162     ZZ     -59.1161

 Final energy is   -4921.68932667538
 **  OPTIMIZATION CONVERGED  **
 Total job time:  55.15s(wall), 627.37s(cpu)
        *  Thank you very much for using Q-Chem.  Have a nice day.  *
