 Q-Chem 5.1, Q-Chem, Inc., Pleasanton, CA (2018)
 Q-Chem 5.1.1 for Intel X86 EM64T Linux

User input:
--------------------------------------------------------------

$comment
potential surface scanner
$end

$rem
JOBTYPE  PES_SCAN
UNRESTRICTED TRUE
SYM_IGNORE  TRUE
GEOM_OPT_MAX_CYCLES 400
SCF_MAX_CYCLES 400
METHOD   B3LYP
BASIS   6-31G**
PDB_PRINT 2
SCF_CONVERGENCE 6
THRESH 14
SCF_PRINT 1
$end
$molecule
0 1
C 0.071129 0.519435 -0.377002
H 0.127239 0.649347 -1.459510
C 0.359777 1.848595 0.334728
H -0.481484 2.525406 0.131513
H 0.373772 1.685307 1.418664
C 1.658141 2.524154 -0.115180
H 1.783569 3.483599 0.396359
H 2.528364 1.901444 0.107979
H 1.648021 2.721121 -1.193064
Se -1.802313 0.001047 0.060518
H -1.793032 -1.356215 -0.786686
Se 1.404605 -0.915832 -0.016205
H 0.954414 -1.138507 1.371385
$end
$scan
stre 10 11 1.700000 1.701000 0.100000
$end
--------------------------------------------------------------

    9   -4921.7246954138      9.24e-07  Convergence criterion met
 Total energy in the final basis set =    -4921.7246954138
   10   -4921.7156887007      6.61e-07  Convergence criterion met
 Total energy in the final basis set =    -4921.7156887007
   10   -4921.7154640037      6.64e-07  Convergence criterion met
 Total energy in the final basis set =    -4921.7154640037
   10   -4921.7154653609      6.64e-07  Convergence criterion met
 Total energy in the final basis set =    -4921.7154653609
   10   -4921.7154669960      6.64e-07  Convergence criterion met
 Total energy in the final basis set =    -4921.7154669960

             Standard Nuclear Orientation (Angstroms)
    I     Atom           X                Y                Z
 ----------------------------------------------------------------
    1      C       0.0716514980     0.5258793796    -0.3692585908
    2      H       0.1276687299     0.6551030008    -1.4517506891
    3      C       0.3650528742     1.8558439467     0.3411255160
    4      H      -0.4761357431     2.5345122671     0.1437617941
    5      H       0.3880663349     1.6924481876     1.4247530854
    6      C       1.6611484605     2.5292068625    -0.1197284964
    7      H       1.7943710643     3.4869790563     0.3928717675
    8      H       2.5313443262     1.9030489853     0.0938680664
    9      H       1.6408099124     2.7285145999    -1.1970004039
   10      Se     -1.8035596127     0.0203245265     0.0699101892
   11      H      -1.8037231882    -1.4249039808    -0.8252512843
   12      Se      1.4010723879    -0.9112906660    -0.0049775651
   13      H       0.9344349558    -1.1467651654     1.3751756108
 ----------------------------------------------------------------

   10   -4921.7154677202      6.64e-07  Convergence criterion met
 Total energy in the final basis set =    -4921.7154677202

                    Orbital Energies (a.u.)
 --------------------------------------------------------------

 Alpha MOs
 -- Occupied --
*******-453.900 -58.102 -58.096 -52.160 -52.159 -52.156 -52.153
-52.152 -52.149 -10.258 -10.206 -10.185  -7.835  -7.829  -5.780
 -5.777  -5.775  -5.771  -5.766  -5.761  -2.114  -2.114  -2.108
 -2.108  -2.105  -2.102  -2.100  -2.100  -2.096  -2.095  -0.818
 -0.737  -0.690  -0.640  -0.581  -0.467  -0.437  -0.432  -0.386
 -0.377  -0.360  -0.345  -0.342  -0.312  -0.242  -0.222

 Beta MOs
 -- Occupied --
*******-453.900 -58.102 -58.096 -52.160 -52.159 -52.156 -52.153
-52.152 -52.149 -10.258 -10.206 -10.185  -7.835  -7.829  -5.780
 -5.777  -5.775  -5.771  -5.766  -5.761  -2.114  -2.114  -2.108
 -2.108  -2.105  -2.102  -2.100  -2.100  -2.096  -2.095  -0.818
 -0.737  -0.690  -0.640  -0.581  -0.467  -0.437  -0.432  -0.386
 -0.377  -0.360  -0.345  -0.342  -0.312  -0.242  -0.222

          Ground-State Mulliken Net Atomic Charges

     Atom                 Charge (a.u.)    Spin (a.u.)
  --------------------------------------------------------
      1 C                    -0.225908      -0.000000
      2 H                     0.153969       0.000000
      3 C                    -0.189545       0.000000
      4 H                     0.120821      -0.000000
      5 H                     0.120640      -0.000000
      6 C                    -0.328225      -0.000000
      7 H                     0.110727       0.000000
      8 H                     0.137816       0.000000
      9 H                     0.106338       0.000000
     10 Se                   -0.060193       0.000000
     11 H                     0.051777      -0.000000
     12 Se                   -0.067445       0.000000
     13 H                     0.069228      -0.000000
  --------------------------------------------------------
  Sum of atomic charges =    -0.000000

                    Cartesian Multipole Moments
 -----------------------------------------------------------------
    Charge (ESU x 10^10)
                 0.0000
    Dipole Moment (Debye)
         X       0.3812      Y       1.0002      Z      -0.0650
       Tot       1.0724
    Quadrupole Moments (Debye-Ang)
        XX     -61.5903     XY       2.0537     YY     -55.6361
        XZ       0.5344     YZ      -0.0854     ZZ     -56.0956

 Final energy is   -4921.71546772025
 **  OPTIMIZATION CONVERGED  **
 Total job time:  39.07s(wall), 454.04s(cpu)
        *  Thank you very much for using Q-Chem.  Have a nice day.  *
