 Q-Chem 5.1, Q-Chem, Inc., Pleasanton, CA (2018)
 Q-Chem 5.1.1 for Intel X86 EM64T Linux

User input:
--------------------------------------------------------------

$comment
potential surface scanner
$end

$rem
JOBTYPE  PES_SCAN
UNRESTRICTED TRUE
SYM_IGNORE  TRUE
GEOM_OPT_MAX_CYCLES 400
SCF_MAX_CYCLES 400
METHOD   B3LYP
BASIS   6-31G**
PDB_PRINT 2
SCF_CONVERGENCE 6
THRESH 14
SCF_PRINT 1
$end
$molecule
0 3
C 0.137038 0.956688 -0.772016
H 0.239371 1.482252 -1.724348
C 0.432779 1.875426 0.409869
H -0.394150 2.596339 0.461013
H 0.385690 1.296117 1.338639
C 1.760357 2.633888 0.307793
H 1.872803 3.316667 1.155568
H 2.616037 1.952655 0.307432
H 1.807302 3.232141 -0.608785
Se -1.572947 0.004294 -0.717852
H -3.038740 -3.239339 0.292247
Se 1.378144 -0.597960 -0.983955
H 1.208514 -1.060269 0.407896
$end
$scan
stre 10 11 3.600000 3.601000 0.100000
$end
--------------------------------------------------------------

   11   -4921.6076458311      7.23e-07  Convergence criterion met
 Total energy in the final basis set =    -4921.6076458311
   11   -4921.6076416589      7.68e-07  Convergence criterion met
 Total energy in the final basis set =    -4921.6076416589

             Standard Nuclear Orientation (Angstroms)
    I     Atom           X                Y                Z
 ----------------------------------------------------------------
    1      C       0.1338235485     0.9479919323    -0.7690209515
    2      H       0.2334927203     1.4730588189    -1.7219121757
    3      C       0.4294426177     1.8683013153     0.4116967243
    4      H      -0.3995481556     2.5867234731     0.4643989566
    5      H       0.3863270863     1.2893966525     1.3409110088
    6      C       1.7544357434     2.6307733260     0.3060009889
    7      H       1.8671686538     3.3138862710     1.1534686895
    8      H       2.6121637031     1.9521302579     0.3032660774
    9      H       1.7970014195     3.2291662489    -0.6106941462
   10      Se     -1.5742199985    -0.0080295712    -0.7115227082
   11      H      -2.9956420305    -3.1641458669     0.2776635398
   12      Se      1.3776234077    -0.6043469455    -0.9815159302
   13      H       1.2101292842    -1.0660069122     0.4107609265
 ----------------------------------------------------------------

   11   -4921.6076421355      7.69e-07  Convergence criterion met
 Total energy in the final basis set =    -4921.6076421355

                    Orbital Energies (a.u.)
 --------------------------------------------------------------

 Alpha MOs
 -- Occupied --
*******-453.889 -58.121 -58.084 -52.178 -52.177 -52.175 -52.142
-52.141 -52.137 -10.260 -10.207 -10.188  -7.854  -7.817  -5.799
 -5.795  -5.788  -5.764  -5.760  -5.748  -2.132  -2.132  -2.126
 -2.123  -2.122  -2.097  -2.097  -2.087  -2.085  -2.082  -0.824
 -0.749  -0.691  -0.641  -0.582  -0.470  -0.444  -0.423  -0.398
 -0.384  -0.362  -0.351  -0.322  -0.306  -0.277  -0.226  -0.223

 Beta MOs
 -- Occupied --
*******-453.887 -58.120 -58.083 -52.178 -52.177 -52.174 -52.140
-52.139 -52.137 -10.260 -10.207 -10.188  -7.854  -7.815  -5.798
 -5.795  -5.786  -5.760  -5.755  -5.747  -2.132  -2.131  -2.125
 -2.121  -2.120  -2.093  -2.092  -2.085  -2.082  -2.080  -0.822
 -0.745  -0.680  -0.629  -0.576  -0.469  -0.443  -0.420  -0.396
 -0.382  -0.360  -0.346  -0.316  -0.254  -0.213

          Ground-State Mulliken Net Atomic Charges

     Atom                 Charge (a.u.)    Spin (a.u.)
  --------------------------------------------------------
      1 C                    -0.233954      -0.028083
      2 H                     0.155819       0.001894
      3 C                    -0.170800       0.002379
      4 H                     0.122691      -0.000640
      5 H                     0.117875      -0.000284
      6 C                    -0.329134       0.000125
      7 H                     0.112734       0.000301
      8 H                     0.127226       0.000098
      9 H                     0.108464       0.000027
     10 Se                   -0.110347       0.826816
     11 H                     0.002253       0.992905
     12 Se                    0.018870       0.210185
     13 H                     0.078304      -0.005723
  --------------------------------------------------------
  Sum of atomic charges =     0.000000

                    Cartesian Multipole Moments
 -----------------------------------------------------------------
    Charge (ESU x 10^10)
                 0.0000
    Dipole Moment (Debye)
         X       1.8976      Y       1.3841      Z       0.8283
       Tot       2.4905
    Quadrupole Moments (Debye-Ang)
        XX     -60.6650     XY      -0.4916     YY     -54.4896
        XZ      -0.6621     YZ      -1.7121     ZZ     -58.8429

 Final energy is   -4921.60764213548
 **  OPTIMIZATION CONVERGED  **
 Total job time:  20.58s(wall), 237.27s(cpu)
        *  Thank you very much for using Q-Chem.  Have a nice day.  *
