 Q-Chem 5.1, Q-Chem, Inc., Pleasanton, CA (2018)
 Q-Chem 5.1.1 for Intel X86 EM64T Linux

User input:
--------------------------------------------------------------

$comment
potential surface scanner
$end

$rem
JOBTYPE  PES_SCAN
UNRESTRICTED TRUE
SYM_IGNORE  TRUE
GEOM_OPT_MAX_CYCLES 400
SCF_MAX_CYCLES 400
METHOD   B3LYP
BASIS   6-31G**
PDB_PRINT 2
SCF_CONVERGENCE 6
THRESH 14
SCF_PRINT 1
$end
$molecule
0 1
C 0.074145 0.512052 -0.382872
H 0.132596 0.642389 -1.465302
C 0.356161 1.841521 0.329941
H -0.487181 2.514409 0.122983
H 0.365593 1.677598 1.413808
C 1.653860 2.522014 -0.113411
H 1.772552 3.482244 0.398350
H 2.525867 1.903475 0.114475
H 1.648931 2.718864 -1.191401
Se -1.798193 -0.017252 0.048751
H -1.783308 -1.286643 -0.750264
Se 1.410779 -0.920035 -0.019638
H 0.960400 -1.141736 1.368079
$end
$scan
stre 10 11 1.600000 1.601000 0.100000
$end
--------------------------------------------------------------

    9   -4921.7293887735      7.50e-07  Convergence criterion met
 Total energy in the final basis set =    -4921.7293887735
    9   -4921.7248312444      9.10e-07  Convergence criterion met
 Total energy in the final basis set =    -4921.7248312444
    9   -4921.7246944532      9.23e-07  Convergence criterion met
 Total energy in the final basis set =    -4921.7246944532

             Standard Nuclear Orientation (Angstroms)
    I     Atom           X                Y                Z
 ----------------------------------------------------------------
    1      C       0.0711293472     0.5194354952    -0.3770018372
    2      H       0.1272386929     0.6493471662    -1.4595103093
    3      C       0.3597769745     1.8485946128     0.3347281422
    4      H      -0.4814840930     2.5254059956     0.1315126982
    5      H       0.3737718518     1.6853066533     1.4186642047
    6      C       1.6581413906     2.5241541496    -0.1151804425
    7      H       1.7835688505     3.4835985162     0.3963585343
    8      H       2.5283638650     1.9014440125     0.1079792737
    9      H       1.6480208436     2.7211207449    -1.1930636572
   10      Se     -1.8023129933     0.0010467534     0.0605176692
   11      H      -1.7930317309    -1.3562153222    -0.7866856490
   12      Se      1.4046050367    -0.9158315439    -0.0162048008
   13      H       0.9544139645    -1.1385072336     1.3713851737
 ----------------------------------------------------------------

    9   -4921.7246954358      9.24e-07  Convergence criterion met
 Total energy in the final basis set =    -4921.7246954358

                    Orbital Energies (a.u.)
 --------------------------------------------------------------

 Alpha MOs
 -- Occupied --
*******-453.900 -58.099 -58.096 -52.157 -52.156 -52.153 -52.153
-52.152 -52.149 -10.258 -10.205 -10.184  -7.832  -7.829  -5.778
 -5.775  -5.774  -5.771  -5.764  -5.761  -2.111  -2.111  -2.108
 -2.108  -2.103  -2.100  -2.100  -2.098  -2.096  -2.095  -0.818
 -0.737  -0.691  -0.642  -0.581  -0.467  -0.438  -0.434  -0.386
 -0.377  -0.361  -0.349  -0.342  -0.311  -0.242  -0.222

 Beta MOs
 -- Occupied --
*******-453.900 -58.099 -58.096 -52.157 -52.156 -52.153 -52.153
-52.152 -52.149 -10.258 -10.205 -10.184  -7.832  -7.829  -5.778
 -5.775  -5.774  -5.771  -5.764  -5.761  -2.111  -2.111  -2.108
 -2.108  -2.103  -2.100  -2.100  -2.098  -2.096  -2.095  -0.818
 -0.737  -0.691  -0.642  -0.581  -0.467  -0.438  -0.434  -0.386
 -0.377  -0.361  -0.349  -0.342  -0.311  -0.242  -0.222

          Ground-State Mulliken Net Atomic Charges

     Atom                 Charge (a.u.)    Spin (a.u.)
  --------------------------------------------------------
      1 C                    -0.225375       0.000000
      2 H                     0.153317       0.000000
      3 C                    -0.188310      -0.000000
      4 H                     0.120982       0.000000
      5 H                     0.120114       0.000000
      6 C                    -0.328241      -0.000000
      7 H                     0.110471       0.000000
      8 H                     0.137679      -0.000000
      9 H                     0.106086      -0.000000
     10 Se                   -0.065126      -0.000000
     11 H                     0.058356       0.000000
     12 Se                   -0.069009       0.000000
     13 H                     0.069056       0.000000
  --------------------------------------------------------
  Sum of atomic charges =     0.000000

                    Cartesian Multipole Moments
 -----------------------------------------------------------------
    Charge (ESU x 10^10)
                 0.0000
    Dipole Moment (Debye)
         X       0.3693      Y       0.9398      Z      -0.0999
       Tot       1.0147
    Quadrupole Moments (Debye-Ang)
        XX     -61.5475     XY       2.1576     YY     -55.6419
        XZ       0.6698     YZ      -0.0765     ZZ     -56.0058

 Final energy is   -4921.72469543585
 **  OPTIMIZATION CONVERGED  **
 Total job time:  24.37s(wall), 283.17s(cpu)
        *  Thank you very much for using Q-Chem.  Have a nice day.  *
