 Q-Chem 5.1, Q-Chem, Inc., Pleasanton, CA (2018)
 Q-Chem 5.1.1 for Intel X86 EM64T Linux

User input:
--------------------------------------------------------------

$comment
potential surface scanner
$end

$rem
JOBTYPE  PES_SCAN
UNRESTRICTED TRUE
SYM_IGNORE  TRUE
GEOM_OPT_MAX_CYCLES 400
SCF_MAX_CYCLES 400
METHOD   B3LYP
BASIS   6-31G**
PDB_PRINT 2
SCF_CONVERGENCE 6
THRESH 14
SCF_PRINT 1
$end
$molecule
0 1
C 0.034100 0.572900 -0.443500
H 0.076700 0.782000 -1.512400
C 0.317600 1.856700 0.339100
H -0.478400 2.578000 0.154400
H 0.362900 1.630300 1.404300
C 1.654900 2.445600 -0.114500
H 1.856900 3.360200 0.443000
H 2.450900 1.724300 0.070100
H 1.609600 2.672000 -1.179800
Se -1.749100 -0.095100 0.021000
H -1.828300 -1.374900 -0.867600
Se 1.377500 -0.779800 0.011600
H 1.146900 -0.923300 1.547800
$end
$scan
stre 10 11 1.100000 1.101000 0.100000
$end
--------------------------------------------------------------

    9   -4921.7163210720      6.91e-07  Convergence criterion met
 Total energy in the final basis set =    -4921.7163210720
    9   -4921.7270734465      6.56e-07  Convergence criterion met
 Total energy in the final basis set =    -4921.7270734465
    9   -4921.7115658405      6.05e-07  Convergence criterion met
 Total energy in the final basis set =    -4921.7115658405
    9   -4921.6542798655      6.05e-07  Convergence criterion met
 Total energy in the final basis set =    -4921.6542798655
    9   -4921.6244608595      6.15e-07  Convergence criterion met
 Total energy in the final basis set =    -4921.6244608595
    9   -4921.6231463629      6.19e-07  Convergence criterion met
 Total energy in the final basis set =    -4921.6231463629
    9   -4921.6233164111      6.27e-07  Convergence criterion met
 Total energy in the final basis set =    -4921.6233164111
    9   -4921.6233625783      6.28e-07  Convergence criterion met
 Total energy in the final basis set =    -4921.6233625783
    9   -4921.6234263333      6.25e-07  Convergence criterion met
 Total energy in the final basis set =    -4921.6234263333
    9   -4921.6234564015      6.23e-07  Convergence criterion met
 Total energy in the final basis set =    -4921.6234564015
    9   -4921.6234701570      6.22e-07  Convergence criterion met
 Total energy in the final basis set =    -4921.6234701570
    9   -4921.6234785907      6.24e-07  Convergence criterion met
 Total energy in the final basis set =    -4921.6234785907
    9   -4921.6234807250      6.25e-07  Convergence criterion met
 Total energy in the final basis set =    -4921.6234807250

             Standard Nuclear Orientation (Angstroms)
    I     Atom           X                Y                Z
 ----------------------------------------------------------------
    1      C       0.0683132603     0.4961907963    -0.4185658421
    2      H       0.1481704826     0.6390476761    -1.4985478633
    3      C       0.3331286319     1.8174177611     0.3103109895
    4      H      -0.5076955435     2.4884458212     0.0886779283
    5      H       0.3141346162     1.6460701199     1.3927115481
    6      C       1.6399425502     2.5021265077    -0.0992845095
    7      H       1.7521006051     3.4544612387     0.4282827874
    8      H       2.5072642508     1.8789943137     0.1337701233
    9      H       1.6556894549     2.7144650979    -1.1743057021
   10      Se     -1.8035122812    -0.0890496272    -0.0460180482
   11      H      -1.6891855824    -1.0618027200    -0.5466984484
   12      Se      1.3985259153    -0.9400598586    -0.0565685135
   13      H       1.0153236399    -1.0974071267     1.3597355504
 ----------------------------------------------------------------

    9   -4921.6234815844      6.26e-07  Convergence criterion met
 Total energy in the final basis set =    -4921.6234815844

                    Orbital Energies (a.u.)
 --------------------------------------------------------------

 Alpha MOs
 -- Occupied --
*******-453.888 -58.098 -58.089 -52.155 -52.154 -52.152 -52.146
-52.144 -52.142 -10.259 -10.204 -10.183  -7.831  -7.827  -5.777
 -5.773  -5.773  -5.768  -5.763  -5.759  -2.111  -2.110  -2.110
 -2.106  -2.102  -2.099  -2.098  -2.097  -2.094  -2.094  -0.823
 -0.759  -0.716  -0.657  -0.585  -0.466  -0.453  -0.436  -0.388
 -0.379  -0.367  -0.355  -0.342  -0.312  -0.245  -0.225

 Beta MOs
 -- Occupied --
*******-453.888 -58.098 -58.089 -52.155 -52.154 -52.152 -52.146
-52.144 -52.142 -10.259 -10.204 -10.183  -7.831  -7.827  -5.777
 -5.773  -5.773  -5.768  -5.763  -5.759  -2.111  -2.110  -2.110
 -2.106  -2.102  -2.099  -2.098  -2.097  -2.094  -2.094  -0.823
 -0.759  -0.716  -0.657  -0.585  -0.466  -0.453  -0.436  -0.388
 -0.379  -0.367  -0.355  -0.342  -0.312  -0.245  -0.225

          Ground-State Mulliken Net Atomic Charges

     Atom                 Charge (a.u.)    Spin (a.u.)
  --------------------------------------------------------
      1 C                    -0.222182       0.000000
      2 H                     0.152628       0.000000
      3 C                    -0.180904      -0.000000
      4 H                     0.121405      -0.000000
      5 H                     0.119175       0.000000
      6 C                    -0.329209      -0.000000
      7 H                     0.110222       0.000000
      8 H                     0.136569       0.000000
      9 H                     0.105588       0.000000
     10 Se                   -0.068310      -0.000000
     11 H                     0.058673       0.000000
     12 Se                   -0.072174       0.000000
     13 H                     0.068520      -0.000000
  --------------------------------------------------------
  Sum of atomic charges =     0.000000

                    Cartesian Multipole Moments
 -----------------------------------------------------------------
    Charge (ESU x 10^10)
                -0.0000
    Dipole Moment (Debye)
         X       0.5305      Y       0.6969      Z      -0.1378
       Tot       0.8866
    Quadrupole Moments (Debye-Ang)
        XX     -61.5391     XY       2.4240     YY     -55.2472
        XZ       0.9596     YZ      -0.2970     ZZ     -55.7566

 Final energy is   -4921.62348158444
 **  OPTIMIZATION CONVERGED  **
 Total job time:  91.23s(wall), 1004.36s(cpu)
        *  Thank you very much for using Q-Chem.  Have a nice day.  *
