 Q-Chem 5.1, Q-Chem, Inc., Pleasanton, CA (2018)
 Q-Chem 5.1.1 for Intel X86 EM64T Linux

User input:
--------------------------------------------------------------

$comment
potential surface scanner
$end

$rem
JOBTYPE  PES_SCAN
UNRESTRICTED TRUE
SYM_IGNORE  TRUE
GEOM_OPT_MAX_CYCLES 400
SCF_MAX_CYCLES 400
METHOD   B3LYP
BASIS   6-31G**
PDB_PRINT 2
SCF_CONVERGENCE 6
THRESH 14
SCF_PRINT 1
$end
$molecule
0 1
C 0.063928 0.561461 -0.360645
H 0.123417 0.691031 -1.442703
C 0.382012 1.885780 0.356024
H -0.451341 2.580031 0.179221
H 0.422765 1.712496 1.437168
C 1.679335 2.544665 -0.124243
H 1.841908 3.489649 0.403314
H 2.541388 1.897724 0.058653
H 1.637137 2.764263 -1.196702
Se -1.818092 0.111414 0.082524
H -1.835853 -1.745469 -0.898123
Se 1.367347 -0.896858 0.004620
H 0.878247 -1.147286 1.374394
$end
$scan
stre 10 11 2.200000 2.201000 0.100000
$end
--------------------------------------------------------------

   11   -4921.6660037931      2.90e-07  Convergence criterion met
 Total energy in the final basis set =    -4921.6660037931
   11   -4921.6539616005      5.29e-07  Convergence criterion met
 Total energy in the final basis set =    -4921.6539616005
   11   -4921.6536705838      5.36e-07  Convergence criterion met
 Total energy in the final basis set =    -4921.6536705838
   11   -4921.6536727549      5.36e-07  Convergence criterion met
 Total energy in the final basis set =    -4921.6536727549

             Standard Nuclear Orientation (Angstroms)
    I     Atom           X                Y                Z
 ----------------------------------------------------------------
    1      C       0.0637913215     0.5693846548    -0.3593482973
    2      H       0.1230765023     0.6994851156    -1.4413139407
    3      C       0.3863109772     1.8929799951     0.3587451364
    4      H      -0.4452930957     2.5900904418     0.1849485801
    5      H       0.4293331408     1.7177750113     1.4393838359
    6      C       1.6842247142     2.5491728075    -0.1240392344
    7      H       1.8507088819     3.4922796607     0.4056607516
    8      H       2.5446971096     1.8990916505     0.0551309442
    9      H       1.6394908618     2.7716087280    -1.1957534422
   10      Se     -1.8178886256     0.1320991520     0.0880246975
   11      H      -1.8574706746    -1.8250793144    -0.9159098903
   12      Se      1.3629445141    -0.8924297366     0.0055438293
   13      H       0.8682723724    -1.1475571664     1.3724290297
 ----------------------------------------------------------------

   11   -4921.6536734265      5.36e-07  Convergence criterion met
 Total energy in the final basis set =    -4921.6536734265

                    Orbital Energies (a.u.)
 --------------------------------------------------------------

 Alpha MOs
 -- Occupied --
*******-453.901 -58.112 -58.097 -52.171 -52.169 -52.166 -52.154
-52.153 -52.151 -10.259 -10.210 -10.187  -7.844  -7.830  -5.790
 -5.786  -5.776  -5.775  -5.772  -5.762  -2.124  -2.123  -2.114
 -2.111  -2.109  -2.109  -2.109  -2.101  -2.097  -2.096  -0.820
 -0.738  -0.689  -0.636  -0.582  -0.470  -0.438  -0.426  -0.387
 -0.378  -0.360  -0.345  -0.320  -0.304  -0.242  -0.224

 Beta MOs
 -- Occupied --
*******-453.901 -58.112 -58.097 -52.171 -52.169 -52.166 -52.154
-52.153 -52.151 -10.259 -10.210 -10.187  -7.844  -7.830  -5.790
 -5.786  -5.776  -5.775  -5.772  -5.762  -2.124  -2.123  -2.114
 -2.111  -2.109  -2.109  -2.109  -2.101  -2.097  -2.096  -0.820
 -0.738  -0.689  -0.636  -0.582  -0.470  -0.438  -0.426  -0.387
 -0.378  -0.360  -0.345  -0.320  -0.304  -0.242  -0.224

          Ground-State Mulliken Net Atomic Charges

     Atom                 Charge (a.u.)    Spin (a.u.)
  --------------------------------------------------------
      1 C                    -0.227493      -0.000000
      2 H                     0.157105       0.000000
      3 C                    -0.194868       0.000000
      4 H                     0.120628       0.000000
      5 H                     0.124154      -0.000000
      6 C                    -0.327904      -0.000000
      7 H                     0.112198       0.000000
      8 H                     0.138770       0.000000
      9 H                     0.108037       0.000000
     10 Se                   -0.052558      -0.000000
     11 H                     0.030608       0.000000
     12 Se                   -0.058408       0.000000
     13 H                     0.069731       0.000000
  --------------------------------------------------------
  Sum of atomic charges =    -0.000000

                    Cartesian Multipole Moments
 -----------------------------------------------------------------
    Charge (ESU x 10^10)
                -0.0000
    Dipole Moment (Debye)
         X       0.5714      Y       1.2862      Z       0.1187
       Tot       1.4124
    Quadrupole Moments (Debye-Ang)
        XX     -61.8356     XY       1.5403     YY     -55.2705
        XZ       0.0109     YZ      -0.2322     ZZ     -56.5759

 Final energy is   -4921.65367342647
 **  OPTIMIZATION CONVERGED  **
 Total job time:  34.54s(wall), 402.12s(cpu)
        *  Thank you very much for using Q-Chem.  Have a nice day.  *
