 Q-Chem 5.1, Q-Chem, Inc., Pleasanton, CA (2018)
 Q-Chem 5.1.1 for Intel X86 EM64T Linux

User input:
--------------------------------------------------------------

$comment
potential surface scanner
$end

$rem
JOBTYPE  PES_SCAN
UNRESTRICTED TRUE
SYM_IGNORE  TRUE
GEOM_OPT_MAX_CYCLES 400
SCF_MAX_CYCLES 400
METHOD   B3LYP
BASIS   6-31G**
PDB_PRINT 2
SCF_CONVERGENCE 6
THRESH 14
SCF_PRINT 1
$end
$molecule
0 3
C 0.421930 1.021641 -0.771410
H 0.029073 1.625261 -1.589734
C 0.700754 1.840228 0.479449
H -0.260711 2.236870 0.833353
H 1.076407 1.180425 1.268856
C 1.680718 2.995432 0.240419
H 1.842797 3.557070 1.165406
H 2.652217 2.626713 -0.103004
H 1.299268 3.694135 -0.512183
Se -0.661432 -0.614985 -0.524632
H -1.701532 -2.482645 0.323928
Se 1.874368 -0.151167 -1.423295
H -2.121664 -3.080075 0.486341
$end
$scan
stre 10 11 2.200000 2.201000 0.100000
$end
--------------------------------------------------------------

   11   -4921.6613388089      6.15e-07  Convergence criterion met
 Total energy in the final basis set =    -4921.6613388089
   11   -4921.6590342223      6.46e-07  Convergence criterion met
 Total energy in the final basis set =    -4921.6590342223
   11   -4921.6589906605      6.49e-07  Convergence criterion met
 Total energy in the final basis set =    -4921.6589906605
   11   -4921.6589919473      6.46e-07  Convergence criterion met
 Total energy in the final basis set =    -4921.6589919473
   11   -4921.6589948423      6.40e-07  Convergence criterion met
 Total energy in the final basis set =    -4921.6589948423
   11   -4921.6589975911      6.35e-07  Convergence criterion met
 Total energy in the final basis set =    -4921.6589975911
   11   -4921.6589998286      6.35e-07  Convergence criterion met
 Total energy in the final basis set =    -4921.6589998286

             Standard Nuclear Orientation (Angstroms)
    I     Atom           X                Y                Z
 ----------------------------------------------------------------
    1      C       0.4209454778     1.0039474671    -0.7655519414
    2      H       0.0300352760     1.6100634670    -1.5828046842
    3      C       0.7047835988     1.8212402731     0.4847322702
    4      H      -0.2565791841     2.2057276849     0.8518858327
    5      H       1.0994154829     1.1645468240     1.2673409019
    6      C       1.6669407680     2.9899156939     0.2379770116
    7      H       1.8154477574     3.5627638474     1.1584088983
    8      H       2.6455363114     2.6344249888    -0.0985451298
    9      H       1.2768686657     3.6749979938    -0.5224892007
   10      Se     -0.6717033567    -0.6281381480    -0.5156163474
   11      H      -1.6756707213    -2.4055570133     0.3046469273
   12      Se      1.8653416255    -0.1760446970    -1.4169862036
   13      H      -2.0891687015    -3.0089853817     0.4704956653
 ----------------------------------------------------------------

   11   -4921.6590007283      6.39e-07  Convergence criterion met
 Total energy in the final basis set =    -4921.6590007283

                    Orbital Energies (a.u.)
 --------------------------------------------------------------

 Alpha MOs
 -- Occupied --
*******-453.914 -58.111 -58.109 -52.168 -52.168 -52.167 -52.166
-52.165 -52.164 -10.259 -10.206 -10.190  -7.845  -7.843  -5.788
 -5.786  -5.784  -5.783  -5.782  -5.780  -2.120  -2.119  -2.119
 -2.118  -2.117  -2.116  -2.115  -2.115  -2.112  -2.112  -0.828
 -0.754  -0.672  -0.652  -0.580  -0.473  -0.457  -0.434  -0.413
 -0.391  -0.368  -0.353  -0.318  -0.298  -0.276  -0.255  -0.203

 Beta MOs
 -- Occupied --
*******-453.912 -58.110 -58.107 -52.167 -52.165 -52.164 -52.164
-52.162 -52.162 -10.259 -10.206 -10.189  -7.841  -7.839  -5.785
 -5.784  -5.779  -5.778  -5.776  -5.775  -2.117  -2.116  -2.115
 -2.114  -2.113  -2.112  -2.109  -2.109  -2.107  -2.107  -0.822
 -0.744  -0.646  -0.632  -0.572  -0.470  -0.454  -0.433  -0.409
 -0.385  -0.365  -0.347  -0.308  -0.262  -0.231

          Ground-State Mulliken Net Atomic Charges

     Atom                 Charge (a.u.)    Spin (a.u.)
  --------------------------------------------------------
      1 C                    -0.243354      -0.045230
      2 H                     0.153557      -0.001295
      3 C                    -0.172793       0.002697
      4 H                     0.119990       0.000982
      5 H                     0.121464      -0.001543
      6 C                    -0.327551       0.002636
      7 H                     0.114210      -0.000216
      8 H                     0.125905      -0.000452
      9 H                     0.109253       0.000204
     10 Se                    0.014558       1.004491
     11 H                    -0.028808      -0.004975
     12 Se                   -0.000383       1.039398
     13 H                     0.013953       0.003303
  --------------------------------------------------------
  Sum of atomic charges =    -0.000000

                    Cartesian Multipole Moments
 -----------------------------------------------------------------
    Charge (ESU x 10^10)
                -0.0000
    Dipole Moment (Debye)
         X      -0.0130      Y       1.9479      Z       0.4630
       Tot       2.0022
    Quadrupole Moments (Debye-Ang)
        XX     -59.2213     XY       0.9499     YY     -54.9451
        XZ       0.9111     YZ      -0.6585     ZZ     -58.4085

 Final energy is   -4921.65900072833
 **  OPTIMIZATION CONVERGED  **
 Total job time:  52.54s(wall), 616.64s(cpu)
        *  Thank you very much for using Q-Chem.  Have a nice day.  *
