 Q-Chem 5.1, Q-Chem, Inc., Pleasanton, CA (2018)
 Q-Chem 5.1.1 for Intel X86 EM64T Linux

User input:
--------------------------------------------------------------

$comment
potential surface scanner
$end

$rem
JOBTYPE  PES_SCAN
UNRESTRICTED TRUE
SYM_IGNORE  TRUE
GEOM_OPT_MAX_CYCLES 400
SCF_MAX_CYCLES 400
METHOD   B3LYP
BASIS   6-31G**
PDB_PRINT 2
SCF_CONVERGENCE 6
THRESH 14
SCF_PRINT 1
$end
$molecule
0 3
C 0.140352 0.965359 -0.775003
H 0.245279 1.491399 -1.726791
C 0.436109 1.882559 0.408033
H -0.388837 2.605852 0.457657
H 0.385133 1.302831 1.336340
C 1.766196 2.637101 0.309624
H 1.878293 3.319518 1.157736
H 2.619835 1.953310 0.311669
H 1.817541 3.235213 -0.606813
Se -1.571286 0.016094 -0.724162
H -3.082793 -3.314356 0.307076
Se 1.379013 -0.591391 -0.986609
H 1.207363 -1.054590 0.404742
$end
$scan
stre 10 11 3.700000 3.701000 0.100000
$end
--------------------------------------------------------------

   11   -4921.6076428941      7.01e-07  Convergence criterion met
 Total energy in the final basis set =    -4921.6076428941
   11   -4921.6076453630      7.23e-07  Convergence criterion met
 Total energy in the final basis set =    -4921.6076453630

             Standard Nuclear Orientation (Angstroms)
    I     Atom           X                Y                Z
 ----------------------------------------------------------------
    1      C       0.1370376465     0.9566878756    -0.7720157582
    2      H       0.2393712559     1.4822517006    -1.7243482321
    3      C       0.4327794279     1.8754257334     0.4098691750
    4      H      -0.3941498611     2.5963393259     0.4610128285
    5      H       0.3856900660     1.2961169871     1.3386385402
    6      C       1.7603570323     2.6338880658     0.3077930096
    7      H       1.8728032723     3.3166670096     1.1555676854
    8      H       2.6160366371     1.9526547890     0.3074318290
    9      H       1.8073021138     3.2321412553    -0.6087854999
   10      Se     -1.5729472314     0.0042937539    -0.7178521701
   11      H      -3.0387403793    -3.2393386179     0.2922466269
   12      Se      1.3781442806    -0.5979599803    -0.9839553751
   13      H       1.2085137394    -1.0602688980     0.4078963408
 ----------------------------------------------------------------

   11   -4921.6076458311      7.23e-07  Convergence criterion met
 Total energy in the final basis set =    -4921.6076458311

                    Orbital Energies (a.u.)
 --------------------------------------------------------------

 Alpha MOs
 -- Occupied --
*******-453.889 -58.121 -58.084 -52.178 -52.177 -52.175 -52.142
-52.141 -52.137 -10.260 -10.207 -10.188  -7.854  -7.817  -5.799
 -5.795  -5.788  -5.764  -5.760  -5.748  -2.132  -2.132  -2.126
 -2.123  -2.122  -2.097  -2.097  -2.087  -2.085  -2.082  -0.824
 -0.749  -0.691  -0.641  -0.582  -0.470  -0.444  -0.423  -0.398
 -0.384  -0.362  -0.351  -0.321  -0.306  -0.277  -0.226  -0.223

 Beta MOs
 -- Occupied --
*******-453.887 -58.120 -58.083 -52.178 -52.177 -52.174 -52.140
-52.139 -52.137 -10.260 -10.207 -10.188  -7.853  -7.815  -5.798
 -5.794  -5.786  -5.760  -5.755  -5.747  -2.132  -2.131  -2.124
 -2.121  -2.120  -2.093  -2.092  -2.085  -2.082  -2.080  -0.821
 -0.745  -0.680  -0.629  -0.576  -0.469  -0.443  -0.419  -0.396
 -0.382  -0.360  -0.346  -0.316  -0.253  -0.213

          Ground-State Mulliken Net Atomic Charges

     Atom                 Charge (a.u.)    Spin (a.u.)
  --------------------------------------------------------
      1 C                    -0.233843      -0.028893
      2 H                     0.155812       0.001868
      3 C                    -0.170791       0.002393
      4 H                     0.122671      -0.000638
      5 H                     0.117900      -0.000293
      6 C                    -0.329091       0.000098
      7 H                     0.112713       0.000293
      8 H                     0.127227       0.000098
      9 H                     0.108449       0.000028
     10 Se                   -0.110163       0.826710
     11 H                     0.002233       0.994135
     12 Se                    0.018645       0.209922
     13 H                     0.078238      -0.005721
  --------------------------------------------------------
  Sum of atomic charges =     0.000000

                    Cartesian Multipole Moments
 -----------------------------------------------------------------
    Charge (ESU x 10^10)
                -0.0000
    Dipole Moment (Debye)
         X       1.8948      Y       1.3774      Z       0.8327
       Tot       2.4861
    Quadrupole Moments (Debye-Ang)
        XX     -60.6536     XY      -0.4513     YY     -54.4544
        XZ      -0.6709     YZ      -1.7129     ZZ     -58.8557

 Final energy is   -4921.60764583108
 **  OPTIMIZATION CONVERGED  **
 Total job time:  20.36s(wall), 235.12s(cpu)
        *  Thank you very much for using Q-Chem.  Have a nice day.  *
