 Q-Chem 5.1, Q-Chem, Inc., Pleasanton, CA (2018)
 Q-Chem 5.1.1 for Intel X86 EM64T Linux

User input:
--------------------------------------------------------------

$comment
potential surface scanner
$end

$rem
JOBTYPE  PES_SCAN
UNRESTRICTED TRUE
SYM_IGNORE  TRUE
GEOM_OPT_MAX_CYCLES 400
SCF_MAX_CYCLES 400
METHOD   B3LYP
BASIS   6-31G**
PDB_PRINT 2
SCF_CONVERGENCE 6
THRESH 14
SCF_PRINT 1
$end
$molecule
0 3
C 0.271317 0.873181 -1.089147
H 0.560222 1.549915 -1.896642
C 0.192078 1.600343 0.250069
H -0.680196 2.265135 0.196207
H -0.029568 0.875627 1.041172
C 1.437407 2.424612 0.595297
H 1.290008 2.957930 1.539439
H 2.323896 1.792840 0.701047
H 1.647975 3.170965 -0.178539
Se -1.310835 -0.149739 -1.621235
H -1.709337 -1.072606 1.521934
Se 1.649855 -0.569423 -1.201263
H 1.189376 -1.269880 0.015162
$end
$scan
stre 10 11 3.200000 3.201000 0.100000
$end
--------------------------------------------------------------

   12   -4921.6088986714      5.89e-07  Convergence criterion met
 Total energy in the final basis set =    -4921.6088986714
   12   -4921.6091267701      5.65e-07  Convergence criterion met
 Total energy in the final basis set =    -4921.6091267701
   12   -4921.6091391580      5.66e-07  Convergence criterion met
 Total energy in the final basis set =    -4921.6091391580
   12   -4921.6091591549      5.69e-07  Convergence criterion met
 Total energy in the final basis set =    -4921.6091591549
   12   -4921.6091614171      5.70e-07  Convergence criterion met
 Total energy in the final basis set =    -4921.6091614171
   12   -4921.6091679807      5.71e-07  Convergence criterion met
 Total energy in the final basis set =    -4921.6091679807
   12   -4921.6091694998      5.71e-07  Convergence criterion met
 Total energy in the final basis set =    -4921.6091694998
   12   -4921.6091715308      5.72e-07  Convergence criterion met
   12   -4921.6092033389      6.85e-07  Convergence criterion met
 Total energy in the final basis set =    -4921.6092033389
   12   -4921.6092045919      6.96e-07  Convergence criterion met
 Total energy in the final basis set =    -4921.6092045919
   12   -4921.6092059544      7.20e-07  Convergence criterion met
 Total energy in the final basis set =    -4921.6092059544
   12   -4921.6092073060      7.86e-07  Convergence criterion met
 Total energy in the final basis set =    -4921.6092073060
   12   -4921.6092085975      6.14e-07  Convergence criterion met
 Total energy in the final basis set =    -4921.6092085975
   12   -4921.6092096841      7.56e-07  Convergence criterion met
 Total energy in the final basis set =    -4921.6092096841

             Standard Nuclear Orientation (Angstroms)
    I     Atom           X                Y                Z
 ----------------------------------------------------------------
    1      C       0.2406113288     0.8821288321    -1.0773320010
    2      H       0.5716391706     1.5253859850    -1.8963495337
    3      C       0.1616868814     1.6501335124     0.2387821068
    4      H      -0.6709581283     2.3588823146     0.1369632889
    5      H      -0.1251616331     0.9609284561     1.0409636663
    6      C       1.4381066467     2.4156400447     0.6040085580
    7      H       1.2836531427     2.9924510657     1.5209851946
    8      H       2.2820008975     1.7400559058     0.7705763368
    9      H       1.7232301121     3.1178010964    -0.1871772555
   10      Se     -1.3696844003    -0.0924321867    -1.6156486305
   11      H      -1.3196175707    -1.2155393020     1.3803694480
   12      Se      1.5603271928    -0.6153503623    -1.1334139458
   13      H       1.0563643599    -1.2711853618     0.0907737671
 ----------------------------------------------------------------

   12   -4921.6092104925      6.96e-07  Convergence criterion met
 Total energy in the final basis set =    -4921.6092104925

                    Orbital Energies (a.u.)
 --------------------------------------------------------------

 Alpha MOs
 -- Occupied --
*******-453.895 -58.123 -58.089 -52.180 -52.179 -52.177 -52.148
-52.146 -52.143 -10.262 -10.207 -10.189  -7.856  -7.823  -5.801
 -5.797  -5.790  -5.769  -5.765  -5.754  -2.134  -2.134  -2.128
 -2.125  -2.124  -2.102  -2.102  -2.093  -2.091  -2.089  -0.826
 -0.751  -0.694  -0.643  -0.584  -0.471  -0.446  -0.425  -0.401
 -0.385  -0.364  -0.353  -0.323  -0.300  -0.281  -0.229  -0.223

 Beta MOs
 -- Occupied --
*******-453.893 -58.122 -58.088 -52.180 -52.179 -52.176 -52.146
-52.144 -52.142 -10.263 -10.207 -10.189  -7.855  -7.820  -5.800
 -5.796  -5.788  -5.765  -5.761  -5.752  -2.134  -2.133  -2.126
 -2.123  -2.122  -2.098  -2.098  -2.091  -2.087  -2.086  -0.823
 -0.747  -0.682  -0.631  -0.578  -0.470  -0.444  -0.421  -0.398
 -0.383  -0.361  -0.348  -0.318  -0.256  -0.218

          Ground-State Mulliken Net Atomic Charges

     Atom                 Charge (a.u.)    Spin (a.u.)
  --------------------------------------------------------
      1 C                    -0.234189      -0.034664
      2 H                     0.156815       0.003579
      3 C                    -0.170518       0.014601
      4 H                     0.122216      -0.000766
      5 H                     0.119411      -0.005319
      6 C                    -0.329159      -0.000526
      7 H                     0.113685       0.000437
      8 H                     0.127224       0.000099
      9 H                     0.108042       0.000657
     10 Se                   -0.085946       0.862565
     11 H                    -0.031633       0.941172
     12 Se                    0.022480       0.227212
     13 H                     0.081572      -0.009048
  --------------------------------------------------------
  Sum of atomic charges =    -0.000000

                    Cartesian Multipole Moments
 -----------------------------------------------------------------
    Charge (ESU x 10^10)
                -0.0000
    Dipole Moment (Debye)
         X       1.6307      Y       1.4506      Z       1.0766
       Tot       2.4336
    Quadrupole Moments (Debye-Ang)
        XX     -60.1875     XY      -0.7417     YY     -54.7094
        XZ      -1.2971     YZ      -1.7866     ZZ     -61.0036

 Final energy is   -4921.60921049251
 **  OPTIMIZATION CONVERGED  **
 Total job time:  225.00s(wall), 2654.43s(cpu)
        *  Thank you very much for using Q-Chem.  Have a nice day.  *
