 Q-Chem 5.1, Q-Chem, Inc., Pleasanton, CA (2018)
 Q-Chem 5.1.1 for Intel X86 EM64T Linux

User input:
--------------------------------------------------------------

$comment
potential surface scanner
$end

$rem
JOBTYPE  PES_SCAN
UNRESTRICTED TRUE
SYM_IGNORE  TRUE
GEOM_OPT_MAX_CYCLES 400
SCF_MAX_CYCLES 400
METHOD   B3LYP
BASIS   6-31G**
PDB_PRINT 2
SCF_CONVERGENCE 6
THRESH 14
SCF_PRINT 1
$end
$molecule
0 3
C 0.421529 0.956494 -0.637391
H -0.016305 1.509481 -1.468027
C 0.752610 1.851858 0.546459
H -0.196310 2.235366 0.945851
H 1.208806 1.254510 1.342653
C 1.663119 3.027605 0.168592
H 1.860328 3.658076 1.040687
H 2.625160 2.678522 -0.218210
H 1.198926 3.654567 -0.599676
Se -0.631324 -0.680111 -0.261277
H -1.755412 -2.419225 0.087913
Se 1.853413 -0.234636 -1.295691
H -2.152347 -3.043605 0.221614
$end
$scan
stre 10 11 2.000000 2.001000 0.100000
$end
--------------------------------------------------------------

   11   -4921.6558141524      7.79e-07  Convergence criterion met
 Total energy in the final basis set =    -4921.6558141524
   11   -4921.6512939084      9.79e-07  Convergence criterion met
 Total energy in the final basis set =    -4921.6512939084
   11   -4921.6512134111      9.91e-07  Convergence criterion met
 Total energy in the final basis set =    -4921.6512134111
   11   -4921.6512158877      9.89e-07  Convergence criterion met
 Total energy in the final basis set =    -4921.6512158877
   11   -4921.6512210294      9.86e-07  Convergence criterion met
 Total energy in the final basis set =    -4921.6512210294
   11   -4921.6512259434      9.89e-07  Convergence criterion met
 Total energy in the final basis set =    -4921.6512259434
   12   -4921.6512295197      8.28e-07  Convergence criterion met
 Total energy in the final basis set =    -4921.6512295197
   12   -4921.6512311392      8.43e-07  Convergence criterion met
   12   -4921.6512338144      8.76e-07  Convergence criterion met
 Total energy in the final basis set =    -4921.6512338144
   12   -4921.6512371718      9.09e-07  Convergence criterion met
 Total energy in the final basis set =    -4921.6512371718
   12   -4921.6512436308      9.58e-07  Convergence criterion met
 Total energy in the final basis set =    -4921.6512436308
   12   -4921.6512513945      9.88e-07  Convergence criterion met
 Total energy in the final basis set =    -4921.6512513945
   12   -4921.6512588365      9.54e-07  Convergence criterion met
 Total energy in the final basis set =    -4921.6512588365
   12   -4921.6512632445      8.83e-07  Convergence criterion met
 Total energy in the final basis set =    -4921.6512632445

             Standard Nuclear Orientation (Angstroms)
    I     Atom           X                Y                Z
 ----------------------------------------------------------------
    1      C       0.4504317308     0.9227554262    -0.6453323753
    2      H       0.0001489135     1.4731090442    -1.4713222367
    3      C       0.7633923269     1.8147289458     0.5449906292
    4      H      -0.1937527812     2.1588179477     0.9602312610
    5      H       1.2501952987     1.2243557113     1.3282785612
    6      C       1.6272586127     3.0261631561     0.1710562104
    7      H       1.8062181854     3.6562810945     1.0475112256
    8      H       2.5986188644     2.7141599429    -0.2242702022
    9      H       1.1357466523     3.6419475027    -0.5897837286
   10      Se     -0.5683027356    -0.7417788391    -0.2774415872
   11      H      -1.7634426540    -2.3005732729     0.0991227561
   12      Se      1.9101776789    -0.2290315185    -1.3105627935
   13      H      -2.1844970928    -2.9120331410     0.2410192800
 ----------------------------------------------------------------

   12   -4921.6512637792      8.68e-07  Convergence criterion met
 Total energy in the final basis set =    -4921.6512637792

                    Orbital Energies (a.u.)
 --------------------------------------------------------------

 Alpha MOs
 -- Occupied --
*******-453.912 -58.112 -58.107 -52.169 -52.169 -52.168 -52.164
-52.163 -52.163 -10.257 -10.206 -10.189  -7.846  -7.841  -5.788
 -5.786  -5.785  -5.783  -5.780  -5.779  -2.121  -2.120  -2.119
 -2.118  -2.116  -2.116  -2.116  -2.115  -2.110  -2.110  -0.827
 -0.754  -0.673  -0.652  -0.580  -0.475  -0.466  -0.435  -0.409
 -0.390  -0.367  -0.351  -0.314  -0.298  -0.276  -0.255  -0.203

 Beta MOs
 -- Occupied --
*******-453.910 -58.111 -58.106 -52.168 -52.166 -52.165 -52.163
-52.161 -52.160 -10.257 -10.206 -10.189  -7.842  -7.838  -5.786
 -5.783  -5.780  -5.778  -5.774  -5.774  -2.118  -2.116  -2.115
 -2.115  -2.112  -2.111  -2.110  -2.110  -2.105  -2.105  -0.821
 -0.743  -0.646  -0.635  -0.573  -0.470  -0.463  -0.433  -0.406
 -0.384  -0.365  -0.345  -0.303  -0.262  -0.231

          Ground-State Mulliken Net Atomic Charges

     Atom                 Charge (a.u.)    Spin (a.u.)
  --------------------------------------------------------
      1 C                    -0.252174      -0.042471
      2 H                     0.152160      -0.001182
      3 C                    -0.173311       0.002439
      4 H                     0.120377       0.001286
      5 H                     0.121061      -0.001505
      6 C                    -0.327814       0.002690
      7 H                     0.114036      -0.000263
      8 H                     0.125303      -0.000426
      9 H                     0.109151       0.000146
     10 Se                    0.034812       0.989012
     11 H                    -0.050724      -0.006202
     12 Se                    0.004114       1.053275
     13 H                     0.023011       0.003202
  --------------------------------------------------------
  Sum of atomic charges =    -0.000000

                    Cartesian Multipole Moments
 -----------------------------------------------------------------
    Charge (ESU x 10^10)
                 0.0000
    Dipole Moment (Debye)
         X      -0.0613      Y       1.9209      Z       0.3473
       Tot       1.9530
    Quadrupole Moments (Debye-Ang)
        XX     -59.0437     XY       1.0269     YY     -55.1943
        XZ       0.9066     YZ      -0.4153     ZZ     -58.2613

 Final energy is   -4921.65126377918
 **  OPTIMIZATION CONVERGED  **
 Total job time:  111.62s(wall), 1306.68s(cpu)
        *  Thank you very much for using Q-Chem.  Have a nice day.  *
