 Q-Chem 5.1, Q-Chem, Inc., Pleasanton, CA (2018)
 Q-Chem 5.1.1 for Intel X86 EM64T Linux

User input:
--------------------------------------------------------------

$comment
potential surface scanner
$end

$rem
JOBTYPE  PES_SCAN
UNRESTRICTED TRUE
SYM_IGNORE  TRUE
GEOM_OPT_MAX_CYCLES 400
SCF_MAX_CYCLES 400
METHOD   B3LYP
BASIS   6-31G**
PDB_PRINT 2
SCF_CONVERGENCE 6
THRESH 14
SCF_PRINT 1
$end
$molecule
0 3
C 0.552924 1.008332 -1.065701
H 0.136052 1.742014 -1.755580
C 0.685475 1.554545 0.346852
H -0.328840 1.744854 0.723225
H 1.122751 0.789286 0.996480
C 1.511746 2.845419 0.408983
H 1.558468 3.221281 1.435390
H 2.536934 2.678489 0.064278
H 1.070287 3.629832 -0.215301
Se -0.372708 -0.724458 -1.262717
H -1.700775 -1.911614 0.766297
Se 2.145260 0.150814 -1.858149
H -2.085379 -2.279891 1.289442
$end
$scan
stre 10 11 2.600000 2.601000 0.100000
$end
--------------------------------------------------------------

   11   -4921.6658536016      6.72e-07  Convergence criterion met
 Total energy in the final basis set =    -4921.6658536016
   11   -4921.6651020227      7.01e-07  Convergence criterion met
 Total energy in the final basis set =    -4921.6651020227
   11   -4921.6650879346      7.02e-07  Convergence criterion met
 Total energy in the final basis set =    -4921.6650879346

             Standard Nuclear Orientation (Angstroms)
    I     Atom           X                Y                Z
 ----------------------------------------------------------------
    1      C       0.5406962536     0.9968395451    -1.0530210429
    2      H       0.1216896483     1.7274441647    -1.7448977670
    3      C       0.6792604712     1.5502679052     0.3561292000
    4      H      -0.3333251070     1.7448344305     0.7350069714
    5      H       1.1171598255     0.7876799385     1.0084726591
    6      C       1.5087901393     2.8394767797     0.4073631650
    7      H       1.5590429165     3.2226921373     1.4308725254
    8      H       2.5326905721     2.6674820957     0.0612682213
    9      H       1.0678295039     3.6205047908    -0.2215391627
   10      Se     -0.3873969315    -0.7366804291    -1.2380046342
   11      H      -1.6600409546    -1.8694501874     0.7259734694
   12      Se      2.1294723676     0.1343740915    -1.8470208290
   13      H      -2.0436737047    -2.2365622625     1.2528962240
 ----------------------------------------------------------------

   11   -4921.6650883474      7.03e-07  Convergence criterion met
 Total energy in the final basis set =    -4921.6650883474

                    Orbital Energies (a.u.)
 --------------------------------------------------------------

 Alpha MOs
 -- Occupied --
*******-453.916 -58.110 -58.110 -52.167 -52.167 -52.167 -52.167
-52.166 -52.166 -10.261 -10.207 -10.190  -7.844  -7.844  -5.787
 -5.787  -5.784  -5.783  -5.782  -5.782  -2.120  -2.119  -2.119
 -2.118  -2.117  -2.117  -2.114  -2.114  -2.114  -2.114  -0.830
 -0.755  -0.672  -0.652  -0.580  -0.473  -0.446  -0.430  -0.422
 -0.392  -0.370  -0.356  -0.323  -0.299  -0.275  -0.254  -0.203

 Beta MOs
 -- Occupied --
*******-453.913 -58.109 -58.109 -52.166 -52.166 -52.164 -52.164
-52.164 -52.163 -10.261 -10.207 -10.190  -7.841  -7.840  -5.785
 -5.784  -5.778  -5.778  -5.777  -5.777  -2.117  -2.116  -2.115
 -2.114  -2.114  -2.113  -2.109  -2.109  -2.108  -2.108  -0.824
 -0.745  -0.647  -0.631  -0.573  -0.470  -0.441  -0.428  -0.417
 -0.386  -0.367  -0.351  -0.314  -0.262  -0.230

          Ground-State Mulliken Net Atomic Charges

     Atom                 Charge (a.u.)    Spin (a.u.)
  --------------------------------------------------------
      1 C                    -0.227569      -0.046753
      2 H                     0.155075      -0.001245
      3 C                    -0.173147       0.002698
      4 H                     0.120717       0.000923
      5 H                     0.122520      -0.001502
      6 C                    -0.328400       0.002687
      7 H                     0.114835      -0.000189
      8 H                     0.126830      -0.000420
      9 H                     0.109449       0.000164
     10 Se                   -0.001624       1.006646
     11 H                    -0.003101      -0.006991
     12 Se                   -0.007116       1.022764
     13 H                    -0.008469       0.021217
  --------------------------------------------------------
  Sum of atomic charges =    -0.000000

                    Cartesian Multipole Moments
 -----------------------------------------------------------------
    Charge (ESU x 10^10)
                -0.0000
    Dipole Moment (Debye)
         X      -0.2402      Y       1.8782      Z       0.8201
       Tot       2.0635
    Quadrupole Moments (Debye-Ang)
        XX     -59.7603     XY       0.5417     YY     -55.6428
        XZ       1.3918     YZ      -0.8606     ZZ     -59.2410

 Final energy is   -4921.66508834736
 **  OPTIMIZATION CONVERGED  **
 Total job time:  26.78s(wall), 310.47s(cpu)
        *  Thank you very much for using Q-Chem.  Have a nice day.  *
