 Q-Chem 5.1, Q-Chem, Inc., Pleasanton, CA (2018)
 Q-Chem 5.1.1 for Intel X86 EM64T Linux

User input:
--------------------------------------------------------------

$comment
potential surface scanner
$end

$rem
JOBTYPE  PES_SCAN
UNRESTRICTED TRUE
SYM_IGNORE  TRUE
GEOM_OPT_MAX_CYCLES 400
SCF_MAX_CYCLES 400
METHOD   B3LYP
BASIS   6-31G**
PDB_PRINT 2
SCF_CONVERGENCE 6
THRESH 14
SCF_PRINT 1
$end
$molecule
0 1
C 0.061901 0.650592 -0.331727
H 0.120544 0.785953 -1.413259
C 0.429518 1.961908 0.393333
H -0.387959 2.681385 0.247113
H 0.495790 1.773440 1.469855
C 1.730983 2.589117 -0.122142
H 1.935572 3.520440 0.414935
H 2.579057 1.915287 0.024110
H 1.659374 2.826439 -1.188974
Se -1.809099 0.242065 0.128626
H -2.140642 -2.556116 -1.163760
Se 1.323187 -0.851221 0.021770
H 0.833979 -1.090383 1.393623
$end
$scan
stre 10 11 3.200000 3.201000 0.100000
$end
--------------------------------------------------------------

   17   -4921.5746437888      5.03e-07  Convergence criterion met
 Total energy in the final basis set =    -4921.5746437888
   19   -4921.5693945502      5.79e-07  Convergence criterion met
 Total energy in the final basis set =    -4921.5693945502
   20   -4921.5693212237      2.79e-07  Convergence criterion met
 Total energy in the final basis set =    -4921.5693212237
   19   -4921.5693679692      6.66e-07  Convergence criterion met
 Total energy in the final basis set =    -4921.5693679692
   21   -4921.5693778910      5.17e-07  Convergence criterion met
 Total energy in the final basis set =    -4921.5693778910
   19   -4921.5693941381      3.64e-07  Convergence criterion met
 Total energy in the final basis set =    -4921.5693941381
   19   -4921.5694067357      2.16e-07  Convergence criterion met
 Total energy in the final basis set =    -4921.5694067357
   19   -4921.5694219803      1.75e-07  Convergence criterion met
   11   -4921.6258287230      7.81e-07  Convergence criterion met
 Total energy in the final basis set =    -4921.6258287230
   11   -4921.6258299729      7.41e-07  Convergence criterion met
 Total energy in the final basis set =    -4921.6258299729
   11   -4921.6258321703      7.69e-07  Convergence criterion met
 Total energy in the final basis set =    -4921.6258321703
   11   -4921.6258341094      7.73e-07  Convergence criterion met
 Total energy in the final basis set =    -4921.6258341094
   11   -4921.6258358924      7.52e-07  Convergence criterion met
 Total energy in the final basis set =    -4921.6258358924
   11   -4921.6258371121      6.97e-07  Convergence criterion met
 Total energy in the final basis set =    -4921.6258371121

             Standard Nuclear Orientation (Angstroms)
    I     Atom           X                Y                Z
 ----------------------------------------------------------------
    1      C       0.1344378839     0.6786845981    -0.6944892034
    2      H       0.3870577057     1.0032322617    -1.7613549902
    3      C       0.3233463489     1.8104016321     0.3268949723
    4      H      -0.4820349478     2.5343568818     0.1703128764
    5      H       0.1595050253     1.3714574454     1.3181882158
    6      C       1.6792054783     2.5185768890     0.2815909139
    7      H       1.7160819920     3.3001432258     1.0468046382
    8      H       2.5025687318     1.8232930082     0.4624438416
    9      H       1.8457335547     2.9969430753    -0.6902803015
   10      Se     -1.6781449451     0.3209873755    -1.2078011261
   11      H      -0.2723365731    -1.7411875157     0.7949811838
   12      Se      1.4790519472    -0.6828110708    -0.7627731065
   13      H      -0.9622672021    -1.4851718065     0.5889850859
 ----------------------------------------------------------------

   11   -4921.6258376550      6.46e-07  Convergence criterion met
 Total energy in the final basis set =    -4921.6258376550

                    Orbital Energies (a.u.)
 --------------------------------------------------------------

 Alpha MOs
 -- Occupied --
*******-453.911 -58.109 -58.106 -52.167 -52.165 -52.164 -52.163
-52.162 -52.159 -10.279 -10.210 -10.188  -7.841  -7.838  -5.788
 -5.785  -5.783  -5.780  -5.772  -5.769  -2.121  -2.121  -2.118
 -2.118  -2.112  -2.109  -2.108  -2.106  -2.105  -2.103  -0.835
 -0.749  -0.684  -0.640  -0.566  -0.475  -0.447  -0.445  -0.420
 -0.387  -0.368  -0.349  -0.339  -0.249  -0.244  -0.224

 Beta MOs
 -- Occupied --
*******-453.911 -58.109 -58.106 -52.167 -52.165 -52.164 -52.163
-52.162 -52.159 -10.279 -10.210 -10.188  -7.841  -7.838  -5.788
 -5.785  -5.783  -5.780  -5.772  -5.769  -2.121  -2.121  -2.118
 -2.118  -2.112  -2.109  -2.108  -2.106  -2.105  -2.103  -0.835
 -0.749  -0.684  -0.640  -0.566  -0.475  -0.447  -0.445  -0.420
 -0.387  -0.368  -0.349  -0.339  -0.249  -0.244  -0.224

          Ground-State Mulliken Net Atomic Charges

     Atom                 Charge (a.u.)    Spin (a.u.)
  --------------------------------------------------------
      1 C                    -0.245850      -0.000000
      2 H                     0.189427       0.000000
      3 C                    -0.159921      -0.000000
      4 H                     0.130503       0.000000
      5 H                     0.131110       0.000000
      6 C                    -0.331369       0.000000
      7 H                     0.112788      -0.000000
      8 H                     0.139540      -0.000000
      9 H                     0.105364      -0.000000
     10 Se                   -0.049338      -0.000000
     11 H                     0.000650      -0.000000
     12 Se                   -0.031306       0.000000
     13 H                     0.008400       0.000000
  --------------------------------------------------------
  Sum of atomic charges =    -0.000000

                    Cartesian Multipole Moments
 -----------------------------------------------------------------
    Charge (ESU x 10^10)
                 0.0000
    Dipole Moment (Debye)
         X       0.6430      Y       1.5321      Z       0.6250
       Tot       1.7752
    Quadrupole Moments (Debye-Ang)
        XX     -60.7229     XY       1.6996     YY     -56.6689
        XZ      -1.3419     YZ      -2.4571     ZZ     -57.8913

 Final energy is   -4921.62583765496
 **  OPTIMIZATION CONVERGED  **
 Total job time:  564.75s(wall), 6702.37s(cpu)
        *  Thank you very much for using Q-Chem.  Have a nice day.  *
