 Q-Chem 5.1, Q-Chem, Inc., Pleasanton, CA (2018)
 Q-Chem 5.1.1 for Intel X86 EM64T Linux

User input:
--------------------------------------------------------------

$comment
potential surface scanner
$end

$rem
JOBTYPE  PES_SCAN
UNRESTRICTED TRUE
SYM_IGNORE  TRUE
GEOM_OPT_MAX_CYCLES 400
SCF_MAX_CYCLES 400
METHOD   B3LYP
BASIS   6-31G**
PDB_PRINT 2
SCF_CONVERGENCE 6
THRESH 14
SCF_PRINT 1
$end
$molecule
0 1
C 0.034100 0.572900 -0.443500
H 0.076700 0.782000 -1.512400
C 0.317600 1.856700 0.339100
H -0.478400 2.578000 0.154400
H 0.362900 1.630300 1.404300
C 1.654900 2.445600 -0.114500
H 1.856900 3.360200 0.443000
H 2.450900 1.724300 0.070100
H 1.609600 2.672000 -1.179800
Se -1.749100 -0.095100 0.021000
H -1.828300 -1.374900 -0.867600
Se 1.377500 -0.779800 0.011600
H 1.146900 -0.923300 1.547800
$end
$scan
stre 10 11 1.300000 1.301000 0.100000
$end
--------------------------------------------------------------

    9   -4921.7163210720      6.91e-07  Convergence criterion met
 Total energy in the final basis set =    -4921.7163210720
    9   -4921.7270734465      6.56e-07  Convergence criterion met
 Total energy in the final basis set =    -4921.7270734465
    9   -4921.7142351522      6.18e-07  Convergence criterion met
 Total energy in the final basis set =    -4921.7142351522
    9   -4921.7135591806      6.35e-07  Convergence criterion met
 Total energy in the final basis set =    -4921.7135591806
    9   -4921.7136776341      6.37e-07  Convergence criterion met
 Total energy in the final basis set =    -4921.7136776341
    9   -4921.7137395002      6.40e-07  Convergence criterion met
 Total energy in the final basis set =    -4921.7137395002
    9   -4921.7137757295      6.42e-07  Convergence criterion met
 Total energy in the final basis set =    -4921.7137757295
    9   -4921.7138258478      6.47e-07  Convergence criterion met
 Total energy in the final basis set =    -4921.7138258478
    9   -4921.7138408339      6.50e-07  Convergence criterion met
 Total energy in the final basis set =    -4921.7138408339
    9   -4921.7138434278      6.51e-07  Convergence criterion met
 Total energy in the final basis set =    -4921.7138434278
    9   -4921.7138447654      6.52e-07  Convergence criterion met
 Total energy in the final basis set =    -4921.7138447654
    9   -4921.7138469576      6.52e-07  Convergence criterion met
 Total energy in the final basis set =    -4921.7138469576
    9   -4921.7138485948      6.52e-07  Convergence criterion met
 Total energy in the final basis set =    -4921.7138485948

             Standard Nuclear Orientation (Angstroms)
    I     Atom           X                Y                Z
 ----------------------------------------------------------------
    1      C       0.0724190987     0.5083583326    -0.4028307377
    2      H       0.1523442542     0.6462190484    -1.4832382483
    3      C       0.3470373992     1.8306798983     0.3229928938
    4      H      -0.4976610286     2.5028672723     0.1195724670
    5      H       0.3511557963     1.6564862308     1.4051067786
    6      C       1.6454741777     2.5159724421    -0.1106225987
    7      H       1.7679658828     3.4678950814     0.4154962676
    8      H       2.5165657663     1.8921004192     0.1065851483
    9      H       1.6404232842     2.7293585079    -1.1855097094
   10      Se     -1.8068772894    -0.0444274444    -0.0204578920
   11      H      -1.7084488158    -1.1910655700    -0.6250510107
   12      Se      1.3973002031    -0.9310070806    -0.0308174141
   13      H       0.9545012714    -1.1345371380     1.3622740556
 ----------------------------------------------------------------

    9   -4921.7138493702      6.51e-07  Convergence criterion met
 Total energy in the final basis set =    -4921.7138493702

                    Orbital Energies (a.u.)
 --------------------------------------------------------------

 Alpha MOs
 -- Occupied --
*******-453.894 -58.097 -58.091 -52.154 -52.153 -52.151 -52.149
-52.147 -52.145 -10.258 -10.204 -10.184  -7.830  -7.826  -5.776
 -5.772  -5.772  -5.768  -5.762  -5.758  -2.109  -2.109  -2.106
 -2.105  -2.101  -2.098  -2.097  -2.096  -2.094  -2.093  -0.819
 -0.744  -0.704  -0.651  -0.583  -0.466  -0.447  -0.436  -0.387
 -0.378  -0.366  -0.354  -0.342  -0.311  -0.243  -0.223

 Beta MOs
 -- Occupied --
*******-453.894 -58.097 -58.091 -52.154 -52.153 -52.151 -52.149
-52.147 -52.145 -10.258 -10.204 -10.184  -7.830  -7.826  -5.776
 -5.772  -5.772  -5.768  -5.762  -5.758  -2.109  -2.109  -2.106
 -2.105  -2.101  -2.098  -2.097  -2.096  -2.094  -2.093  -0.819
 -0.744  -0.704  -0.651  -0.583  -0.466  -0.447  -0.436  -0.387
 -0.378  -0.366  -0.354  -0.342  -0.311  -0.243  -0.223

          Ground-State Mulliken Net Atomic Charges

     Atom                 Charge (a.u.)    Spin (a.u.)
  --------------------------------------------------------
      1 C                    -0.223472      -0.000000
      2 H                     0.152497       0.000000
      3 C                    -0.182915       0.000000
      4 H                     0.120250      -0.000000
      5 H                     0.119795      -0.000000
      6 C                    -0.329385      -0.000000
      7 H                     0.110384       0.000000
      8 H                     0.136725       0.000000
      9 H                     0.105708      -0.000000
     10 Se                   -0.083682       0.000000
     11 H                     0.077847      -0.000000
     12 Se                   -0.072956      -0.000000
     13 H                     0.069202       0.000000
  --------------------------------------------------------
  Sum of atomic charges =     0.000000

                    Cartesian Multipole Moments
 -----------------------------------------------------------------
    Charge (ESU x 10^10)
                 0.0000
    Dipole Moment (Debye)
         X       0.4336      Y       0.7522      Z      -0.1213
       Tot       0.8767
    Quadrupole Moments (Debye-Ang)
        XX     -61.5270     XY       2.3805     YY     -55.3031
        XZ       0.7350     YZ      -0.2528     ZZ     -56.0018

 Final energy is   -4921.71384937018
 **  OPTIMIZATION CONVERGED  **
 Total job time:  85.64s(wall), 1002.01s(cpu)
        *  Thank you very much for using Q-Chem.  Have a nice day.  *
