 Q-Chem 5.1, Q-Chem, Inc., Pleasanton, CA (2018)
 Q-Chem 5.1.1 for Intel X86 EM64T Linux

User input:
--------------------------------------------------------------

$comment
potential surface scanner
$end

$rem
JOBTYPE  PES_SCAN
UNRESTRICTED TRUE
SYM_IGNORE  TRUE
GEOM_OPT_MAX_CYCLES 400
SCF_MAX_CYCLES 400
METHOD   B3LYP
BASIS   6-31G**
PDB_PRINT 2
SCF_CONVERGENCE 6
THRESH 14
SCF_PRINT 1
$end
$molecule
0 3
C 0.038326 1.021500 -0.720325
H 0.181713 1.484909 -1.698921
C 0.435219 1.966434 0.409206
H -0.311715 2.771325 0.419984
H 0.333221 1.447341 1.368725
C 1.835367 2.572536 0.264597
H 2.024959 3.286478 1.071866
H 2.613003 1.804053 0.303519
H 1.940767 3.108028 -0.685302
Se -1.751975 0.239101 -0.606642
H -2.610453 -3.618293 0.012655
Se 1.119590 -0.658336 -0.850308
H 0.984175 -0.976179 0.584446
$end
$scan
stre 10 11 3.900000 3.901000 0.100000
$end
--------------------------------------------------------------

   11   -4921.6075073953      6.83e-07  Convergence criterion met
 Total energy in the final basis set =    -4921.6075073953
   11   -4921.6075000450      6.91e-07  Convergence criterion met
 Total energy in the final basis set =    -4921.6075000450
   11   -4921.6075015038      6.90e-07  Convergence criterion met
 Total energy in the final basis set =    -4921.6075015038
   11   -4921.6075124744      6.83e-07  Convergence criterion met
 Total energy in the final basis set =    -4921.6075124744
   11   -4921.6075150633      6.82e-07  Convergence criterion met
 Total energy in the final basis set =    -4921.6075150633
   11   -4921.6075231337      6.84e-07  Convergence criterion met
 Total energy in the final basis set =    -4921.6075231337
   11   -4921.6075384906      6.91e-07  Convergence criterion met
 Total energy in the final basis set =    -4921.6075384906
   11   -4921.6075402404      7.22e-07  Convergence criterion met
 Total energy in the final basis set =    -4921.6075402404
   11   -4921.6075618666      7.02e-07  Convergence criterion met
 Total energy in the final basis set =    -4921.6075618666
   11   -4921.6075742400      7.02e-07  Convergence criterion met
 Total energy in the final basis set =    -4921.6075742400
   11   -4921.6076283854      7.02e-07  Convergence criterion met
 Total energy in the final basis set =    -4921.6076283854
   11   -4921.6076323349      6.98e-07  Convergence criterion met
 Total energy in the final basis set =    -4921.6076323349
   11   -4921.6076357511      6.92e-07  Convergence criterion met
 Total energy in the final basis set =    -4921.6076357511

             Standard Nuclear Orientation (Angstroms)
    I     Atom           X                Y                Z
 ----------------------------------------------------------------
    1      C       0.1435990158     0.9741705316    -0.7779868670
    2      H       0.2512569073     1.5005335008    -1.7292997682
    3      C       0.4392745922     1.8899056928     0.4061132480
    4      H      -0.3838012458     2.6154362239     0.4541918258
    5      H       0.3845285593     1.3098657744     1.3340190310
    6      C       1.7719826213     2.6403051076     0.3115110968
    7      H       1.8837964588     3.3222856496     1.1600112318
    8      H       2.6232499604     1.9535640324     0.3161906065
    9      H       1.8281603498     3.2382428896    -0.6047486341
   10      Se     -1.5693887367     0.0274329475    -0.7304064998
   11      H      -3.1272981926    -3.3894021648     0.3222834292
   12      Se      1.3800819423    -0.5844459854    -0.9895230764
   13      H       1.2067547679    -1.0489972001     0.4011443763
 ----------------------------------------------------------------

   11   -4921.6076366392      6.90e-07  Convergence criterion met
 Total energy in the final basis set =    -4921.6076366392

                    Orbital Energies (a.u.)
 --------------------------------------------------------------

 Alpha MOs
 -- Occupied --
*******-453.889 -58.121 -58.084 -52.178 -52.177 -52.175 -52.142
-52.141 -52.137 -10.260 -10.207 -10.188  -7.854  -7.817  -5.799
 -5.795  -5.788  -5.764  -5.760  -5.748  -2.132  -2.132  -2.126
 -2.123  -2.121  -2.097  -2.097  -2.087  -2.085  -2.082  -0.824
 -0.749  -0.691  -0.641  -0.582  -0.470  -0.444  -0.423  -0.398
 -0.384  -0.362  -0.351  -0.321  -0.307  -0.277  -0.226  -0.223

 Beta MOs
 -- Occupied --
*******-453.887 -58.120 -58.083 -52.178 -52.177 -52.174 -52.140
-52.139 -52.137 -10.260 -10.207 -10.188  -7.853  -7.815  -5.798
 -5.794  -5.786  -5.760  -5.755  -5.747  -2.132  -2.131  -2.124
 -2.121  -2.120  -2.093  -2.092  -2.085  -2.082  -2.080  -0.822
 -0.745  -0.680  -0.629  -0.576  -0.469  -0.443  -0.419  -0.396
 -0.382  -0.360  -0.346  -0.316  -0.253  -0.213

          Ground-State Mulliken Net Atomic Charges

     Atom                 Charge (a.u.)    Spin (a.u.)
  --------------------------------------------------------
      1 C                    -0.233645      -0.030024
      2 H                     0.155791       0.001830
      3 C                    -0.170811       0.002405
      4 H                     0.122652      -0.000632
      5 H                     0.117974      -0.000308
      6 C                    -0.329006       0.000059
      7 H                     0.112678       0.000284
      8 H                     0.127232       0.000098
      9 H                     0.108441       0.000029
     10 Se                   -0.109708       0.826242
     11 H                     0.001943       0.996011
     12 Se                    0.018313       0.209728
     13 H                     0.078146      -0.005722
  --------------------------------------------------------
  Sum of atomic charges =     0.000000

                    Cartesian Multipole Moments
 -----------------------------------------------------------------
    Charge (ESU x 10^10)
                -0.0000
    Dipole Moment (Debye)
         X       1.8931      Y       1.3686      Z       0.8409
       Tot       2.4828
    Quadrupole Moments (Debye-Ang)
        XX     -60.6367     XY      -0.3862     YY     -54.3998
        XZ      -0.6878     YZ      -1.7082     ZZ     -58.8811

 Final energy is   -4921.60763663920
 **  OPTIMIZATION CONVERGED  **
 Total job time:  98.62s(wall), 1100.44s(cpu)
        *  Thank you very much for using Q-Chem.  Have a nice day.  *
