 Q-Chem 5.1, Q-Chem, Inc., Pleasanton, CA (2018)
 Q-Chem 5.1.1 for Intel X86 EM64T Linux

User input:
--------------------------------------------------------------

$comment
potential surface scanner
$end

$rem
JOBTYPE  PES_SCAN
UNRESTRICTED TRUE
SYM_IGNORE  TRUE
GEOM_OPT_MAX_CYCLES 400
SCF_MAX_CYCLES 400
METHOD   B3LYP
BASIS   6-31G**
PDB_PRINT 2
SCF_CONVERGENCE 6
THRESH 14
SCF_PRINT 1
$end
$molecule
0 1
C 0.071651 0.525879 -0.369259
H 0.127669 0.655103 -1.451751
C 0.365053 1.855844 0.341126
H -0.476136 2.534512 0.143762
H 0.388066 1.692448 1.424753
C 1.661148 2.529207 -0.119728
H 1.794371 3.486979 0.392872
H 2.531344 1.903049 0.093868
H 1.640810 2.728515 -1.197000
Se -1.803560 0.020325 0.069910
H -1.803723 -1.424904 -0.825251
Se 1.401072 -0.911291 -0.004978
H 0.934435 -1.146765 1.375176
$end
$scan
stre 10 11 1.800000 1.801000 0.100000
$end
--------------------------------------------------------------

   10   -4921.7154677024      6.64e-07  Convergence criterion met
 Total energy in the final basis set =    -4921.7154677024
   10   -4921.7045090254      7.55e-07  Convergence criterion met
 Total energy in the final basis set =    -4921.7045090254
   10   -4921.7042278448      7.55e-07  Convergence criterion met
 Total energy in the final basis set =    -4921.7042278448
   10   -4921.7042306614      7.54e-07  Convergence criterion met
 Total energy in the final basis set =    -4921.7042306614
   10   -4921.7042360035      7.54e-07  Convergence criterion met
 Total energy in the final basis set =    -4921.7042360035

             Standard Nuclear Orientation (Angstroms)
    I     Atom           X                Y                Z
 ----------------------------------------------------------------
    1      C       0.0684641708     0.5371744348    -0.3672610510
    2      H       0.1262565158     0.6659663874    -1.4496634870
    3      C       0.3694823169     1.8646983685     0.3452402007
    4      H      -0.4694007678     2.5484310131     0.1549709366
    5      H       0.3984561726     1.6976762903     1.4280611414
    6      C       1.6660430002     2.5335642418    -0.1215237077
    7      H       1.8091614107     3.4869918623     0.3964395720
    8      H       2.5336671847     1.9003867006     0.0817781555
    9      H       1.6386005316     2.7399310495    -1.1972534892
   10      Se     -1.8099845093     0.0443072525     0.0696888108
   11      H      -1.7997336531    -1.5107643499    -0.8367582840
   12      Se      1.3899102237    -0.9070779285    -0.0022774851
   13      H       0.9112774031    -1.1523843224     1.3720586871
 ----------------------------------------------------------------

   10   -4921.7042365030      7.55e-07  Convergence criterion met
 Total energy in the final basis set =    -4921.7042365030

                    Orbital Energies (a.u.)
 --------------------------------------------------------------

 Alpha MOs
 -- Occupied --
*******-453.900 -58.105 -58.096 -52.163 -52.162 -52.158 -52.153
-52.152 -52.150 -10.258 -10.207 -10.185  -7.837  -7.829  -5.783
 -5.779  -5.775  -5.771  -5.768  -5.761  -2.116  -2.116  -2.108
 -2.108  -2.107  -2.104  -2.102  -2.100  -2.097  -2.095  -0.818
 -0.737  -0.689  -0.639  -0.581  -0.468  -0.437  -0.430  -0.386
 -0.377  -0.360  -0.343  -0.339  -0.311  -0.242  -0.223

 Beta MOs
 -- Occupied --
*******-453.900 -58.105 -58.096 -52.163 -52.162 -52.158 -52.153
-52.152 -52.150 -10.258 -10.207 -10.185  -7.837  -7.829  -5.783
 -5.779  -5.775  -5.771  -5.768  -5.761  -2.116  -2.116  -2.108
 -2.108  -2.107  -2.104  -2.102  -2.100  -2.097  -2.095  -0.818
 -0.737  -0.689  -0.639  -0.581  -0.468  -0.437  -0.430  -0.386
 -0.377  -0.360  -0.343  -0.339  -0.311  -0.242  -0.223

          Ground-State Mulliken Net Atomic Charges

     Atom                 Charge (a.u.)    Spin (a.u.)
  --------------------------------------------------------
      1 C                    -0.226285      -0.000000
      2 H                     0.154648      -0.000000
      3 C                    -0.190425       0.000000
      4 H                     0.120313      -0.000000
      5 H                     0.121421       0.000000
      6 C                    -0.328262      -0.000000
      7 H                     0.111018      -0.000000
      8 H                     0.137992       0.000000
      9 H                     0.106686      -0.000000
     10 Se                   -0.057196       0.000000
     11 H                     0.046716       0.000000
     12 Se                   -0.066103      -0.000000
     13 H                     0.069477      -0.000000
  --------------------------------------------------------
  Sum of atomic charges =    -0.000000

                    Cartesian Multipole Moments
 -----------------------------------------------------------------
    Charge (ESU x 10^10)
                -0.0000
    Dipole Moment (Debye)
         X       0.4139      Y       1.0561      Z      -0.0156
       Tot       1.1344
    Quadrupole Moments (Debye-Ang)
        XX     -61.6547     XY       1.9324     YY     -55.5272
        XZ       0.3727     YZ      -0.1346     ZZ     -56.2614

 Final energy is   -4921.70423650296
 **  OPTIMIZATION CONVERGED  **
 Total job time:  38.94s(wall), 455.98s(cpu)
        *  Thank you very much for using Q-Chem.  Have a nice day.  *
