 Q-Chem 5.1, Q-Chem, Inc., Pleasanton, CA (2018)
 Q-Chem 5.1.1 for Intel X86 EM64T Linux

User input:
--------------------------------------------------------------

$comment
potential surface scanner
$end

$rem
JOBTYPE  PES_SCAN
UNRESTRICTED TRUE
SYM_IGNORE  TRUE
GEOM_OPT_MAX_CYCLES 400
SCF_MAX_CYCLES 400
METHOD   B3LYP
BASIS   6-31G**
PDB_PRINT 2
SCF_CONVERGENCE 6
THRESH 14
SCF_PRINT 1
$end
$molecule
0 1
C 0.034100 0.572900 -0.443500
H 0.076700 0.782000 -1.512400
C 0.317600 1.856700 0.339100
H -0.478400 2.578000 0.154400
H 0.362900 1.630300 1.404300
C 1.654900 2.445600 -0.114500
H 1.856900 3.360200 0.443000
H 2.450900 1.724300 0.070100
H 1.609600 2.672000 -1.179800
Se -1.749100 -0.095100 0.021000
H -1.828300 -1.374900 -0.867600
Se 1.377500 -0.779800 0.011600
H 1.146900 -0.923300 1.547800
$end
$scan
stre 10 11 1.400000 1.401000 0.100000
$end
--------------------------------------------------------------

    9   -4921.7163210720      6.91e-07  Convergence criterion met
 Total energy in the final basis set =    -4921.7163210720
    9   -4921.7270734465      6.56e-07  Convergence criterion met
 Total energy in the final basis set =    -4921.7270734465
    9   -4921.7268757211      6.62e-07  Convergence criterion met
 Total energy in the final basis set =    -4921.7268757211
    9   -4921.7271126297      6.68e-07  Convergence criterion met
 Total energy in the final basis set =    -4921.7271126297
    9   -4921.7271904944      6.70e-07  Convergence criterion met
 Total energy in the final basis set =    -4921.7271904944
    9   -4921.7272152487      6.73e-07  Convergence criterion met
 Total energy in the final basis set =    -4921.7272152487
    9   -4921.7272421685      6.77e-07  Convergence criterion met
 Total energy in the final basis set =    -4921.7272421685
    9   -4921.7272646285      6.83e-07  Convergence criterion met
 Total energy in the final basis set =    -4921.7272646285
    9   -4921.7272758617      6.88e-07  Convergence criterion met
 Total energy in the final basis set =    -4921.7272758617
    9   -4921.7272792429      6.87e-07  Convergence criterion met
 Total energy in the final basis set =    -4921.7272792429
    9   -4921.7272855147      6.86e-07  Convergence criterion met
 Total energy in the final basis set =    -4921.7272855147
    9   -4921.7272881465      6.85e-07  Convergence criterion met
 Total energy in the final basis set =    -4921.7272881465

             Standard Nuclear Orientation (Angstroms)
    I     Atom           X                Y                Z
 ----------------------------------------------------------------
    1      C       0.0737543944     0.5094661957    -0.3897584027
    2      H       0.1420597073     0.6423979338    -1.4714195313
    3      C       0.3521201344     1.8361268136     0.3280821585
    4      H      -0.4928129024     2.5078093982     0.1241271810
    5      H       0.3618017198     1.6677029812     1.4111704909
    6      C       1.6489126312     2.5193530773    -0.1137086498
    7      H       1.7704563605     3.4758574725     0.4042881802
    8      H       2.5211845830     1.8985480879     0.1072657956
    9      H       1.6413618417     2.7237749733    -1.1903133154
   10      Se     -1.8019441824    -0.0327261618     0.0176341640
   11      H      -1.7456230068    -1.2329589528    -0.7008846019
   12      Se      1.4057094009    -0.9253734459    -0.0208808967
   13      H       0.9552193186    -1.1410783731     1.3678974273
 ----------------------------------------------------------------

    9   -4921.7272896895      6.85e-07  Convergence criterion met
 Total energy in the final basis set =    -4921.7272896895

                    Orbital Energies (a.u.)
 --------------------------------------------------------------

 Alpha MOs
 -- Occupied --
*******-453.898 -58.096 -58.094 -52.154 -52.152 -52.151 -52.150
-52.150 -52.148 -10.258 -10.204 -10.184  -7.829  -7.828  -5.775
 -5.773  -5.771  -5.769  -5.761  -5.760  -2.109  -2.108  -2.107
 -2.107  -2.100  -2.098  -2.097  -2.095  -2.095  -2.094  -0.818
 -0.741  -0.698  -0.648  -0.582  -0.466  -0.444  -0.435  -0.386
 -0.377  -0.365  -0.353  -0.342  -0.311  -0.243  -0.222

 Beta MOs
 -- Occupied --
*******-453.898 -58.096 -58.094 -52.154 -52.152 -52.151 -52.150
-52.150 -52.148 -10.258 -10.204 -10.184  -7.829  -7.828  -5.775
 -5.773  -5.771  -5.769  -5.761  -5.760  -2.109  -2.108  -2.107
 -2.107  -2.100  -2.098  -2.097  -2.095  -2.095  -2.094  -0.818
 -0.741  -0.698  -0.648  -0.582  -0.466  -0.444  -0.435  -0.386
 -0.377  -0.365  -0.353  -0.342  -0.311  -0.243  -0.222

          Ground-State Mulliken Net Atomic Charges

     Atom                 Charge (a.u.)    Spin (a.u.)
  --------------------------------------------------------
      1 C                    -0.224189       0.000000
      2 H                     0.152455      -0.000000
      3 C                    -0.184802      -0.000000
      4 H                     0.120754      -0.000000
      5 H                     0.119716       0.000000
      6 C                    -0.328948       0.000000
      7 H                     0.110353      -0.000000
      8 H                     0.137039      -0.000000
      9 H                     0.105728      -0.000000
     10 Se                   -0.078268      -0.000000
     11 H                     0.072818       0.000000
     12 Se                   -0.071886      -0.000000
     13 H                     0.069231       0.000000
  --------------------------------------------------------
  Sum of atomic charges =    -0.000000

                    Cartesian Multipole Moments
 -----------------------------------------------------------------
    Charge (ESU x 10^10)
                 0.0000
    Dipole Moment (Debye)
         X       0.3794      Y       0.8159      Z      -0.1455
       Tot       0.9114
    Quadrupole Moments (Debye-Ang)
        XX     -61.5020     XY       2.3386     YY     -55.5041
        XZ       0.7745     YZ      -0.1370     ZZ     -55.9310

 Final energy is   -4921.72728968954
 **  OPTIMIZATION CONVERGED  **
 Total job time:  80.10s(wall), 934.03s(cpu)
        *  Thank you very much for using Q-Chem.  Have a nice day.  *
