 Q-Chem 5.1, Q-Chem, Inc., Pleasanton, CA (2018)
 Q-Chem 5.1.1 for Intel X86 EM64T Linux

User input:
--------------------------------------------------------------

$comment
potential surface scanner
$end

$rem
JOBTYPE  PES_SCAN
UNRESTRICTED TRUE
SYM_IGNORE  TRUE
GEOM_OPT_MAX_CYCLES 400
SCF_MAX_CYCLES 400
METHOD   B3LYP
BASIS   6-31G**
PDB_PRINT 2
SCF_CONVERGENCE 6
THRESH 14
SCF_PRINT 1
$end
$molecule
0 1
C 0.313460 1.090623 -1.053979
H -1.171339 -0.228422 -2.573436
C 0.397933 2.063828 0.106680
H 0.078536 3.041303 -0.285308
H -0.358009 1.790114 0.855011
C 1.767557 2.201896 0.772423
H 1.711235 2.936112 1.582193
H 2.095955 1.248288 1.194383
H 2.523505 2.529059 0.056085
Se -1.498367 0.555881 -1.373413
H -0.013027 -1.730951 1.414806
Se 1.696857 0.530832 -2.036577
H -0.712087 -1.579655 1.214635
$end
$scan
stre 10 11 4.000000 4.001000 0.100000
$end
--------------------------------------------------------------

   11   -4921.6894979123      3.35e-07  Convergence criterion met
 Total energy in the final basis set =    -4921.6894979123
   11   -4921.6884465356      3.39e-07  Convergence criterion met
 Total energy in the final basis set =    -4921.6884465356
   11   -4921.6888138792      3.37e-07  Convergence criterion met
 Total energy in the final basis set =    -4921.6888138792
   11   -4921.6895808460      3.29e-07  Convergence criterion met
 Total energy in the final basis set =    -4921.6895808460
   11   -4921.6895950301      3.31e-07  Convergence criterion met
 Total energy in the final basis set =    -4921.6895950301
   11   -4921.6895973381      3.32e-07  Convergence criterion met
 Total energy in the final basis set =    -4921.6895973381
   11   -4921.6896041091      3.37e-07  Convergence criterion met
 Total energy in the final basis set =    -4921.6896041091
   11   -4921.6896050554      3.37e-07  Convergence criterion met
 Total energy in the final basis set =    -4921.6896050554
   11   -4921.6896073556      3.35e-07  Convergence criterion met
 Total energy in the final basis set =    -4921.6896073556

             Standard Nuclear Orientation (Angstroms)
    I     Atom           X                Y                Z
 ----------------------------------------------------------------
    1      C       0.3102794006     1.0953911542    -1.0625586578
    2      H      -1.1718028208    -0.1908622503    -2.6106669814
    3      C       0.3950676166     2.0606740784     0.1038055007
    4      H       0.0721803218     3.0398694921    -0.2813200823
    5      H      -0.3607144044     1.7821700827     0.8509213919
    6      C       1.7642437904     2.1981976827     0.7697922977
    7      H       1.7072341482     2.9314400734     1.5802215528
    8      H       2.0940331650     1.2441280250     1.1897482422
    9      H       2.5201284277     2.5262190698     0.0535900349
   10      Se     -1.5053396831     0.5863181194    -1.4076504382
   11      H       0.0023244525    -1.7526557150     1.4657013837
   12      Se      1.6964610329     0.5211444265    -2.0327496518
   13      H      -0.6918864475    -1.5931262389     1.2546684076
 ----------------------------------------------------------------

   11   -4921.6896079030      3.35e-07  Convergence criterion met
 Total energy in the final basis set =    -4921.6896079030

                    Orbital Energies (a.u.)
 --------------------------------------------------------------

 Alpha MOs
 -- Occupied --
*******-453.879 -58.123 -58.074 -52.180 -52.179 -52.177 -52.132
-52.131 -52.128 -10.289 -10.219 -10.186  -7.856  -7.808  -5.801
 -5.797  -5.790  -5.753  -5.749  -5.740  -2.135  -2.134  -2.128
 -2.124  -2.124  -2.087  -2.086  -2.079  -2.076  -2.074  -0.831
 -0.753  -0.697  -0.652  -0.527  -0.470  -0.449  -0.430  -0.418
 -0.381  -0.370  -0.365  -0.339  -0.305  -0.241  -0.214

 Beta MOs
 -- Occupied --
*******-453.879 -58.123 -58.074 -52.180 -52.179 -52.177 -52.132
-52.131 -52.128 -10.289 -10.219 -10.186  -7.856  -7.808  -5.801
 -5.797  -5.790  -5.753  -5.749  -5.740  -2.135  -2.134  -2.128
 -2.124  -2.124  -2.087  -2.086  -2.079  -2.076  -2.074  -0.831
 -0.753  -0.697  -0.652  -0.527  -0.470  -0.449  -0.430  -0.418
 -0.381  -0.370  -0.365  -0.339  -0.305  -0.241  -0.214

          Ground-State Mulliken Net Atomic Charges

     Atom                 Charge (a.u.)    Spin (a.u.)
  --------------------------------------------------------
      1 C                    -0.032208       0.000000
      2 H                     0.091913       0.000000
      3 C                    -0.225485      -0.000000
      4 H                     0.150978       0.000000
      5 H                     0.130016       0.000000
      6 C                    -0.315299       0.000000
      7 H                     0.104002      -0.000000
      8 H                     0.126073      -0.000000
      9 H                     0.141702      -0.000000
     10 Se                    0.020482       0.000000
     11 H                    -0.004734      -0.000000
     12 Se                   -0.192241      -0.000000
     13 H                     0.004800       0.000000
  --------------------------------------------------------
  Sum of atomic charges =     0.000000

                    Cartesian Multipole Moments
 -----------------------------------------------------------------
    Charge (ESU x 10^10)
                -0.0000
    Dipole Moment (Debye)
         X      -1.3655      Y       0.8605      Z       1.1747
       Tot       1.9963
    Quadrupole Moments (Debye-Ang)
        XX     -59.8578     XY       0.2227     YY     -55.4601
        XZ       4.0026     YZ       2.6707     ZZ     -58.9963

 Final energy is   -4921.68960790299
 **  OPTIMIZATION CONVERGED  **
 Total job time:  66.56s(wall), 778.60s(cpu)
        *  Thank you very much for using Q-Chem.  Have a nice day.  *
