 Q-Chem 5.1, Q-Chem, Inc., Pleasanton, CA (2018)
 Q-Chem 5.1.1 for Intel X86 EM64T Linux

User input:
--------------------------------------------------------------

$comment
potential surface scanner
$end

$rem
JOBTYPE  PES_SCAN
UNRESTRICTED TRUE
SYM_IGNORE  TRUE
GEOM_OPT_MAX_CYCLES 400
SCF_MAX_CYCLES 400
METHOD   B3LYP
BASIS   6-31G**
PDB_PRINT 2
SCF_CONVERGENCE 6
THRESH 14
SCF_PRINT 1
$end
$molecule
0 1
C 0.195476 0.695165 -0.668347
H 0.384228 0.994083 -1.784178
C 0.371643 1.829432 0.347202
H -0.471928 2.516192 0.237067
H 0.275767 1.369629 1.338297
C 1.692261 2.599579 0.253731
H 1.724140 3.375484 1.024716
H 2.552004 1.940235 0.392467
H 1.793813 3.092770 -0.719476
Se -1.574584 0.463473 -1.370660
H -0.529072 -2.069947 0.963583
Se 1.584287 -0.577753 -0.843600
H -1.165827 -1.779436 0.702702
$end
$scan
stre 10 11 3.700000 3.701000 0.100000
$end
--------------------------------------------------------------

   11   -4921.6248718925      8.12e-07  Convergence criterion met
 Total energy in the final basis set =    -4921.6248718925
   11   -4921.6233098103      7.71e-07  Convergence criterion met
 Total energy in the final basis set =    -4921.6233098103
   11   -4921.6242089397      7.92e-07  Convergence criterion met
 Total energy in the final basis set =    -4921.6242089397
   11   -4921.6246970611      8.14e-07  Convergence criterion met
 Total energy in the final basis set =    -4921.6246970611
   11   -4921.6247153888      8.18e-07  Convergence criterion met
 Total energy in the final basis set =    -4921.6247153888
   11   -4921.6247199919      8.29e-07  Convergence criterion met
 Total energy in the final basis set =    -4921.6247199919
   11   -4921.6247258277      8.54e-07  Convergence criterion met
 Total energy in the final basis set =    -4921.6247258277
   11   -4921.6247286844      8.62e-07  Convergence criterion met
   11   -4921.6890930306      3.34e-07  Convergence criterion met
 Total energy in the final basis set =    -4921.6890930306
   11   -4921.6890978843      3.34e-07  Convergence criterion met
 Total energy in the final basis set =    -4921.6890978843
   11   -4921.6890998277      3.33e-07  Convergence criterion met
 Total energy in the final basis set =    -4921.6890998277
   11   -4921.6891018872      3.33e-07  Convergence criterion met
 Total energy in the final basis set =    -4921.6891018872
   11   -4921.6891035887      3.33e-07  Convergence criterion met
 Total energy in the final basis set =    -4921.6891035887
   11   -4921.6891052030      3.34e-07  Convergence criterion met
 Total energy in the final basis set =    -4921.6891052030

             Standard Nuclear Orientation (Angstroms)
    I     Atom           X                Y                Z
 ----------------------------------------------------------------
    1      C       0.3153356798     1.0705575340    -1.0213488422
    2      H      -1.1746739215    -0.2989100050    -2.4932707663
    3      C       0.4035746904     2.0692701951     0.1168491719
    4      H       0.0877938811     3.0388171132    -0.2970972212
    5      H      -0.3523131103     1.8165545837     0.8726152487
    6      C       1.7746718548     2.2173411808     0.7783061866
    7      H       1.7192674975     2.9616267155     1.5787587601
    8      H       2.1058325839     1.2692120803     1.2104410341
    9      H       2.5288675882     2.5356065152     0.0560703379
   10      Se     -1.4937291208     0.5119271492    -1.3084433688
   11      H      -0.0341400363    -1.6918543252     1.2805616537
   12      Se      1.6937935294     0.5015233583    -2.0058976088
   13      H      -0.7420731163    -1.5527660951     1.1059594141
 ----------------------------------------------------------------

   11   -4921.6891060501      3.34e-07  Convergence criterion met
 Total energy in the final basis set =    -4921.6891060501

                    Orbital Energies (a.u.)
 --------------------------------------------------------------

 Alpha MOs
 -- Occupied --
*******-453.879 -58.123 -58.074 -52.180 -52.179 -52.177 -52.132
-52.131 -52.128 -10.289 -10.219 -10.186  -7.856  -7.808  -5.801
 -5.797  -5.790  -5.753  -5.749  -5.740  -2.135  -2.134  -2.128
 -2.124  -2.124  -2.087  -2.086  -2.079  -2.076  -2.074  -0.831
 -0.753  -0.697  -0.652  -0.528  -0.470  -0.449  -0.430  -0.418
 -0.382  -0.370  -0.364  -0.339  -0.305  -0.240  -0.214

 Beta MOs
 -- Occupied --
*******-453.879 -58.123 -58.074 -52.180 -52.179 -52.177 -52.132
-52.131 -52.128 -10.289 -10.219 -10.186  -7.856  -7.808  -5.801
 -5.797  -5.790  -5.753  -5.749  -5.740  -2.135  -2.134  -2.128
 -2.124  -2.124  -2.087  -2.086  -2.079  -2.076  -2.074  -0.831
 -0.753  -0.697  -0.652  -0.528  -0.470  -0.449  -0.430  -0.418
 -0.382  -0.370  -0.364  -0.339  -0.305  -0.240  -0.214

          Ground-State Mulliken Net Atomic Charges

     Atom                 Charge (a.u.)    Spin (a.u.)
  --------------------------------------------------------
      1 C                    -0.031337       0.000000
      2 H                     0.091729       0.000000
      3 C                    -0.225388      -0.000000
      4 H                     0.151495       0.000000
      5 H                     0.128731       0.000000
      6 C                    -0.315350      -0.000000
      7 H                     0.104221       0.000000
      8 H                     0.125664       0.000000
      9 H                     0.142004       0.000000
     10 Se                    0.021802       0.000000
     11 H                    -0.005728       0.000000
     12 Se                   -0.193165      -0.000000
     13 H                     0.005322      -0.000000
  --------------------------------------------------------
  Sum of atomic charges =     0.000000

                    Cartesian Multipole Moments
 -----------------------------------------------------------------
    Charge (ESU x 10^10)
                -0.0000
    Dipole Moment (Debye)
         X      -1.3724      Y       0.8513      Z       1.1848
       Tot       2.0029
    Quadrupole Moments (Debye-Ang)
        XX     -59.8372     XY       0.3754     YY     -55.3154
        XZ       3.9021     YZ       2.7616     ZZ     -59.2072

 Final energy is   -4921.68910605006
 **  OPTIMIZATION CONVERGED  **
 Total job time:  489.23s(wall), 5710.07s(cpu)
        *  Thank you very much for using Q-Chem.  Have a nice day.  *
