 Q-Chem 5.1, Q-Chem, Inc., Pleasanton, CA (2018)
 Q-Chem 5.1.1 for Intel X86 EM64T Linux

User input:
--------------------------------------------------------------

$comment
potential surface scanner
$end

$rem
JOBTYPE  PES_SCAN
UNRESTRICTED TRUE
SYM_IGNORE  TRUE
GEOM_OPT_MAX_CYCLES 400
SCF_MAX_CYCLES 400
METHOD   B3LYP
BASIS   6-31G**
PDB_PRINT 2
SCF_CONVERGENCE 6
THRESH 14
SCF_PRINT 1
$end
$molecule
0 1
C 0.162585 0.684547 -0.669237
H 0.394818 0.976111 -1.768483
C 0.349961 1.823043 0.341374
H -0.476697 2.526832 0.209438
H 0.223799 1.375969 1.334919
C 1.687000 2.564940 0.265323
H 1.720704 3.346758 1.030280
H 2.531388 1.890612 0.425000
H 1.816645 3.047928 -0.709761
Se -1.620788 0.401520 -1.292221
H -0.421179 -1.924273 0.878408
Se 1.546736 -0.612280 -0.822484
H -1.082766 -1.652802 0.650947
$end
$scan
stre 10 11 3.500000 3.501000 0.100000
$end
--------------------------------------------------------------

   11   -4921.6251858976      4.65e-07  Convergence criterion met
 Total energy in the final basis set =    -4921.6251858976
   11   -4921.6236387867      3.92e-07  Convergence criterion met
 Total energy in the final basis set =    -4921.6236387867
   11   -4921.6244942523      4.61e-07  Convergence criterion met
 Total energy in the final basis set =    -4921.6244942523
   11   -4921.6249494377      6.28e-07  Convergence criterion met
 Total energy in the final basis set =    -4921.6249494377
   11   -4921.6249674908      6.20e-07  Convergence criterion met
 Total energy in the final basis set =    -4921.6249674908
   11   -4921.6249740331      6.19e-07  Convergence criterion met
 Total energy in the final basis set =    -4921.6249740331
   11   -4921.6249884157      6.09e-07  Convergence criterion met
 Total energy in the final basis set =    -4921.6249884157
   11   -4921.6249956318      5.93e-07  Convergence criterion met
   11   -4921.6250106997      5.41e-07  Convergence criterion met
 Total energy in the final basis set =    -4921.6250106997
   11   -4921.6250129586      5.72e-07  Convergence criterion met
 Total energy in the final basis set =    -4921.6250129586
   11   -4921.6250167122      5.59e-07  Convergence criterion met
 Total energy in the final basis set =    -4921.6250167122
   11   -4921.6250213632      6.29e-07  Convergence criterion met
 Total energy in the final basis set =    -4921.6250213632
   11   -4921.6250246903      7.56e-07  Convergence criterion met
 Total energy in the final basis set =    -4921.6250246903
   11   -4921.6250258633      7.89e-07  Convergence criterion met
 Total energy in the final basis set =    -4921.6250258633

             Standard Nuclear Orientation (Angstroms)
    I     Atom           X                Y                Z
 ----------------------------------------------------------------
    1      C       0.1898865625     0.6853527872    -0.6531818199
    2      H       0.3896560695     0.9777012564    -1.7662534912
    3      C       0.3695433162     1.8251504813     0.3553914016
    4      H      -0.4750172589     2.5107670894     0.2450329312
    5      H       0.2791077962     1.3717125812     1.3498896501
    6      C       1.6891095212     2.5954640635     0.2498461237
    7      H       1.7227900037     3.3794509510     1.0124950238
    8      H       2.5498523320     1.9382555149     0.3928759003
    9      H       1.7872307233     3.0784064250    -0.7288641347
   10      Se     -1.5816722002     0.4390338665    -1.3419715122
   11      H      -0.5067816861    -2.0156283999     0.9095265685
   12      Se      1.5738415052    -0.5989670029    -0.8121022970
   13      H      -1.1553406846    -1.7377946135     0.6608186558
 ----------------------------------------------------------------

   11   -4921.6250262530      7.95e-07  Convergence criterion met
 Total energy in the final basis set =    -4921.6250262530

                    Orbital Energies (a.u.)
 --------------------------------------------------------------

 Alpha MOs
 -- Occupied --
*******-453.909 -58.107 -58.104 -52.165 -52.164 -52.162 -52.161
-52.161 -52.158 -10.289 -10.213 -10.190  -7.840  -7.837  -5.787
 -5.783  -5.781  -5.779  -5.770  -5.768  -2.120  -2.119  -2.117
 -2.116  -2.111  -2.107  -2.106  -2.104  -2.103  -2.102  -0.842
 -0.754  -0.686  -0.644  -0.560  -0.477  -0.451  -0.437  -0.424
 -0.391  -0.372  -0.350  -0.342  -0.247  -0.244  -0.224

 Beta MOs
 -- Occupied --
*******-453.909 -58.107 -58.104 -52.165 -52.164 -52.162 -52.161
-52.161 -52.158 -10.289 -10.213 -10.190  -7.840  -7.837  -5.787
 -5.783  -5.781  -5.779  -5.770  -5.768  -2.120  -2.119  -2.117
 -2.116  -2.111  -2.107  -2.106  -2.104  -2.103  -2.102  -0.842
 -0.754  -0.686  -0.644  -0.560  -0.477  -0.451  -0.437  -0.424
 -0.391  -0.372  -0.350  -0.342  -0.247  -0.244  -0.224

          Ground-State Mulliken Net Atomic Charges

     Atom                 Charge (a.u.)    Spin (a.u.)
  --------------------------------------------------------
      1 C                    -0.213766      -0.000000
      2 H                     0.191867      -0.000000
      3 C                    -0.165914       0.000000
      4 H                     0.134139      -0.000000
      5 H                     0.136933      -0.000000
      6 C                    -0.329832      -0.000000
      7 H                     0.113619      -0.000000
      8 H                     0.141342       0.000000
      9 H                     0.107505      -0.000000
     10 Se                   -0.060008       0.000000
     11 H                    -0.000985      -0.000000
     12 Se                   -0.058159      -0.000000
     13 H                     0.003259       0.000000
  --------------------------------------------------------
  Sum of atomic charges =    -0.000000

                    Cartesian Multipole Moments
 -----------------------------------------------------------------
    Charge (ESU x 10^10)
                 0.0000
    Dipole Moment (Debye)
         X       0.4827      Y       1.6632      Z       0.7862
       Tot       1.9020
    Quadrupole Moments (Debye-Ang)
        XX     -60.1337     XY       1.8052     YY     -56.5938
        XZ      -1.0440     YZ      -2.0032     ZZ     -58.2873

 Final energy is   -4921.62502625297
 **  OPTIMIZATION CONVERGED  **
 Total job time:  120.19s(wall), 1416.90s(cpu)
        *  Thank you very much for using Q-Chem.  Have a nice day.  *
