 Q-Chem 5.1, Q-Chem, Inc., Pleasanton, CA (2018)
 Q-Chem 5.1.1 for Intel X86 EM64T Linux

User input:
--------------------------------------------------------------

$comment
potential surface scanner
$end

$rem
JOBTYPE  PES_SCAN
UNRESTRICTED TRUE
SYM_IGNORE  TRUE
GEOM_OPT_MAX_CYCLES 400
SCF_MAX_CYCLES 400
METHOD   B3LYP
BASIS   6-31G**
PDB_PRINT 2
SCF_CONVERGENCE 6
THRESH 14
SCF_PRINT 1
$end
$molecule
0 3
C 0.233532 0.871604 -1.051982
H 0.557993 1.507616 -1.879025
C 0.166292 1.649084 0.258667
H -0.673066 2.350646 0.162668
H -0.102583 0.965180 1.071171
C 1.442963 2.427093 0.596136
H 1.297957 3.014881 1.507640
H 2.292848 1.758275 0.759761
H 1.712321 3.120728 -0.207956
Se -1.380090 -0.106957 -1.574147
H -1.307663 -1.198440 1.219313
Se 1.547119 -0.631007 -1.109079
H 1.044574 -1.279802 0.120334
$end
$scan
stre 10 11 2.900000 2.901000 0.100000
$end
--------------------------------------------------------------

   12   -4921.6099610297      6.08e-07  Convergence criterion met
 Total energy in the final basis set =    -4921.6099610297
   12   -4921.6103316419      5.63e-07  Convergence criterion met
 Total energy in the final basis set =    -4921.6103316419
   12   -4921.6103643111      5.63e-07  Convergence criterion met
 Total energy in the final basis set =    -4921.6103643111
   12   -4921.6103990973      5.64e-07  Convergence criterion met
 Total energy in the final basis set =    -4921.6103990973
   12   -4921.6104008550      5.65e-07  Convergence criterion met
 Total energy in the final basis set =    -4921.6104008550
   12   -4921.6104034262      5.65e-07  Convergence criterion met
 Total energy in the final basis set =    -4921.6104034262

             Standard Nuclear Orientation (Angstroms)
    I     Atom           X                Y                Z
 ----------------------------------------------------------------
    1      C       0.2289576646     0.8665193483    -1.0416604754
    2      H       0.5411291928     1.5003692095    -1.8749520818
    3      C       0.1673989089     1.6498916958     0.2655855990
    4      H      -0.6717889892     2.3518465486     0.1706641168
    5      H      -0.0977052668     0.9689888491     1.0809972138
    6      C       1.4458242366     2.4287365810     0.5941870167
    7      H       1.3049923484     3.0189457085     1.5047798959
    8      H       2.2963716589     1.7603336105     0.7556876718
    9      H       1.7116620645     3.1202637381    -0.2129239292
   10      Se     -1.3804659167    -0.1267192076    -1.5484906477
   11      H      -1.3108985882    -1.1811593129     1.1521235853
   12      Se      1.5508014601    -0.6291610341    -1.0997688836
   13      H       1.0459182262    -1.2799547348     0.1272719183
 ----------------------------------------------------------------

   12   -4921.6104038797      5.64e-07  Convergence criterion met
 Total energy in the final basis set =    -4921.6104038797

                    Orbital Energies (a.u.)
 --------------------------------------------------------------

 Alpha MOs
 -- Occupied --
*******-453.899 -58.124 -58.093 -52.181 -52.180 -52.179 -52.152
-52.150 -52.147 -10.264 -10.207 -10.190  -7.858  -7.827  -5.802
 -5.798  -5.792  -5.773  -5.769  -5.759  -2.136  -2.135  -2.129
 -2.126  -2.125  -2.106  -2.106  -2.097  -2.095  -2.093  -0.828
 -0.753  -0.696  -0.645  -0.586  -0.472  -0.446  -0.426  -0.401
 -0.386  -0.365  -0.354  -0.325  -0.293  -0.282  -0.231  -0.219

 Beta MOs
 -- Occupied --
*******-453.897 -58.124 -58.092 -52.181 -52.180 -52.178 -52.150
-52.148 -52.146 -10.264 -10.207 -10.190  -7.857  -7.824  -5.801
 -5.798  -5.790  -5.769  -5.764  -5.756  -2.135  -2.134  -2.128
 -2.125  -2.124  -2.102  -2.101  -2.095  -2.091  -2.090  -0.825
 -0.748  -0.683  -0.632  -0.579  -0.471  -0.445  -0.422  -0.398
 -0.383  -0.362  -0.349  -0.319  -0.257  -0.223

          Ground-State Mulliken Net Atomic Charges

     Atom                 Charge (a.u.)    Spin (a.u.)
  --------------------------------------------------------
      1 C                    -0.235105      -0.036508
      2 H                     0.157625       0.003723
      3 C                    -0.171005       0.014898
      4 H                     0.122152      -0.000837
      5 H                     0.122961      -0.004334
      6 C                    -0.329606      -0.000656
      7 H                     0.114362       0.000473
      8 H                     0.127476       0.000077
      9 H                     0.107769       0.000712
     10 Se                   -0.064252       0.892215
     11 H                    -0.063558       0.901366
     12 Se                    0.025419       0.237797
     13 H                     0.085762      -0.008927
  --------------------------------------------------------
  Sum of atomic charges =    -0.000000

                    Cartesian Multipole Moments
 -----------------------------------------------------------------
    Charge (ESU x 10^10)
                 0.0000
    Dipole Moment (Debye)
         X       1.7158      Y       1.6016      Z       0.7686
       Tot       2.4697
    Quadrupole Moments (Debye-Ang)
        XX     -60.0953     XY      -0.9879     YY     -54.8635
        XZ      -0.8904     YZ      -1.5530     ZZ     -60.6336

 Final energy is   -4921.61040387967
 **  OPTIMIZATION CONVERGED  **
 Total job time:  50.94s(wall), 597.38s(cpu)
        *  Thank you very much for using Q-Chem.  Have a nice day.  *
