 Q-Chem 5.1, Q-Chem, Inc., Pleasanton, CA (2018)
 Q-Chem 5.1.1 for Intel X86 EM64T Linux

User input:
--------------------------------------------------------------

$comment
potential surface scanner
$end

$rem
JOBTYPE  PES_SCAN
UNRESTRICTED TRUE
SYM_IGNORE  TRUE
GEOM_OPT_MAX_CYCLES 400
SCF_MAX_CYCLES 400
METHOD   B3LYP
BASIS   6-31G**
PDB_PRINT 2
SCF_CONVERGENCE 6
THRESH 14
SCF_PRINT 1
$end
$molecule
0 1
Cl -1.277994 1.379087 0.208042
Cl 2.021956 0.116468 0.710340
C -0.633959 -0.179378 -0.488367
C 0.816634 -0.033410 -0.878602
C -0.944371 -1.346551 0.437530
H -1.177025 -0.295147 -1.434681
H 1.194090 -0.925491 -1.377137
H 1.036117 0.873330 -1.435238
H -0.446329 -1.216702 1.399661
H -2.020836 -1.428681 0.599884
H -0.587984 -2.278124 -0.016631
$end
$scan
stre 2 4 2.100000 2.101000 0.100000
$end
--------------------------------------------------------------

    9   -1038.3334042804      6.85e-07  Convergence criterion met
 Total energy in the final basis set =    -1038.3334042804
    9   -1038.3251872287      7.21e-07  Convergence criterion met
 Total energy in the final basis set =    -1038.3251872287
    9   -1038.3252422533      7.20e-07  Convergence criterion met
 Total energy in the final basis set =    -1038.3252422533
    9   -1038.3253326091      7.20e-07  Convergence criterion met
 Total energy in the final basis set =    -1038.3253326091
    9   -1038.3253347659      7.21e-07  Convergence criterion met
 Total energy in the final basis set =    -1038.3253347659

             Standard Nuclear Orientation (Angstroms)
    I     Atom           X                Y                Z
 ----------------------------------------------------------------
    1      Cl     -1.2821747619     1.3804491390     0.1985586130
    2      Cl      2.0587497125     0.1126341340     0.7631221349
    3      C      -0.6437430407    -0.1791786242    -0.4947493654
    4      C       0.7941080635    -0.0361825894    -0.9067684365
    5      C      -0.9434097209    -1.3457588786     0.4359232501
    6      H      -1.1954338490    -0.3003241183    -1.4370981727
    7      H       1.1954364936    -0.9296050267    -1.3808409353
    8      H       1.0388264184     0.8807422980    -1.4331728352
    9      H      -0.4336390021    -1.2117403685     1.3911416805
   10      H      -2.0180727697    -1.4282792126     0.6091703401
   11      H      -0.5903485436    -2.2773557527    -0.0204852734
 ----------------------------------------------------------------

    9   -1038.3253353121      7.21e-07  Convergence criterion met
 Total energy in the final basis set =    -1038.3253353121

                    Orbital Energies (a.u.)
 --------------------------------------------------------------

 Alpha MOs
 -- Occupied --
*******-101.527 -10.283 -10.282 -10.204  -9.458  -9.441  -7.223
 -7.213  -7.212  -7.205  -7.195  -7.195  -0.884  -0.802  -0.763
 -0.714  -0.602  -0.498  -0.493  -0.458  -0.410  -0.394  -0.387
 -0.358  -0.309  -0.306  -0.294  -0.291

 Beta MOs
 -- Occupied --
*******-101.527 -10.283 -10.282 -10.204  -9.458  -9.441  -7.223
 -7.213  -7.212  -7.205  -7.195  -7.195  -0.884  -0.802  -0.763
 -0.714  -0.602  -0.498  -0.493  -0.458  -0.410  -0.394  -0.387
 -0.358  -0.309  -0.306  -0.294  -0.291

          Ground-State Mulliken Net Atomic Charges

     Atom                 Charge (a.u.)    Spin (a.u.)
  --------------------------------------------------------
      1 Cl                   -0.059270      -0.000000
      2 Cl                   -0.200166      -0.000000
      3 C                    -0.179339       0.000000
      4 C                    -0.203255      -0.000000
      5 C                    -0.302955      -0.000000
      6 H                     0.169466      -0.000000
      7 H                     0.175269       0.000000
      8 H                     0.187375       0.000000
      9 H                     0.163811       0.000000
     10 H                     0.132137      -0.000000
     11 H                     0.116926       0.000000
  --------------------------------------------------------
  Sum of atomic charges =     0.000000

                    Cartesian Multipole Moments
 -----------------------------------------------------------------
    Charge (ESU x 10^10)
                -0.0000
    Dipole Moment (Debye)
         X      -1.3525      Y      -2.0884      Z      -2.7615
       Tot       3.7171
    Quadrupole Moments (Debye-Ang)
        XX     -49.6990     XY       1.7850     YY     -44.9902
        XZ      -2.2905     YZ      -0.1249     ZZ     -42.4576

 Final energy is   -1038.32533531213
 **  OPTIMIZATION CONVERGED  **
 Total job time:  19.92s(wall), 228.31s(cpu)
        *  Thank you very much for using Q-Chem.  Have a nice day.  *
