 Q-Chem 5.1, Q-Chem, Inc., Pleasanton, CA (2018)
 Q-Chem 5.1.1 for Intel X86 EM64T Linux

User input:
--------------------------------------------------------------

$comment
potential surface scanner
$end

$rem
JOBTYPE  PES_SCAN
UNRESTRICTED TRUE
SYM_IGNORE  TRUE
GEOM_OPT_MAX_CYCLES 400
SCF_MAX_CYCLES 400
METHOD   B3LYP
BASIS   6-31G**
PDB_PRINT 2
SCF_CONVERGENCE 6
THRESH 14
SCF_PRINT 1
$end
$molecule
0 3
Cl 0.151258 0.360289 2.755689
Cl 0.150032 1.908227 0.523170
C -0.769125 -0.755518 -0.475167
C -0.613882 0.351215 -1.277428
C 0.287254 -1.756683 -0.197445
H -1.714558 -0.875233 0.050798
H -1.453348 0.998716 -1.500167
H 0.287436 0.488138 -1.866104
H 1.163068 -1.632113 -0.838193
H 0.597454 -1.646431 0.852873
H -0.105302 -2.775208 -0.303224
$end
$scan
stre 2 4 2.400000 2.401000 0.100000
$end
--------------------------------------------------------------

   12   -1038.2338093834      6.51e-07  Convergence criterion met
 Total energy in the final basis set =    -1038.2338093834
   12   -1038.2334318265      6.07e-07  Convergence criterion met
 Total energy in the final basis set =    -1038.2334318265
   12   -1038.2341373304      5.90e-07  Convergence criterion met
 Total energy in the final basis set =    -1038.2341373304
   12   -1038.2342851049      5.81e-07  Convergence criterion met
 Total energy in the final basis set =    -1038.2342851049
   12   -1038.2343401115      5.78e-07  Convergence criterion met
 Total energy in the final basis set =    -1038.2343401115
   12   -1038.2343762105      5.76e-07  Convergence criterion met
 Total energy in the final basis set =    -1038.2343762105
   12   -1038.2343836205      5.75e-07  Convergence criterion met
 Total energy in the final basis set =    -1038.2343836205
   12   -1038.2343934968      5.74e-07  Convergence criterion met
 Total energy in the final basis set =    -1038.2343934968
   12   -1038.2343961379      5.74e-07  Convergence criterion met
 Total energy in the final basis set =    -1038.2343961379
   12   -1038.2343971778      5.74e-07  Convergence criterion met
 Total energy in the final basis set =    -1038.2343971778

             Standard Nuclear Orientation (Angstroms)
    I     Atom           X                Y                Z
 ----------------------------------------------------------------
    1      Cl      0.1008145485     0.3809652790     2.7141753472
    2      Cl      0.1609222255     1.9133051957     0.4535558744
    3      C      -0.7667793580    -0.7621652533    -0.4595374652
    4      C      -0.6002652871     0.3767300533    -1.2255903920
    5      C       0.2899817318    -1.7688476140    -0.2029376021
    6      H      -1.7128540496    -0.8904489866     0.0626652452
    7      H      -1.4484423055     1.0076554971    -1.4621918902
    8      H       0.2888791750     0.5012049150    -1.8349632452
    9      H       1.1606151072    -1.6390694314    -0.8499175625
   10      H       0.6114464761    -1.6680330669     0.8445939964
   11      H      -0.1040312640    -2.7858975881    -0.3150503059
 ----------------------------------------------------------------

   12   -1038.2343976926      5.75e-07  Convergence criterion met
 Total energy in the final basis set =    -1038.2343976926

                    Orbital Energies (a.u.)
 --------------------------------------------------------------

 Alpha MOs
 -- Occupied --
*******-101.517 -10.267 -10.263 -10.215  -9.464  -9.430  -7.229
 -7.224  -7.216  -7.200  -7.184  -7.183  -0.852  -0.807  -0.766
 -0.731  -0.610  -0.519  -0.473  -0.454  -0.414  -0.400  -0.383
 -0.372  -0.319  -0.289  -0.282  -0.276  -0.268

 Beta MOs
 -- Occupied --
*******-101.512 -10.262 -10.260 -10.215  -9.458  -9.425  -7.216
 -7.214  -7.213  -7.184  -7.180  -7.180  -0.836  -0.772  -0.733
 -0.718  -0.602  -0.515  -0.470  -0.441  -0.411  -0.398  -0.342
 -0.318  -0.306  -0.275  -0.269

          Ground-State Mulliken Net Atomic Charges

     Atom                 Charge (a.u.)    Spin (a.u.)
  --------------------------------------------------------
      1 Cl                   -0.247030       0.726171
      2 Cl                   -0.143074       0.736389
      3 C                     0.047351       0.494174
      4 C                    -0.238414       0.049131
      5 C                    -0.366266      -0.031630
      6 H                     0.149703      -0.021696
      7 H                     0.173119      -0.000856
      8 H                     0.165580      -0.001630
      9 H                     0.129255       0.001222
     10 H                     0.191351       0.031252
     11 H                     0.138426       0.017473
  --------------------------------------------------------
  Sum of atomic charges =    -0.000000

                    Cartesian Multipole Moments
 -----------------------------------------------------------------
    Charge (ESU x 10^10)
                 0.0000
    Dipole Moment (Debye)
         X      -1.2162      Y      -2.9050      Z      -4.7042
       Tot       5.6611
    Quadrupole Moments (Debye-Ang)
        XX     -43.3538     XY      -0.4146     YY     -44.7699
        XZ       0.1359     YZ      -3.5796     ZZ     -51.0293

 Final energy is   -1038.23439769261
 **  OPTIMIZATION CONVERGED  **
 Total job time:  42.21s(wall), 484.77s(cpu)
        *  Thank you very much for using Q-Chem.  Have a nice day.  *
