 Q-Chem 5.1, Q-Chem, Inc., Pleasanton, CA (2018)
 Q-Chem 5.1.1 for Intel X86 EM64T Linux

User input:
--------------------------------------------------------------

$comment
potential surface scanner
$end

$rem
JOBTYPE  PES_SCAN
UNRESTRICTED TRUE
SYM_IGNORE  TRUE
GEOM_OPT_MAX_CYCLES 400
SCF_MAX_CYCLES 400
METHOD   B3LYP
BASIS   6-31G**
PDB_PRINT 2
SCF_CONVERGENCE 6
THRESH 14
SCF_PRINT 1
$end
$molecule
0 1
Cl -1.271337 1.376813 0.223864
Cl 1.954052 0.118637 0.611689
C -0.615377 -0.179542 -0.477229
C 0.860334 -0.027482 -0.823928
C -0.945393 -1.347408 0.440549
H -1.141317 -0.286818 -1.431387
H 1.187714 -0.914977 -1.371435
H 1.028018 0.858113 -1.436294
H -0.469897 -1.223340 1.415209
H -2.024892 -1.429544 0.581904
H -0.581605 -2.279052 -0.008144
$end
$scan
stre 2 4 1.000000 1.001000 0.100000
$end
--------------------------------------------------------------

    9   -1038.3416009812      3.04e-07  Convergence criterion met
 Total energy in the final basis set =    -1038.3416009812
    9   -1038.3314265140      3.14e-07  Convergence criterion met
 Total energy in the final basis set =    -1038.3314265140
    9   -1038.2896821713      3.90e-07  Convergence criterion met
 Total energy in the final basis set =    -1038.2896821713
    9   -1038.2110098581      4.52e-07  Convergence criterion met
 Total energy in the final basis set =    -1038.2110098581
    9   -1038.0934157141      5.18e-07  Convergence criterion met
 Total energy in the final basis set =    -1038.0934157141
    9   -1037.8895790589      6.20e-07  Convergence criterion met
 Total energy in the final basis set =    -1037.8895790589
    9   -1037.5862303872      7.25e-07  Convergence criterion met
 Total energy in the final basis set =    -1037.5862303872
    9   -1037.4144612416      7.33e-07  Convergence criterion met
    9   -1037.1712858886      8.81e-07  Convergence criterion met
 Total energy in the final basis set =    -1037.1712858886
    9   -1037.1712928450      8.83e-07  Convergence criterion met
 Total energy in the final basis set =    -1037.1712928450
    9   -1037.1712958986      8.82e-07  Convergence criterion met
 Total energy in the final basis set =    -1037.1712958986
    9   -1037.1712979027      8.82e-07  Convergence criterion met
 Total energy in the final basis set =    -1037.1712979027
    9   -1037.1713001081      8.81e-07  Convergence criterion met
 Total energy in the final basis set =    -1037.1713001081
    9   -1037.1713018669      8.81e-07  Convergence criterion met
 Total energy in the final basis set =    -1037.1713018669

             Standard Nuclear Orientation (Angstroms)
    I     Atom           X                Y                Z
 ----------------------------------------------------------------
    1      Cl     -1.2763071070     1.3677643695     0.2889298974
    2      Cl      1.6757389733     0.2161806057     0.2501178293
    3      C      -0.6255549901    -0.1705469017    -0.4533744382
    4      C       1.1176710828     0.0320429468    -0.5589890587
    5      C      -0.9598067016    -1.3540828884     0.4243683515
    6      H      -1.0244437817    -0.2347257849    -1.4666425725
    7      H       1.1725713012    -0.9339119442    -1.2278932121
    8      H       1.0144092853     0.7316358312    -1.4812859677
    9      H      -0.4401935700    -1.2846247840     1.3890981048
   10      H      -2.0300114903    -1.4267124614     0.6357315172
   11      H      -0.6437730018    -2.2776189888    -0.0752624510
 ----------------------------------------------------------------

    9   -1037.1713025997      8.82e-07  Convergence criterion met
 Total energy in the final basis set =    -1037.1713025997

                    Orbital Energies (a.u.)
 --------------------------------------------------------------

 Alpha MOs
 -- Occupied --
*******-101.523 -10.292 -10.235 -10.190  -9.546  -9.440  -7.314
 -7.286  -7.285  -7.203  -7.194  -7.194  -1.139  -0.842  -0.740
 -0.642  -0.617  -0.616  -0.561  -0.504  -0.447  -0.415  -0.392
 -0.366  -0.306  -0.289  -0.232  -0.217

 Beta MOs
 -- Occupied --
*******-101.523 -10.292 -10.235 -10.190  -9.546  -9.440  -7.314
 -7.286  -7.285  -7.203  -7.194  -7.194  -1.139  -0.842  -0.740
 -0.642  -0.617  -0.616  -0.561  -0.504  -0.447  -0.415  -0.392
 -0.366  -0.306  -0.289  -0.232  -0.217

          Ground-State Mulliken Net Atomic Charges

     Atom                 Charge (a.u.)    Spin (a.u.)
  --------------------------------------------------------
      1 Cl                   -0.125120       0.000000
      2 Cl                    0.447591       0.000000
      3 C                    -0.236918       0.000000
      4 C                    -0.366579      -0.000000
      5 C                    -0.315204       0.000000
      6 H                     0.140760      -0.000000
      7 H                     0.030207      -0.000000
      8 H                     0.055534      -0.000000
      9 H                     0.118792      -0.000000
     10 H                     0.135432      -0.000000
     11 H                     0.115506      -0.000000
  --------------------------------------------------------
  Sum of atomic charges =     0.000000

                    Cartesian Multipole Moments
 -----------------------------------------------------------------
    Charge (ESU x 10^10)
                -0.0000
    Dipole Moment (Debye)
         X       1.4995      Y      -1.8365      Z      -0.5560
       Tot       2.4352
    Quadrupole Moments (Debye-Ang)
        XX     -43.7811     XY       2.4861     YY     -45.4442
        XZ       0.2234     YZ      -0.5049     ZZ     -44.2869

 Final energy is   -1037.17130259967
 **  OPTIMIZATION CONVERGED  **
 Total job time:  124.64s(wall), 1422.91s(cpu)
        *  Thank you very much for using Q-Chem.  Have a nice day.  *
