 Q-Chem 5.1, Q-Chem, Inc., Pleasanton, CA (2018)
 Q-Chem 5.1.1 for Intel X86 EM64T Linux

User input:
--------------------------------------------------------------

$comment
potential surface scanner
$end

$rem
JOBTYPE  PES_SCAN
UNRESTRICTED TRUE
SYM_IGNORE  TRUE
GEOM_OPT_MAX_CYCLES 400
SCF_MAX_CYCLES 400
METHOD   B3LYP
BASIS   6-31G**
PDB_PRINT 2
SCF_CONVERGENCE 6
THRESH 14
SCF_PRINT 1
$end
$molecule
0 1
Cl -1.310986 1.384962 0.153739
Cl 2.172429 0.059723 0.927043
C -0.675184 -0.177907 -0.520221
C 0.727922 -0.037967 -0.987077
C -0.935351 -1.338074 0.433263
H -1.250033 -0.327086 -1.449772
H 1.186386 -0.929470 -1.404558
H 1.043503 0.908077 -1.410485
H -0.390252 -1.178590 1.364515
H -2.003208 -1.427387 0.640102
H -0.584928 -2.270882 -0.021746
$end
$scan
stre 2 4 2.500000 2.501000 0.100000
$end
--------------------------------------------------------------

    9   -1038.2973806073      9.63e-07  Convergence criterion met
 Total energy in the final basis set =    -1038.2973806073
   10   -1038.2882974217      2.43e-07  Convergence criterion met
 Total energy in the final basis set =    -1038.2882974217
   10   -1038.2881157574      2.45e-07  Convergence criterion met
 Total energy in the final basis set =    -1038.2881157574
   10   -1038.2882705007      2.52e-07  Convergence criterion met
 Total energy in the final basis set =    -1038.2882705007
   10   -1038.2882808632      2.53e-07  Convergence criterion met
 Total energy in the final basis set =    -1038.2882808632
   10   -1038.2882843295      2.53e-07  Convergence criterion met
 Total energy in the final basis set =    -1038.2882843295

             Standard Nuclear Orientation (Angstroms)
    I     Atom           X                Y                Z
 ----------------------------------------------------------------
    1      Cl     -1.3273243796     1.3862402220     0.1327254495
    2      Cl      2.2095629383     0.0263423162     0.9842049504
    3      C      -0.6863282233    -0.1773316253    -0.5308679839
    4      C       0.7063058077    -0.0356610347    -1.0123851084
    5      C      -0.9304446272    -1.3332786960     0.4335995742
    6      H      -1.2675332289    -0.3407965944    -1.4556766570
    7      H       1.1790662673    -0.9245412151    -1.4187233804
    8      H       1.0445005698     0.9186929473    -1.3976128072
    9      H      -0.3735109951    -1.1607587376     1.3554733703
   10      H      -1.9955491706    -1.4265075073     0.6520033308
   11      H      -0.5784469585    -2.2670010750    -0.0179377382
 ----------------------------------------------------------------

   10   -1038.2882850127      2.53e-07  Convergence criterion met
 Total energy in the final basis set =    -1038.2882850127

                    Orbital Energies (a.u.)
 --------------------------------------------------------------

 Alpha MOs
 -- Occupied --
*******-101.506 -10.305 -10.296 -10.211  -9.469  -9.418  -7.233
 -7.223  -7.223  -7.182  -7.173  -7.173  -0.896  -0.793  -0.748
 -0.726  -0.616  -0.511  -0.505  -0.470  -0.419  -0.403  -0.394
 -0.321  -0.319  -0.307  -0.274  -0.272

 Beta MOs
 -- Occupied --
*******-101.506 -10.305 -10.296 -10.211  -9.469  -9.418  -7.233
 -7.223  -7.223  -7.182  -7.173  -7.173  -0.896  -0.793  -0.748
 -0.726  -0.616  -0.511  -0.505  -0.470  -0.419  -0.403  -0.394
 -0.321  -0.319  -0.307  -0.274  -0.272

          Ground-State Mulliken Net Atomic Charges

     Atom                 Charge (a.u.)    Spin (a.u.)
  --------------------------------------------------------
      1 Cl                   -0.037198      -0.000000
      2 Cl                   -0.350174      -0.000000
      3 C                    -0.201588       0.000000
      4 C                    -0.114650      -0.000000
      5 C                    -0.303047      -0.000000
      6 H                     0.183133      -0.000000
      7 H                     0.188014      -0.000000
      8 H                     0.200483       0.000000
      9 H                     0.180329       0.000000
     10 H                     0.133874       0.000000
     11 H                     0.120825       0.000000
  --------------------------------------------------------
  Sum of atomic charges =     0.000000

                    Cartesian Multipole Moments
 -----------------------------------------------------------------
    Charge (ESU x 10^10)
                 0.0000
    Dipole Moment (Debye)
         X      -2.5553      Y      -1.9879      Z      -3.7973
       Tot       4.9901
    Quadrupole Moments (Debye-Ang)
        XX     -52.2483     XY       1.9426     YY     -44.5557
        XZ      -4.1767     YZ       0.0170     ZZ     -42.6235

 Final energy is   -1038.28828501275
 **  OPTIMIZATION CONVERGED  **
 Total job time:  25.10s(wall), 283.42s(cpu)
        *  Thank you very much for using Q-Chem.  Have a nice day.  *
