 Q-Chem 5.1, Q-Chem, Inc., Pleasanton, CA (2018)
 Q-Chem 5.1.1 for Intel X86 EM64T Linux

User input:
--------------------------------------------------------------

$comment
potential surface scanner
$end

$rem
JOBTYPE  PES_SCAN
UNRESTRICTED TRUE
SYM_IGNORE  TRUE
GEOM_OPT_MAX_CYCLES 400
SCF_MAX_CYCLES 400
METHOD   B3LYP
BASIS   6-31G**
PDB_PRINT 2
SCF_CONVERGENCE 6
THRESH 14
SCF_PRINT 1
$end
$molecule
0 1
Cl -1.271337 1.376813 0.223864
Cl 1.954052 0.118637 0.611689
C -0.615377 -0.179542 -0.477229
C 0.860334 -0.027482 -0.823928
C -0.945393 -1.347408 0.440549
H -1.141317 -0.286818 -1.431387
H 1.187714 -0.914977 -1.371435
H 1.028018 0.858113 -1.436294
H -0.469897 -1.223340 1.415209
H -2.024892 -1.429544 0.581904
H -0.581605 -2.279052 -0.008144
$end
$scan
stre 2 4 1.700000 1.701000 0.100000
$end
--------------------------------------------------------------

    9   -1038.3416009812      3.04e-07  Convergence criterion met
 Total energy in the final basis set =    -1038.3416009812
    9   -1038.3365826272      2.72e-07  Convergence criterion met
 Total energy in the final basis set =    -1038.3365826272
    9   -1038.3369285977      3.18e-07  Convergence criterion met
 Total energy in the final basis set =    -1038.3369285977
    9   -1038.3369946126      3.36e-07  Convergence criterion met
 Total energy in the final basis set =    -1038.3369946126
    9   -1038.3369964748      3.37e-07  Convergence criterion met
 Total energy in the final basis set =    -1038.3369964748

             Standard Nuclear Orientation (Angstroms)
    I     Atom           X                Y                Z
 ----------------------------------------------------------------
    1      Cl     -1.2685729596     1.3757892348     0.2317835530
    2      Cl      1.9161335028     0.1166541712     0.5536848306
    3      C      -0.6046826674    -0.1793086925    -0.4707976865
    4      C       0.8863410101    -0.0235609431    -0.7916283284
    5      C      -0.9454951668    -1.3474008523     0.4424920744
    6      H      -1.1199926117    -0.2829141623    -1.4298717930
    7      H       1.1812775947    -0.9074952050    -1.3688719053
    8      H       1.0220246446     0.8488323094    -1.4352504353
    9      H      -0.4840494697    -1.2256360433     1.4244830022
   10      H      -2.0265798709    -1.4306964350     0.5711057722
   11      H      -0.5761040062    -2.2788633820    -0.0023310839
 ----------------------------------------------------------------

    9   -1038.3369968058      3.37e-07  Convergence criterion met
 Total energy in the final basis set =    -1038.3369968058

                    Orbital Energies (a.u.)
 --------------------------------------------------------------

 Alpha MOs
 -- Occupied --
*******-101.533 -10.268 -10.256 -10.198  -9.462  -9.449  -7.225
 -7.215  -7.215  -7.213  -7.204  -7.204  -0.901  -0.846  -0.755
 -0.696  -0.589  -0.497  -0.487  -0.454  -0.428  -0.397  -0.386
 -0.373  -0.310  -0.303  -0.296  -0.295

 Beta MOs
 -- Occupied --
*******-101.533 -10.268 -10.256 -10.198  -9.462  -9.449  -7.225
 -7.215  -7.215  -7.213  -7.204  -7.204  -0.901  -0.846  -0.755
 -0.696  -0.589  -0.497  -0.487  -0.454  -0.428  -0.397  -0.386
 -0.373  -0.310  -0.303  -0.296  -0.295

          Ground-State Mulliken Net Atomic Charges

     Atom                 Charge (a.u.)    Spin (a.u.)
  --------------------------------------------------------
      1 Cl                   -0.085020      -0.000000
      2 Cl                   -0.024614       0.000000
      3 C                    -0.175661       0.000000
      4 C                    -0.283298      -0.000000
      5 C                    -0.304513      -0.000000
      6 H                     0.156839       0.000000
      7 H                     0.153243       0.000000
      8 H                     0.167190      -0.000000
      9 H                     0.149509       0.000000
     10 H                     0.131686      -0.000000
     11 H                     0.114639       0.000000
  --------------------------------------------------------
  Sum of atomic charges =    -0.000000

                    Cartesian Multipole Moments
 -----------------------------------------------------------------
    Charge (ESU x 10^10)
                -0.0000
    Dipole Moment (Debye)
         X      -0.2809      Y      -2.0628      Z      -1.9080
       Tot       2.8239
    Quadrupole Moments (Debye-Ang)
        XX     -47.6372     XY       1.9956     YY     -45.3014
        XZ      -0.9893     YZ      -0.1663     ZZ     -42.6794

 Final energy is   -1038.33699680579
 **  OPTIMIZATION CONVERGED  **
 Total job time:  20.18s(wall), 230.58s(cpu)
        *  Thank you very much for using Q-Chem.  Have a nice day.  *
