 Q-Chem 5.1, Q-Chem, Inc., Pleasanton, CA (2018)
 Q-Chem 5.1.1 for Intel X86 EM64T Linux

User input:
--------------------------------------------------------------

$comment
potential surface scanner
$end

$rem
JOBTYPE  PES_SCAN
UNRESTRICTED TRUE
SYM_IGNORE  TRUE
GEOM_OPT_MAX_CYCLES 400
SCF_MAX_CYCLES 400
METHOD   B3LYP
BASIS   6-31G**
PDB_PRINT 2
SCF_CONVERGENCE 6
THRESH 14
SCF_PRINT 1
$end
$molecule
0 3
Cl 0.168301 0.328245 2.800723
Cl 0.136775 1.891899 0.598259
C -0.763929 -0.738717 -0.481358
C -0.625229 0.326457 -1.332736
C 0.289207 -1.740646 -0.192740
H -1.699479 -0.836998 0.066296
H -1.457368 0.987650 -1.543901
H 0.278175 0.459710 -1.919421
H 1.163781 -1.628127 -0.837265
H 0.600426 -1.626316 0.856453
H -0.110374 -2.757759 -0.289507
$end
$scan
stre 2 4 2.500000 2.501000 0.100000
$end
--------------------------------------------------------------

   12   -1038.2330168842      7.13e-07  Convergence criterion met
 Total energy in the final basis set =    -1038.2330168842
   12   -1038.2333970273      6.35e-07  Convergence criterion met
 Total energy in the final basis set =    -1038.2333970273
   12   -1038.2335667315      6.39e-07  Convergence criterion met
 Total energy in the final basis set =    -1038.2335667315
   12   -1038.2336873045      6.46e-07  Convergence criterion met
 Total energy in the final basis set =    -1038.2336873045
   12   -1038.2337447910      6.51e-07  Convergence criterion met
 Total energy in the final basis set =    -1038.2337447910
   12   -1038.2337816053      6.53e-07  Convergence criterion met
 Total energy in the final basis set =    -1038.2337816053
   12   -1038.2337955745      6.53e-07  Convergence criterion met
 Total energy in the final basis set =    -1038.2337955745
   12   -1038.2338044651      6.52e-07  Convergence criterion met
 Total energy in the final basis set =    -1038.2338044651
   12   -1038.2338077719      6.51e-07  Convergence criterion met
 Total energy in the final basis set =    -1038.2338077719
   12   -1038.2338088742      6.51e-07  Convergence criterion met
 Total energy in the final basis set =    -1038.2338088742

             Standard Nuclear Orientation (Angstroms)
    I     Atom           X                Y                Z
 ----------------------------------------------------------------
    1      Cl      0.1512582683     0.3602885404     2.7556894618
    2      Cl      0.1500316408     1.9082266073     0.5231701922
    3      C      -0.7691250782    -0.7555177327    -0.4751667155
    4      C      -0.6138818804     0.3512152850    -1.2774276045
    5      C       0.2872536121    -1.7566831710    -0.1974453877
    6      H      -1.7145581457    -0.8752333994     0.0507978473
    7      H      -1.4533483492     0.9987155875    -1.5001670583
    8      H       0.2874357557     0.4881380351    -1.8661038044
    9      H       1.1630677868    -1.6321125708    -0.8381927133
   10      H       0.5974539060    -1.6464313648     0.8528728863
   11      H      -0.1053015161    -2.7752078165    -0.3032241038
 ----------------------------------------------------------------

   12   -1038.2338093885      6.51e-07  Convergence criterion met
 Total energy in the final basis set =    -1038.2338093885

                    Orbital Energies (a.u.)
 --------------------------------------------------------------

 Alpha MOs
 -- Occupied --
*******-101.517 -10.268 -10.260 -10.215  -9.465  -9.430  -7.230
 -7.225  -7.217  -7.200  -7.184  -7.183  -0.851  -0.808  -0.766
 -0.732  -0.610  -0.519  -0.473  -0.454  -0.414  -0.400  -0.380
 -0.372  -0.320  -0.292  -0.282  -0.277  -0.271

 Beta MOs
 -- Occupied --
*******-101.512 -10.262 -10.258 -10.215  -9.459  -9.425  -7.217
 -7.215  -7.214  -7.184  -7.180  -7.180  -0.836  -0.770  -0.733
 -0.719  -0.602  -0.515  -0.470  -0.442  -0.411  -0.398  -0.334
 -0.318  -0.306  -0.274  -0.269

          Ground-State Mulliken Net Atomic Charges

     Atom                 Charge (a.u.)    Spin (a.u.)
  --------------------------------------------------------
      1 Cl                   -0.246784       0.727532
      2 Cl                   -0.146502       0.775807
      3 C                     0.046299       0.418950
      4 C                    -0.226215       0.084113
      5 C                    -0.367098      -0.025277
      6 H                     0.149866      -0.018437
      7 H                     0.168612      -0.002570
      8 H                     0.160946      -0.003335
      9 H                     0.129838       0.000771
     10 H                     0.191976       0.026246
     11 H                     0.139062       0.016199
  --------------------------------------------------------
  Sum of atomic charges =    -0.000000

                    Cartesian Multipole Moments
 -----------------------------------------------------------------
    Charge (ESU x 10^10)
                 0.0000
    Dipole Moment (Debye)
         X      -1.2536      Y      -2.8690      Z      -4.7665
       Tot       5.7028
    Quadrupole Moments (Debye-Ang)
        XX     -43.3735     XY      -0.3939     YY     -44.6064
        XZ       0.0012     YZ      -3.5450     ZZ     -51.2927

 Final energy is   -1038.23380938849
 **  OPTIMIZATION CONVERGED  **
 Total job time:  40.89s(wall), 477.05s(cpu)
        *  Thank you very much for using Q-Chem.  Have a nice day.  *
