 Q-Chem 5.1, Q-Chem, Inc., Pleasanton, CA (2018)
 Q-Chem 5.1.1 for Intel X86 EM64T Linux

User input:
--------------------------------------------------------------

$comment
potential surface scanner
$end

$rem
JOBTYPE  PES_SCAN
UNRESTRICTED TRUE
SYM_IGNORE  TRUE
GEOM_OPT_MAX_CYCLES 400
SCF_MAX_CYCLES 400
METHOD   B3LYP
BASIS   6-31G**
PDB_PRINT 2
SCF_CONVERGENCE 6
THRESH 14
SCF_PRINT 1
$end
$molecule
0 3
Cl -1.606742 1.372290 -0.153950
Cl 2.387786 -0.804802 2.031337
C -0.808617 -0.152988 -0.694794
C 0.456778 0.081719 -1.357658
C -0.730097 -1.201104 0.458984
H -1.481094 -0.602352 -1.449669
H 0.960916 -0.755007 -1.833703
H 0.912561 1.064150 -1.417984
H -0.063608 -0.819673 1.238950
H -1.740473 -1.384381 0.829453
H -0.307110 -2.132451 0.073833
$end
$scan
stre 2 4 5.400000 5.401000 0.100000
$end
--------------------------------------------------------------

   22   -1038.2100755179      1.79e-07  Convergence criterion met
 Total energy in the final basis set =    -1038.2100755179
   22   -1038.2110041033      1.47e-07  Convergence criterion met
 Total energy in the final basis set =    -1038.2110041033
   21   -1038.2116436391      7.82e-07  Convergence criterion met
 Total energy in the final basis set =    -1038.2116436391
   22   -1038.2115499006      3.33e-07  Convergence criterion met
 Total energy in the final basis set =    -1038.2115499006
   22   -1038.2108677086      3.65e-07  Convergence criterion met
 Total energy in the final basis set =    -1038.2108677086
   23   -1038.2100229751      5.03e-08  Convergence criterion met
 Total energy in the final basis set =    -1038.2100229751
   23   -1038.2093885517      2.98e-07  Convergence criterion met
 Total energy in the final basis set =    -1038.2093885517
   24   -1038.2092161384      8.23e-07  Convergence criterion met
   13   -1038.2275638828      4.88e-07  Convergence criterion met
 Total energy in the final basis set =    -1038.2275638828
   13   -1038.2275659147      4.83e-07  Convergence criterion met
 Total energy in the final basis set =    -1038.2275659147
   13   -1038.2275673686      4.78e-07  Convergence criterion met
 Total energy in the final basis set =    -1038.2275673686
   13   -1038.2275689249      4.70e-07  Convergence criterion met
 Total energy in the final basis set =    -1038.2275689249
   13   -1038.2275704357      4.59e-07  Convergence criterion met
 Total energy in the final basis set =    -1038.2275704357
   13   -1038.2275713075      4.52e-07  Convergence criterion met
 Total energy in the final basis set =    -1038.2275713075

             Standard Nuclear Orientation (Angstroms)
    I     Atom           X                Y                Z
 ----------------------------------------------------------------
    1      Cl      0.2924686183     1.1951876427     0.6361709569
    2      Cl     -0.3649761572     0.6092428961     3.4891971985
    3      C      -0.4939625120    -0.2131751372    -0.4992479655
    4      C      -0.0102645952    -0.0170105754    -1.8626236285
    5      C      -0.1436742727    -1.5384546957     0.1496021975
    6      H      -1.5465129024     0.0465199611    -0.3877302435
    7      H      -0.4587762195     0.7276726993    -2.5096993688
    8      H       0.8934627482    -0.5164004254    -2.1954356188
    9      H       0.9314032329    -1.7291675985     0.0952421665
   10      H      -0.4534255652    -1.5593451046     1.1957228428
   11      H      -0.6654423752    -2.3396686624    -0.3863995371
 ----------------------------------------------------------------

   13   -1038.2275699557      4.52e-07  Convergence criterion met
 Total energy in the final basis set =    -1038.2275699557

                    Orbital Energies (a.u.)
 --------------------------------------------------------------

 Alpha MOs
 -- Occupied --
*******-101.543 -10.279 -10.239 -10.206  -9.468  -9.456  -7.232
 -7.228  -7.225  -7.221  -7.208  -7.208  -0.868  -0.795  -0.782
 -0.718  -0.606  -0.503  -0.464  -0.456  -0.405  -0.395  -0.390
 -0.361  -0.319  -0.310  -0.306  -0.301  -0.252

 Beta MOs
 -- Occupied --
*******-101.537 -10.280 -10.226 -10.206  -9.465  -9.450  -7.226
 -7.220  -7.219  -7.209  -7.205  -7.205  -0.856  -0.770  -0.746
 -0.700  -0.596  -0.497  -0.457  -0.448  -0.397  -0.392  -0.373
 -0.317  -0.311  -0.292  -0.289

          Ground-State Mulliken Net Atomic Charges

     Atom                 Charge (a.u.)    Spin (a.u.)
  --------------------------------------------------------
      1 Cl                   -0.068530       0.326718
      2 Cl                   -0.151548       0.838533
      3 C                    -0.174181      -0.069198
      4 C                    -0.156297       0.974053
      5 C                    -0.313049       0.006935
      6 H                     0.175167       0.008096
      7 H                     0.136293      -0.042343
      8 H                     0.133882      -0.042133
      9 H                     0.134467      -0.001060
     10 H                     0.155850       0.002044
     11 H                     0.127945      -0.001646
  --------------------------------------------------------
  Sum of atomic charges =    -0.000000

                    Cartesian Multipole Moments
 -----------------------------------------------------------------
    Charge (ESU x 10^10)
                 0.0000
    Dipole Moment (Debye)
         X      -0.5614      Y      -2.0046      Z      -4.0687
       Tot       4.5704
    Quadrupole Moments (Debye-Ang)
        XX     -44.2533     XY      -0.3294     YY     -45.4076
        XZ       0.3779     YZ      -2.7639     ZZ     -50.0687

 Final energy is   -1038.22756995568
 **  OPTIMIZATION CONVERGED  **
 Total job time:  541.46s(wall), 6269.65s(cpu)
        *  Thank you very much for using Q-Chem.  Have a nice day.  *
