 Q-Chem 5.1, Q-Chem, Inc., Pleasanton, CA (2018)
 Q-Chem 5.1.1 for Intel X86 EM64T Linux

User input:
--------------------------------------------------------------

$comment
potential surface scanner
$end

$rem
JOBTYPE  PES_SCAN
UNRESTRICTED TRUE
SYM_IGNORE  TRUE
GEOM_OPT_MAX_CYCLES 400
SCF_MAX_CYCLES 400
METHOD   B3LYP
BASIS   6-31G**
PDB_PRINT 2
SCF_CONVERGENCE 6
THRESH 14
SCF_PRINT 1
$end
$molecule
0 3
Cl -0.201729 0.383599 1.741674
Cl 0.656773 2.479034 0.228924
C -0.706416 -0.714694 -0.064735
C -0.710228 0.278536 -1.074578
C 0.319547 -1.816576 -0.106552
H -1.684061 -0.997776 0.318514
H -1.556283 0.942080 -1.202425
H 0.147623 0.418444 -1.720647
H 1.318589 -1.417703 -0.297086
H 0.335592 -2.385681 0.824126
H 0.060882 -2.503864 -0.922411
$end
$scan
stre 2 4 2.800000 2.801000 0.100000
$end
--------------------------------------------------------------

   11   -1038.2289659953      9.93e-07  Convergence criterion met
 Total energy in the final basis set =    -1038.2289659953
   11   -1038.2280802859      8.16e-07  Convergence criterion met
 Total energy in the final basis set =    -1038.2280802859
   11   -1038.2281180119      8.17e-07  Convergence criterion met
 Total energy in the final basis set =    -1038.2281180119
   11   -1038.2281540750      8.06e-07  Convergence criterion met
 Total energy in the final basis set =    -1038.2281540750
   11   -1038.2281693221      8.02e-07  Convergence criterion met
 Total energy in the final basis set =    -1038.2281693221
   11   -1038.2282038674      8.32e-07  Convergence criterion met
 Total energy in the final basis set =    -1038.2282038674
   11   -1038.2282301522      9.18e-07  Convergence criterion met
 Total energy in the final basis set =    -1038.2282301522
   12   -1038.2282488638      5.18e-07  Convergence criterion met
 Total energy in the final basis set =    -1038.2282488638
   12   -1038.2282579619      5.52e-07  Convergence criterion met
 Total energy in the final basis set =    -1038.2282579619
   12   -1038.2282635943      5.64e-07  Convergence criterion met
 Total energy in the final basis set =    -1038.2282635943
   12   -1038.2282672041      5.71e-07  Convergence criterion met
 Total energy in the final basis set =    -1038.2282672041
   12   -1038.2282691419      5.77e-07  Convergence criterion met
 Total energy in the final basis set =    -1038.2282691419

             Standard Nuclear Orientation (Angstroms)
    I     Atom           X                Y                Z
 ----------------------------------------------------------------
    1      Cl     -0.1586871702     0.3998604378     1.8011558602
    2      Cl      0.5498687550     2.4706723903     0.2019577641
    3      C      -0.7043032663    -0.7237958831    -0.0940256964
    4      C      -0.6797484273     0.2956515144    -1.0618961289
    5      C       0.3126226222    -1.8296917745    -0.1166821336
    6      H      -1.6775947911    -0.9720819568     0.3206505501
    7      H      -1.5221816823     0.9618548849    -1.1955114592
    8      H       0.1719915739     0.4203342399    -1.7191131481
    9      H       1.3149414282    -1.4428020690    -0.3142220100
   10      H       0.3236934796    -2.3839839976     0.8228644771
   11      H       0.0496864784    -2.5306187862    -0.9203740753
 ----------------------------------------------------------------

   12   -1038.2282697715      5.82e-07  Convergence criterion met
 Total energy in the final basis set =    -1038.2282697715

                    Orbital Energies (a.u.)
 --------------------------------------------------------------

 Alpha MOs
 -- Occupied --
*******-101.523 -10.278 -10.251 -10.215  -9.461  -9.436  -7.223
 -7.221  -7.213  -7.205  -7.191  -7.189  -0.855  -0.800  -0.772
 -0.728  -0.609  -0.512  -0.468  -0.459  -0.409  -0.400  -0.387
 -0.367  -0.319  -0.301  -0.286  -0.277  -0.255

 Beta MOs
 -- Occupied --
*******-101.517 -10.276 -10.242 -10.215  -9.456  -9.431  -7.214
 -7.212  -7.210  -7.189  -7.186  -7.186  -0.840  -0.769  -0.734
 -0.715  -0.601  -0.507  -0.462  -0.451  -0.406  -0.397  -0.347
 -0.320  -0.308  -0.278  -0.273

          Ground-State Mulliken Net Atomic Charges

     Atom                 Charge (a.u.)    Spin (a.u.)
  --------------------------------------------------------
      1 Cl                   -0.136512       0.642114
      2 Cl                   -0.229787       0.719326
      3 C                    -0.099175       0.047361
      4 C                    -0.130900       0.642378
      5 C                    -0.323125      -0.000843
      6 H                     0.170632       0.000452
      7 H                     0.160872      -0.027963
      8 H                     0.158111      -0.026727
      9 H                     0.149489      -0.000583
     10 H                     0.144652       0.003948
     11 H                     0.135742       0.000538
  --------------------------------------------------------
  Sum of atomic charges =    -0.000000

                    Cartesian Multipole Moments
 -----------------------------------------------------------------
    Charge (ESU x 10^10)
                -0.0000
    Dipole Moment (Debye)
         X      -1.5427      Y      -4.0717      Z      -2.7384
       Tot       5.1437
    Quadrupole Moments (Debye-Ang)
        XX     -43.5446     XY      -1.3733     YY     -48.7876
        XZ       0.1262     YZ      -2.6604     ZZ     -45.8259

 Final energy is   -1038.22826977149
 **  OPTIMIZATION CONVERGED  **
 Total job time:  48.57s(wall), 558.57s(cpu)
        *  Thank you very much for using Q-Chem.  Have a nice day.  *
