 Q-Chem 5.1, Q-Chem, Inc., Pleasanton, CA (2018)
 Q-Chem 5.1.1 for Intel X86 EM64T Linux

User input:
--------------------------------------------------------------

$comment
potential surface scanner
$end

$rem
JOBTYPE  PES_SCAN
UNRESTRICTED TRUE
SYM_IGNORE  TRUE
GEOM_OPT_MAX_CYCLES 400
SCF_MAX_CYCLES 400
METHOD   B3LYP
BASIS   6-31G**
PDB_PRINT 2
SCF_CONVERGENCE 6
THRESH 14
SCF_PRINT 1
$end
$molecule
0 1
Cl -1.271337 1.376813 0.223864
Cl 1.954052 0.118637 0.611689
C -0.615377 -0.179542 -0.477229
C 0.860334 -0.027482 -0.823928
C -0.945393 -1.347408 0.440549
H -1.141317 -0.286818 -1.431387
H 1.187714 -0.914977 -1.371435
H 1.028018 0.858113 -1.436294
H -0.469897 -1.223340 1.415209
H -2.024892 -1.429544 0.581904
H -0.581605 -2.279052 -0.008144
$end
$scan
stre 2 4 1.100000 1.101000 0.100000
$end
--------------------------------------------------------------

    9   -1038.3416009812      3.04e-07  Convergence criterion met
 Total energy in the final basis set =    -1038.3416009812
    9   -1038.3314265140      3.14e-07  Convergence criterion met
 Total energy in the final basis set =    -1038.3314265140
    9   -1038.2896821713      3.90e-07  Convergence criterion met
 Total energy in the final basis set =    -1038.2896821713
    9   -1038.2110098581      4.52e-07  Convergence criterion met
 Total energy in the final basis set =    -1038.2110098581
    9   -1038.0934157141      5.18e-07  Convergence criterion met
 Total energy in the final basis set =    -1038.0934157141
    9   -1037.8895790589      6.20e-07  Convergence criterion met
 Total energy in the final basis set =    -1037.8895790589
    9   -1037.7091153396      6.98e-07  Convergence criterion met
 Total energy in the final basis set =    -1037.7091153396
    9   -1037.6553811010      7.16e-07  Convergence criterion met
    9   -1037.6471184486      7.67e-07  Convergence criterion met
 Total energy in the final basis set =    -1037.6471184486
    9   -1037.6471232876      7.67e-07  Convergence criterion met
 Total energy in the final basis set =    -1037.6471232876
    9   -1037.6471263769      7.66e-07  Convergence criterion met
 Total energy in the final basis set =    -1037.6471263769
    9   -1037.6471282877      7.66e-07  Convergence criterion met
 Total energy in the final basis set =    -1037.6471282877
    9   -1037.6471297801      7.65e-07  Convergence criterion met
 Total energy in the final basis set =    -1037.6471297801
    9   -1037.6471309127      7.64e-07  Convergence criterion met
 Total energy in the final basis set =    -1037.6471309127

             Standard Nuclear Orientation (Angstroms)
    I     Atom           X                Y                Z
 ----------------------------------------------------------------
    1      Cl     -1.2686904921     1.3697391796     0.2828011867
    2      Cl      1.7108422666     0.1713200767     0.2765105089
    3      C      -0.5931015769    -0.1705043089    -0.4475690379
    4      C       1.0613625425     0.0127463540    -0.5970057221
    5      C      -0.9501728469    -1.3505132768     0.4347694709
    6      H      -1.0160591310    -0.2438414158    -1.4503206344
    7      H       1.1466109463    -0.9171517231    -1.2812010254
    8      H       0.9997109717     0.7612968184    -1.4631143521
    9      H      -0.4851342275    -1.2598895326     1.4225697156
   10      H      -2.0296524422    -1.4318102280     0.5819632096
   11      H      -0.5954160106    -2.2759919435    -0.0346053198
 ----------------------------------------------------------------

    9   -1037.6471314902      7.64e-07  Convergence criterion met
 Total energy in the final basis set =    -1037.6471314902

                    Orbital Energies (a.u.)
 --------------------------------------------------------------

 Alpha MOs
 -- Occupied --
*******-101.524 -10.256 -10.245 -10.192  -9.513  -9.441  -7.277
 -7.259  -7.259  -7.204  -7.195  -7.195  -1.113  -0.845  -0.744
 -0.655  -0.592  -0.576  -0.554  -0.502  -0.447  -0.414  -0.393
 -0.368  -0.306  -0.291  -0.245  -0.238

 Beta MOs
 -- Occupied --
*******-101.524 -10.256 -10.245 -10.192  -9.513  -9.441  -7.277
 -7.259  -7.259  -7.204  -7.195  -7.195  -1.113  -0.845  -0.744
 -0.655  -0.592  -0.576  -0.554  -0.502  -0.447  -0.414  -0.393
 -0.368  -0.306  -0.291  -0.245  -0.238

          Ground-State Mulliken Net Atomic Charges

     Atom                 Charge (a.u.)    Spin (a.u.)
  --------------------------------------------------------
      1 Cl                   -0.119556      -0.000000
      2 Cl                    0.282301       0.000000
      3 C                    -0.214702       0.000000
      4 C                    -0.292535      -0.000000
      5 C                    -0.314811       0.000000
      6 H                     0.144377      -0.000000
      7 H                     0.056964       0.000000
      8 H                     0.079647       0.000000
      9 H                     0.128078      -0.000000
     10 H                     0.135699      -0.000000
     11 H                     0.114537      -0.000000
  --------------------------------------------------------
  Sum of atomic charges =    -0.000000

                    Cartesian Multipole Moments
 -----------------------------------------------------------------
    Charge (ESU x 10^10)
                -0.0000
    Dipole Moment (Debye)
         X       1.1094      Y      -1.9505      Z      -0.7915
       Tot       2.3794
    Quadrupole Moments (Debye-Ang)
        XX     -44.5914     XY       2.3644     YY     -45.4487
        XZ       0.0797     YZ      -0.4135     ZZ     -43.9287

 Final energy is   -1037.64713149016
 **  OPTIMIZATION CONVERGED  **
 Total job time:  109.28s(wall), 1202.12s(cpu)
        *  Thank you very much for using Q-Chem.  Have a nice day.  *
