 Q-Chem 5.1, Q-Chem, Inc., Pleasanton, CA (2018)
 Q-Chem 5.1.1 for Intel X86 EM64T Linux

User input:
--------------------------------------------------------------

$comment
potential surface scanner
$end

$rem
JOBTYPE  PES_SCAN
UNRESTRICTED TRUE
SYM_IGNORE  TRUE
GEOM_OPT_MAX_CYCLES 400
SCF_MAX_CYCLES 400
METHOD   B3LYP
BASIS   6-31G**
PDB_PRINT 2
SCF_CONVERGENCE 6
THRESH 14
SCF_PRINT 1
$end
$molecule
0 1
Cl -1.656065 1.357332 -0.219975
Cl 2.557882 -0.757759 1.706452
C -0.814422 -0.170502 -0.693300
C 0.502981 0.074612 -1.255733
C -0.802819 -1.200574 0.472970
H -1.425699 -0.617813 -1.497245
H 1.040607 -0.752069 -1.711804
H 0.956095 1.059793 -1.277429
H -0.195678 -0.809651 1.292387
H -1.833582 -1.385437 0.781474
H -0.349000 -2.132533 0.127002
$end
$scan
stre 2 4 3.800000 3.801000 0.100000
$end
--------------------------------------------------------------

   13   -1038.2157110140      6.01e-07  Convergence criterion met
 Total energy in the final basis set =    -1038.2157110140
   14   -1038.2124540304      6.08e-07  Convergence criterion met
 Total energy in the final basis set =    -1038.2124540304
   14   -1038.2124376067      6.52e-07  Convergence criterion met
 Total energy in the final basis set =    -1038.2124376067
   14   -1038.2124673022      5.92e-07  Convergence criterion met
 Total energy in the final basis set =    -1038.2124673022
   14   -1038.2124735513      5.50e-07  Convergence criterion met
 Total energy in the final basis set =    -1038.2124735513
   14   -1038.2124938524      3.77e-07  Convergence criterion met
 Total energy in the final basis set =    -1038.2124938524
   14   -1038.2125016218      3.50e-07  Convergence criterion met
 Total energy in the final basis set =    -1038.2125016218
   14   -1038.2125085659      4.40e-07  Convergence criterion met
 Total energy in the final basis set =    -1038.2125085659
   14   -1038.2125119235      5.23e-07  Convergence criterion met
 Total energy in the final basis set =    -1038.2125119235
   14   -1038.2125135847      5.65e-07  Convergence criterion met
 Total energy in the final basis set =    -1038.2125135847

             Standard Nuclear Orientation (Angstroms)
    I     Atom           X                Y                Z
 ----------------------------------------------------------------
    1      Cl     -1.6376469207     1.3630967581    -0.1938781370
    2      Cl      2.4952356797    -0.7679889784     1.8227868613
    3      C      -0.8142010590    -0.1647189247    -0.6950474337
    4      C       0.4871733237     0.0752851895    -1.2911452105
    5      C      -0.7768162678    -1.2015027694     0.4669088428
    6      H      -1.4491478551    -0.6111389673    -1.4814592942
    7      H       1.0103026192    -0.7543635257    -1.7588791031
    8      H       0.9453551658     1.0579929121    -1.3201550510
    9      H      -0.1455053594    -0.8128512058     1.2695744901
   10      H      -1.8001339616    -1.3850472666     0.7999599878
   11      H      -0.3343153648    -2.1333642216     0.1061330475
 ----------------------------------------------------------------

   14   -1038.2125143548      5.79e-07  Convergence criterion met
 Total energy in the final basis set =    -1038.2125143548

                    Orbital Energies (a.u.)
 --------------------------------------------------------------

 Alpha MOs
 -- Occupied --
*******-101.469 -10.327 -10.320 -10.230  -9.491  -9.381  -7.255
 -7.245  -7.245  -7.144  -7.136  -7.136  -0.920  -0.814  -0.747
 -0.706  -0.640  -0.546  -0.520  -0.484  -0.442  -0.424  -0.408
 -0.341  -0.336  -0.248  -0.241  -0.240

 Beta MOs
 -- Occupied --
*******-101.469 -10.327 -10.320 -10.230  -9.491  -9.381  -7.255
 -7.245  -7.245  -7.144  -7.136  -7.136  -0.920  -0.814  -0.747
 -0.706  -0.640  -0.546  -0.520  -0.484  -0.442  -0.424  -0.408
 -0.341  -0.336  -0.248  -0.241  -0.240

          Ground-State Mulliken Net Atomic Charges

     Atom                 Charge (a.u.)    Spin (a.u.)
  --------------------------------------------------------
      1 Cl                   -0.016750       0.000000
      2 Cl                   -0.478943      -0.000000
      3 C                    -0.245599      -0.000000
      4 C                    -0.066233       0.000000
      5 C                    -0.297336       0.000000
      6 H                     0.206439       0.000000
      7 H                     0.197854      -0.000000
      8 H                     0.214187      -0.000000
      9 H                     0.202475       0.000000
     10 H                     0.141769       0.000000
     11 H                     0.142138      -0.000000
  --------------------------------------------------------
  Sum of atomic charges =     0.000000

                    Cartesian Multipole Moments
 -----------------------------------------------------------------
    Charge (ESU x 10^10)
                 0.0000
    Dipole Moment (Debye)
         X      -4.5192      Y      -0.2573      Z      -6.4023
       Tot       7.8408
    Quadrupole Moments (Debye-Ang)
        XX     -57.7579     XY       6.6056     YY     -45.0407
        XZ     -10.7621     YZ       3.2447     ZZ     -47.2202

 Final energy is   -1038.21251435484
 **  OPTIMIZATION CONVERGED  **
 Total job time:  45.45s(wall), 525.43s(cpu)
        *  Thank you very much for using Q-Chem.  Have a nice day.  *
