 Q-Chem 5.1, Q-Chem, Inc., Pleasanton, CA (2018)
 Q-Chem 5.1.1 for Intel X86 EM64T Linux

User input:
--------------------------------------------------------------

$comment
potential surface scanner
$end

$rem
JOBTYPE  PES_SCAN
UNRESTRICTED TRUE
SYM_IGNORE  TRUE
GEOM_OPT_MAX_CYCLES 400
SCF_MAX_CYCLES 400
METHOD   B3LYP
BASIS   6-31G**
PDB_PRINT 2
SCF_CONVERGENCE 6
THRESH 14
SCF_PRINT 1
$end
$molecule
0 1
Cl -1.612470 1.365361 -0.183209
Cl 2.541366 -0.605626 1.481907
C -0.793535 -0.174454 -0.662624
C 0.545573 0.051934 -1.190998
C -0.846110 -1.225535 0.472448
H -1.385926 -0.577565 -1.504371
H 1.086066 -0.785538 -1.622388
H 0.990719 1.038637 -1.254165
H -0.262742 -0.861535 1.320295
H -1.888221 -1.402262 0.744383
H -0.394423 -2.158018 0.123519
$end
$scan
stre 2 4 3.500000 3.501000 0.100000
$end
--------------------------------------------------------------

   12   -1038.2276516390      3.16e-07  Convergence criterion met
 Total energy in the final basis set =    -1038.2276516390
   12   -1038.2233075774      3.80e-07  Convergence criterion met
 Total energy in the final basis set =    -1038.2233075774
   12   -1038.2232578340      3.81e-07  Convergence criterion met
 Total energy in the final basis set =    -1038.2232578340
   12   -1038.2232814447      3.90e-07  Convergence criterion met
 Total energy in the final basis set =    -1038.2232814447
   12   -1038.2232833560      3.85e-07  Convergence criterion met
 Total energy in the final basis set =    -1038.2232833560
   12   -1038.2232876493      3.71e-07  Convergence criterion met
 Total energy in the final basis set =    -1038.2232876493
   12   -1038.2232887330      3.72e-07  Convergence criterion met
 Total energy in the final basis set =    -1038.2232887330
   12   -1038.2232910622      3.80e-07  Convergence criterion met
 Total energy in the final basis set =    -1038.2232910622
   12   -1038.2232922031      3.83e-07  Convergence criterion met
 Total energy in the final basis set =    -1038.2232922031

             Standard Nuclear Orientation (Angstroms)
    I     Atom           X                Y                Z
 ----------------------------------------------------------------
    1      Cl     -1.6274470555     1.3629609971    -0.1938642172
    2      Cl      2.5577785894    -0.6535724811     1.5529031986
    3      C      -0.8004740576    -0.1722488837    -0.6718684869
    4      C       0.5318888242     0.0602225028    -1.2104762123
    5      C      -0.8346447758    -1.2187023100     0.4715829640
    6      H      -1.3978391030    -0.5881406243    -1.5038434322
    7      H       1.0784689921    -0.7771315305    -1.6347711955
    8      H       0.9739963397     1.0484693299    -1.2730785562
    9      H      -0.2424983733    -0.8492829901     1.3114580475
   10      H      -1.8736329230    -1.3955247029     0.7554110289
   11      H      -0.3852994573    -2.1516503074     0.1213438612
 ----------------------------------------------------------------

   12   -1038.2232931555      3.83e-07  Convergence criterion met
 Total energy in the final basis set =    -1038.2232931555

                    Orbital Energies (a.u.)
 --------------------------------------------------------------

 Alpha MOs
 -- Occupied --
*******-101.474 -10.326 -10.318 -10.228  -9.489  -9.386  -7.253
 -7.243  -7.243  -7.149  -7.141  -7.141  -0.918  -0.812  -0.746
 -0.710  -0.638  -0.542  -0.519  -0.483  -0.439  -0.422  -0.407
 -0.339  -0.334  -0.255  -0.245  -0.244

 Beta MOs
 -- Occupied --
*******-101.474 -10.326 -10.318 -10.228  -9.489  -9.386  -7.253
 -7.243  -7.243  -7.149  -7.141  -7.141  -0.918  -0.812  -0.746
 -0.710  -0.638  -0.542  -0.519  -0.483  -0.439  -0.422  -0.407
 -0.339  -0.334  -0.255  -0.245  -0.244

          Ground-State Mulliken Net Atomic Charges

     Atom                 Charge (a.u.)    Spin (a.u.)
  --------------------------------------------------------
      1 Cl                   -0.020853       0.000000
      2 Cl                   -0.477576      -0.000000
      3 C                    -0.242520      -0.000000
      4 C                    -0.063621       0.000000
      5 C                    -0.297169       0.000000
      6 H                     0.204269       0.000000
      7 H                     0.201468      -0.000000
      8 H                     0.214905      -0.000000
      9 H                     0.199930       0.000000
     10 H                     0.140053       0.000000
     11 H                     0.141114      -0.000000
  --------------------------------------------------------
  Sum of atomic charges =    -0.000000

                    Cartesian Multipole Moments
 -----------------------------------------------------------------
    Charge (ESU x 10^10)
                -0.0000
    Dipole Moment (Debye)
         X      -4.4802      Y      -0.5410      Z      -5.6870
       Tot       7.2600
    Quadrupole Moments (Debye-Ang)
        XX     -58.1634     XY       5.9620     YY     -44.7224
        XZ      -9.3652     YZ       2.3356     ZZ     -45.4041

 Final energy is   -1038.22329315551
 **  OPTIMIZATION CONVERGED  **
 Total job time:  40.98s(wall), 438.57s(cpu)
        *  Thank you very much for using Q-Chem.  Have a nice day.  *
