 Q-Chem 5.1, Q-Chem, Inc., Pleasanton, CA (2018)
 Q-Chem 5.1.1 for Intel X86 EM64T Linux

User input:
--------------------------------------------------------------

$comment
potential surface scanner
$end

$rem
JOBTYPE  PES_SCAN
UNRESTRICTED TRUE
SYM_IGNORE  TRUE
GEOM_OPT_MAX_CYCLES 400
SCF_MAX_CYCLES 400
METHOD   B3LYP
BASIS   6-31G**
PDB_PRINT 2
SCF_CONVERGENCE 6
THRESH 14
SCF_PRINT 1
$end
$molecule
0 3
Cl 0.769391 0.646745 1.066748
Cl -1.312448 2.300219 1.857649
C -0.378029 -0.455632 -0.174748
C -0.246867 0.159129 -1.472557
C 0.108600 -1.879558 -0.017903
H -1.331102 -0.255984 0.312420
H -0.804689 1.057154 -1.711454
H 0.518400 -0.175651 -2.165649
H 1.127764 -1.995517 -0.396210
H 0.078698 -2.198792 1.025295
H -0.549421 -2.536714 -0.598787
$end
$scan
stre 2 4 4.000000 4.001000 0.100000
$end
--------------------------------------------------------------

   11   -1038.2313559208      7.38e-07  Convergence criterion met
 Total energy in the final basis set =    -1038.2313559208
   11   -1038.2310196409      7.35e-07  Convergence criterion met
 Total energy in the final basis set =    -1038.2310196409
   11   -1038.2313105772      7.17e-07  Convergence criterion met
 Total energy in the final basis set =    -1038.2313105772
   11   -1038.2314630803      7.12e-07  Convergence criterion met
 Total energy in the final basis set =    -1038.2314630803
   11   -1038.2314758446      7.16e-07  Convergence criterion met
 Total energy in the final basis set =    -1038.2314758446
   11   -1038.2314831002      7.25e-07  Convergence criterion met
 Total energy in the final basis set =    -1038.2314831002
   11   -1038.2314850751      7.31e-07  Convergence criterion met
 Total energy in the final basis set =    -1038.2314850751
   11   -1038.2314867093      7.37e-07  Convergence criterion met
 Total energy in the final basis set =    -1038.2314867093
   11   -1038.2314877557      7.39e-07  Convergence criterion met
 Total energy in the final basis set =    -1038.2314877557
   11   -1038.2314888149      7.38e-07  Convergence criterion met
 Total energy in the final basis set =    -1038.2314888149

             Standard Nuclear Orientation (Angstroms)
    I     Atom           X                Y                Z
 ----------------------------------------------------------------
    1      Cl      0.7664481220     0.6227226969     1.0979475564
    2      Cl     -1.3006112497     2.3448272303     1.7461633312
    3      C      -0.3795143769    -0.4664830408    -0.1585158066
    4      C      -0.2564968435     0.1713272388    -1.4453450809
    5      C       0.1140845556    -1.8904099441    -0.0264145809
    6      H      -1.3304687025    -0.2772733381     0.3368189076
    7      H      -0.8187848256     1.0716391276    -1.6641338513
    8      H       0.5073997909    -0.1469518066    -2.1476363639
    9      H       1.1321259054    -1.9965146858    -0.4106688888
   10      H       0.0897652409    -2.2265554332     1.0116187303
   11      H      -0.5436506165    -2.5409290449    -0.6150299532
 ----------------------------------------------------------------

   11   -1038.2314895055      7.34e-07  Convergence criterion met
 Total energy in the final basis set =    -1038.2314895055

                    Orbital Energies (a.u.)
 --------------------------------------------------------------

 Alpha MOs
 -- Occupied --
*******-101.528 -10.281 -10.240 -10.215  -9.475  -9.441  -7.239
 -7.234  -7.229  -7.212  -7.194  -7.194  -0.872  -0.798  -0.775
 -0.725  -0.609  -0.507  -0.469  -0.461  -0.408  -0.404  -0.391
 -0.372  -0.330  -0.296  -0.292  -0.288  -0.256

 Beta MOs
 -- Occupied --
*******-101.523 -10.282 -10.228 -10.215  -9.472  -9.436  -7.232
 -7.227  -7.226  -7.195  -7.191  -7.191  -0.857  -0.777  -0.736
 -0.708  -0.599  -0.501  -0.462  -0.454  -0.402  -0.398  -0.373
 -0.326  -0.320  -0.283  -0.279

          Ground-State Mulliken Net Atomic Charges

     Atom                 Charge (a.u.)    Spin (a.u.)
  --------------------------------------------------------
      1 Cl                   -0.050929       0.444879
      2 Cl                   -0.214148       0.766411
      3 C                    -0.166846      -0.065431
      4 C                    -0.147184       0.917756
      5 C                    -0.314763       0.005253
      6 H                     0.192821       0.009644
      7 H                     0.152471      -0.039997
      8 H                     0.132724      -0.039869
      9 H                     0.135332      -0.000941
     10 H                     0.144537       0.001816
     11 H                     0.135986       0.000480
  --------------------------------------------------------
  Sum of atomic charges =     0.000000

                    Cartesian Multipole Moments
 -----------------------------------------------------------------
    Charge (ESU x 10^10)
                 0.0000
    Dipole Moment (Debye)
         X       0.2397      Y      -3.6472      Z      -3.2136
       Tot       4.8669
    Quadrupole Moments (Debye-Ang)
        XX     -45.5395     XY       1.7053     YY     -48.3106
        XZ       1.3028     YZ      -4.7657     ZZ     -47.1367

 Final energy is   -1038.23148950546
 **  OPTIMIZATION CONVERGED  **
 Total job time:  38.53s(wall), 452.10s(cpu)
        *  Thank you very much for using Q-Chem.  Have a nice day.  *
