 Q-Chem 5.1, Q-Chem, Inc., Pleasanton, CA (2018)
 Q-Chem 5.1.1 for Intel X86 EM64T Linux

User input:
--------------------------------------------------------------

$comment
potential surface scanner
$end

$rem
JOBTYPE  PES_SCAN
UNRESTRICTED TRUE
SYM_IGNORE  TRUE
GEOM_OPT_MAX_CYCLES 400
SCF_MAX_CYCLES 400
METHOD   B3LYP
BASIS   6-31G**
PDB_PRINT 2
SCF_CONVERGENCE 6
THRESH 14
SCF_PRINT 1
$end
$molecule
0 3
Cl 0.618399 1.129352 0.652208
Cl -0.864562 0.658790 2.987524
C -0.417931 -0.220333 -0.415049
C -0.088178 0.008360 -1.806657
C -0.062926 -1.569736 0.168921
H -1.416061 0.119874 -0.141846
H -0.565013 0.804846 -2.366443
H 0.734899 -0.526779 -2.269161
H 0.985387 -1.817810 -0.016285
H -0.254516 -1.590092 1.242835
H -0.689199 -2.331072 -0.311248
$end
$scan
stre 2 4 4.800000 4.801000 0.100000
$end
--------------------------------------------------------------

   12   -1038.2303160405      5.98e-07  Convergence criterion met
 Total energy in the final basis set =    -1038.2303160405
   12   -1038.2298269653      5.84e-07  Convergence criterion met
 Total energy in the final basis set =    -1038.2298269653
   12   -1038.2302715783      5.55e-07  Convergence criterion met
 Total energy in the final basis set =    -1038.2302715783
   12   -1038.2304350696      5.33e-07  Convergence criterion met
 Total energy in the final basis set =    -1038.2304350696
   12   -1038.2304480709      5.32e-07  Convergence criterion met
 Total energy in the final basis set =    -1038.2304480709
   12   -1038.2304719232      5.36e-07  Convergence criterion met
 Total energy in the final basis set =    -1038.2304719232
   12   -1038.2304891900      5.42e-07  Convergence criterion met
 Total energy in the final basis set =    -1038.2304891900
   12   -1038.2305170075      5.55e-07  Convergence criterion met
 Total energy in the final basis set =    -1038.2305170075
   12   -1038.2305448191      5.68e-07  Convergence criterion met
 Total energy in the final basis set =    -1038.2305448191
   12   -1038.2305698431      5.73e-07  Convergence criterion met
 Total energy in the final basis set =    -1038.2305698431
   12   -1038.2305843279      5.67e-07  Convergence criterion met
 Total energy in the final basis set =    -1038.2305843279
   12   -1038.2305910429      5.56e-07  Convergence criterion met
 Total energy in the final basis set =    -1038.2305910429
   12   -1038.2305931169      5.49e-07  Convergence criterion met
 Total energy in the final basis set =    -1038.2305931169

             Standard Nuclear Orientation (Angstroms)
    I     Atom           X                Y                Z
 ----------------------------------------------------------------
    1      Cl      0.6989416740     1.0719540603     0.6831019064
    2      Cl     -1.0239078781     0.8436999427     2.8646485125
    3      C      -0.3941446031    -0.2421676884    -0.3841599481
    4      C      -0.1124658783     0.0268081752    -1.7766837752
    5      C      -0.0335808875    -1.6097949774     0.1511987299
    6      H      -1.3731077522     0.1070511163    -0.0594628542
    7      H      -0.5970875175     0.8493262167    -2.2902892589
    8      H       0.6839983571    -0.5031624216    -2.2891044211
    9      H       1.0044602075    -1.8652279396    -0.0769391286
   10      H      -0.1882330498    -1.6619020276     1.2300716643
   11      H      -0.6845736723    -2.3511844566    -0.3275824270
 ----------------------------------------------------------------

   12   -1038.2305940531      5.46e-07  Convergence criterion met
 Total energy in the final basis set =    -1038.2305940531

                    Orbital Energies (a.u.)
 --------------------------------------------------------------

 Alpha MOs
 -- Occupied --
*******-101.532 -10.280 -10.243 -10.208  -9.474  -9.444  -7.238
 -7.233  -7.227  -7.216  -7.197  -7.197  -0.870  -0.797  -0.777
 -0.722  -0.608  -0.506  -0.466  -0.460  -0.406  -0.398  -0.392
 -0.369  -0.325  -0.299  -0.295  -0.294  -0.257

 Beta MOs
 -- Occupied --
*******-101.526 -10.281 -10.231 -10.208  -9.470  -9.439  -7.231
 -7.225  -7.225  -7.198  -7.194  -7.194  -0.856  -0.775  -0.739
 -0.705  -0.599  -0.501  -0.460  -0.451  -0.400  -0.394  -0.371
 -0.327  -0.317  -0.286  -0.282

          Ground-State Mulliken Net Atomic Charges

     Atom                 Charge (a.u.)    Spin (a.u.)
  --------------------------------------------------------
      1 Cl                   -0.056441       0.426349
      2 Cl                   -0.203277       0.774859
      3 C                    -0.166236      -0.071671
      4 C                    -0.151508       0.937301
      5 C                    -0.312627       0.005267
      6 H                     0.190383       0.010392
      7 H                     0.140932      -0.040939
      8 H                     0.135187      -0.040822
      9 H                     0.132029      -0.000912
     10 H                     0.160383       0.002015
     11 H                     0.131175      -0.001839
  --------------------------------------------------------
  Sum of atomic charges =    -0.000000

                    Cartesian Multipole Moments
 -----------------------------------------------------------------
    Charge (ESU x 10^10)
                 0.0000
    Dipole Moment (Debye)
         X      -0.0542      Y      -2.1946      Z      -4.1956
       Tot       4.7352
    Quadrupole Moments (Debye-Ang)
        XX     -45.0612     XY       0.0547     YY     -45.2167
        XZ       1.6202     YZ      -3.2850     ZZ     -49.8654

 Final energy is   -1038.23059405314
 **  OPTIMIZATION CONVERGED  **
 Total job time:  53.30s(wall), 619.50s(cpu)
        *  Thank you very much for using Q-Chem.  Have a nice day.  *
