 Q-Chem 5.1, Q-Chem, Inc., Pleasanton, CA (2018)
 Q-Chem 5.1.1 for Intel X86 EM64T Linux

User input:
--------------------------------------------------------------

$comment
potential surface scanner
$end

$rem
JOBTYPE  PES_SCAN
UNRESTRICTED TRUE
SYM_IGNORE  TRUE
GEOM_OPT_MAX_CYCLES 400
SCF_MAX_CYCLES 400
METHOD   B3LYP
BASIS   6-31G**
PDB_PRINT 2
SCF_CONVERGENCE 6
THRESH 14
SCF_PRINT 1
$end
$molecule
0 3
Cl 0.799128 0.970731 0.745826
Cl -1.212688 1.163892 2.623517
C -0.372224 -0.288372 -0.335393
C -0.149075 0.062425 -1.714166
C 0.006137 -1.679202 0.118551
H -1.323701 0.058672 0.063200
H -0.651034 0.915946 -2.155296
H 0.622212 -0.435741 -2.293186
H 1.031695 -1.928409 -0.165745
H -0.100629 -1.777744 1.199776
H -0.669524 -2.396800 -0.362282
$end
$scan
stre 2 4 4.500000 4.501000 0.100000
$end
--------------------------------------------------------------

   11   -1038.2308153551      8.66e-07  Convergence criterion met
 Total energy in the final basis set =    -1038.2308153551
   11   -1038.2293664433      9.73e-07  Convergence criterion met
 Total energy in the final basis set =    -1038.2293664433
   11   -1038.2301966421      8.55e-07  Convergence criterion met
 Total energy in the final basis set =    -1038.2301966421
   11   -1038.2304718417      7.88e-07  Convergence criterion met
 Total energy in the final basis set =    -1038.2304718417
   11   -1038.2304933425      7.82e-07  Convergence criterion met
 Total energy in the final basis set =    -1038.2304933425
   11   -1038.2305116149      7.82e-07  Convergence criterion met
 Total energy in the final basis set =    -1038.2305116149
   11   -1038.2305230072      7.87e-07  Convergence criterion met
 Total energy in the final basis set =    -1038.2305230072
   11   -1038.2305348261      7.97e-07  Convergence criterion met
   11   -1038.2307244530      8.29e-07  Convergence criterion met
 Total energy in the final basis set =    -1038.2307244530
   11   -1038.2307383278      8.36e-07  Convergence criterion met
 Total energy in the final basis set =    -1038.2307383278
   11   -1038.2307440879      8.34e-07  Convergence criterion met
 Total energy in the final basis set =    -1038.2307440879
   11   -1038.2307515183      8.35e-07  Convergence criterion met
 Total energy in the final basis set =    -1038.2307515183
   11   -1038.2307569833      8.35e-07  Convergence criterion met
 Total energy in the final basis set =    -1038.2307569833
   11   -1038.2307587688      8.36e-07  Convergence criterion met
 Total energy in the final basis set =    -1038.2307587688

             Standard Nuclear Orientation (Angstroms)
    I     Atom           X                Y                Z
 ----------------------------------------------------------------
    1      Cl      0.7937078320     0.8079294447     0.8882831243
    2      Cl     -1.3339294109     1.8018638254     2.3865725765
    3      C      -0.3638841942    -0.3670732161    -0.2626122591
    4      C      -0.1867640662     0.1002333178    -1.6182327072
    5      C       0.0599299146    -1.7872652748     0.0444239229
    6      H      -1.3193374739    -0.0878354770     0.1791292981
    7      H      -0.7151949952     0.9775217256    -1.9729793321
    8      H       0.5816568756    -0.3314123347    -2.2516870883
    9      H       1.0796449910    -1.9788256808    -0.2997942981
   10      H      -0.0004458402    -1.9970803659     1.1134796561
   11      H      -0.6150866326    -2.4726579642    -0.4817808930
 ----------------------------------------------------------------

   11   -1038.2307589664      8.38e-07  Convergence criterion met
 Total energy in the final basis set =    -1038.2307589664

                    Orbital Energies (a.u.)
 --------------------------------------------------------------

 Alpha MOs
 -- Occupied --
*******-101.530 -10.280 -10.242 -10.213  -9.475  -9.443  -7.238
 -7.233  -7.228  -7.214  -7.196  -7.196  -0.872  -0.798  -0.776
 -0.724  -0.609  -0.507  -0.467  -0.460  -0.407  -0.403  -0.392
 -0.368  -0.329  -0.297  -0.293  -0.292  -0.256

 Beta MOs
 -- Occupied --
*******-101.524 -10.281 -10.229 -10.213  -9.471  -9.438  -7.232
 -7.226  -7.225  -7.196  -7.193  -7.192  -0.857  -0.776  -0.737
 -0.707  -0.599  -0.501  -0.461  -0.453  -0.401  -0.397  -0.373
 -0.325  -0.319  -0.284  -0.280

          Ground-State Mulliken Net Atomic Charges

     Atom                 Charge (a.u.)    Spin (a.u.)
  --------------------------------------------------------
      1 Cl                   -0.051501       0.426849
      2 Cl                   -0.204918       0.776040
      3 C                    -0.169909      -0.068035
      4 C                    -0.149581       0.929804
      5 C                    -0.311720       0.004751
      6 H                     0.194161       0.011313
      7 H                     0.144554      -0.040587
      8 H                     0.133186      -0.040573
      9 H                     0.133448      -0.000927
     10 H                     0.148292       0.002184
     11 H                     0.133988      -0.000819
  --------------------------------------------------------
  Sum of atomic charges =     0.000000

                    Cartesian Multipole Moments
 -----------------------------------------------------------------
    Charge (ESU x 10^10)
                 0.0000
    Dipole Moment (Debye)
         X       0.2305      Y      -3.0756      Z      -3.7443
       Tot       4.8510
    Quadrupole Moments (Debye-Ang)
        XX     -45.5485     XY       1.1249     YY     -46.8313
        XZ       1.8341     YZ      -4.7165     ZZ     -48.6568

 Final energy is   -1038.23075896639
 **  OPTIMIZATION CONVERGED  **
 Total job time:  83.84s(wall), 986.57s(cpu)
        *  Thank you very much for using Q-Chem.  Have a nice day.  *
