 Q-Chem 5.1, Q-Chem, Inc., Pleasanton, CA (2018)
 Q-Chem 5.1.1 for Intel X86 EM64T Linux

User input:
--------------------------------------------------------------

$comment
potential surface scanner
$end

$rem
JOBTYPE  PES_SCAN
UNRESTRICTED TRUE
SYM_IGNORE  TRUE
GEOM_OPT_MAX_CYCLES 400
SCF_MAX_CYCLES 400
METHOD   B3LYP
BASIS   6-31G**
PDB_PRINT 2
SCF_CONVERGENCE 6
THRESH 14
SCF_PRINT 1
$end
$molecule
0 3
Cl 0.692067 0.499930 1.271489
Cl -1.109202 2.588069 1.162180
C -0.413722 -0.529106 -0.077926
C -0.326469 0.226748 -1.299830
C 0.148878 -1.933824 -0.069145
H -1.369726 -0.430342 0.433266
H -0.931244 1.114600 -1.438130
H 0.455125 0.009055 -2.021022
H 1.167709 -1.957939 -0.464540
H 0.148740 -2.358427 0.936439
H -0.481861 -2.563364 -0.707977
$end
$scan
stre 2 4 3.400000 3.401000 0.100000
$end
--------------------------------------------------------------

   11   -1038.2314724456      7.84e-07  Convergence criterion met
 Total energy in the final basis set =    -1038.2314724456
   11   -1038.2306000985      7.76e-07  Convergence criterion met
 Total energy in the final basis set =    -1038.2306000985
   11   -1038.2309856964      7.79e-07  Convergence criterion met
 Total energy in the final basis set =    -1038.2309856964
   11   -1038.2311143990      7.84e-07  Convergence criterion met
 Total energy in the final basis set =    -1038.2311143990
   11   -1038.2311315053      7.88e-07  Convergence criterion met
 Total energy in the final basis set =    -1038.2311315053
   11   -1038.2311446384      7.95e-07  Convergence criterion met
 Total energy in the final basis set =    -1038.2311446384
   11   -1038.2311496944      7.99e-07  Convergence criterion met
 Total energy in the final basis set =    -1038.2311496944
   11   -1038.2311535322      8.00e-07  Convergence criterion met
 Total energy in the final basis set =    -1038.2311535322
   11   -1038.2311552611      7.97e-07  Convergence criterion met
 Total energy in the final basis set =    -1038.2311552611

             Standard Nuclear Orientation (Angstroms)
    I     Atom           X                Y                Z
 ----------------------------------------------------------------
    1      Cl      0.6955325459     0.4876129377     1.2917751084
    2      Cl     -1.0905976733     2.5717873327     1.0754624268
    3      C      -0.4175234841    -0.5320313118    -0.0672130801
    4      C      -0.3321846506     0.2387219886    -1.2786016023
    5      C       0.1489679075    -1.9348759283    -0.0734911830
    6      H      -1.3710719681    -0.4384875697     0.4492330618
    7      H      -0.9458347205     1.1198865503    -1.4148277362
    8      H       0.4557609238     0.0346063829    -1.9970753334
    9      H       1.1662621554    -1.9525873924    -0.4730252610
   10      H       0.1535574867    -2.3688627081     0.9281147007
   11      H      -0.4825735226    -2.5603702819    -0.7155471015
 ----------------------------------------------------------------

   11   -1038.2311559565      7.94e-07  Convergence criterion met
 Total energy in the final basis set =    -1038.2311559565

                    Orbital Energies (a.u.)
 --------------------------------------------------------------

 Alpha MOs
 -- Occupied --
*******-101.528 -10.281 -10.237 -10.216  -9.475  -9.441  -7.238
 -7.234  -7.228  -7.211  -7.194  -7.194  -0.871  -0.798  -0.775
 -0.724  -0.608  -0.506  -0.468  -0.460  -0.408  -0.402  -0.390
 -0.374  -0.329  -0.296  -0.292  -0.287  -0.255

 Beta MOs
 -- Occupied --
*******-101.522 -10.281 -10.225 -10.215  -9.471  -9.435  -7.232
 -7.226  -7.225  -7.194  -7.191  -7.190  -0.856  -0.777  -0.737
 -0.708  -0.598  -0.500  -0.462  -0.453  -0.402  -0.397  -0.372
 -0.328  -0.319  -0.283  -0.279

          Ground-State Mulliken Net Atomic Charges

     Atom                 Charge (a.u.)    Spin (a.u.)
  --------------------------------------------------------
      1 Cl                   -0.053560       0.465180
      2 Cl                   -0.222513       0.753600
      3 C                    -0.162916      -0.058913
      4 C                    -0.141237       0.905060
      5 C                    -0.316727       0.005460
      6 H                     0.188136       0.006723
      7 H                     0.162055      -0.039445
      8 H                     0.130852      -0.039423
      9 H                     0.137029      -0.000999
     10 H                     0.142029       0.002261
     11 H                     0.136852       0.000498
  --------------------------------------------------------
  Sum of atomic charges =    -0.000000

                    Cartesian Multipole Moments
 -----------------------------------------------------------------
    Charge (ESU x 10^10)
                -0.0000
    Dipole Moment (Debye)
         X       0.0383      Y      -3.8979      Z      -2.6105
       Tot       4.6915
    Quadrupole Moments (Debye-Ang)
        XX     -45.1451     XY       1.6501     YY     -49.0920
        XZ       0.5608     YZ      -3.8970     ZZ     -45.8996

 Final energy is   -1038.23115595651
 **  OPTIMIZATION CONVERGED  **
 Total job time:  35.15s(wall), 410.37s(cpu)
        *  Thank you very much for using Q-Chem.  Have a nice day.  *
