 Q-Chem 5.1, Q-Chem, Inc., Pleasanton, CA (2018)
 Q-Chem 5.1.1 for Intel X86 EM64T Linux

User input:
--------------------------------------------------------------

$comment
potential surface scanner
$end

$rem
JOBTYPE  PES_SCAN
UNRESTRICTED TRUE
SYM_IGNORE  TRUE
GEOM_OPT_MAX_CYCLES 400
SCF_MAX_CYCLES 400
METHOD   B3LYP
BASIS   6-31G**
PDB_PRINT 2
SCF_CONVERGENCE 6
THRESH 14
SCF_PRINT 1
$end
$molecule
0 1
Cl -1.327324 1.386240 0.132725
Cl 2.209563 0.026342 0.984205
C -0.686328 -0.177332 -0.530868
C 0.706306 -0.035661 -1.012385
C -0.930445 -1.333279 0.433600
H -1.267533 -0.340797 -1.455677
H 1.179066 -0.924541 -1.418723
H 1.044501 0.918693 -1.397613
H -0.373511 -1.160759 1.355473
H -1.995549 -1.426508 0.652003
H -0.578447 -2.267001 -0.017938
$end
$scan
stre 2 4 2.600000 2.601000 0.100000
$end
--------------------------------------------------------------

   10   -1038.2882850249      2.53e-07  Convergence criterion met
 Total energy in the final basis set =    -1038.2882850249
   10   -1038.2796052085      3.91e-07  Convergence criterion met
 Total energy in the final basis set =    -1038.2796052085
   10   -1038.2779522930      4.53e-07  Convergence criterion met
 Total energy in the final basis set =    -1038.2779522930
   10   -1038.2795512048      4.16e-07  Convergence criterion met
 Total energy in the final basis set =    -1038.2795512048
   10   -1038.2795691987      4.11e-07  Convergence criterion met
 Total energy in the final basis set =    -1038.2795691987
   10   -1038.2795712103      4.10e-07  Convergence criterion met
 Total energy in the final basis set =    -1038.2795712103
   10   -1038.2795764746      4.10e-07  Convergence criterion met
 Total energy in the final basis set =    -1038.2795764746
   10   -1038.2795788941      4.10e-07  Convergence criterion met
 Total energy in the final basis set =    -1038.2795788941

             Standard Nuclear Orientation (Angstroms)
    I     Atom           X                Y                Z
 ----------------------------------------------------------------
    1      Cl     -1.3484078629     1.3870728060     0.1066503064
    2      Cl      2.2463820794    -0.0159593846     1.0435429240
    3      C      -0.6980654459    -0.1768977924    -0.5436267560
    4      C       0.6860765522    -0.0309345438    -1.0361739845
    5      C      -0.9241483249    -1.3270114348     0.4347969954
    6      H      -1.2849691943    -0.3592608601    -1.4623554640
    7      H       1.1705309586    -0.9162427027    -1.4360872926
    8      H       1.0447223608     0.9311285924    -1.3815681282
    9      H      -0.3528828447    -1.1413287439     1.3452478744
   10      H      -1.9859036215    -1.4225820180     0.6676253454
   11      H      -0.5730356567    -2.2625869180    -0.0132498203
 ----------------------------------------------------------------

   10   -1038.2795796856      4.10e-07  Convergence criterion met
 Total energy in the final basis set =    -1038.2795796856

                    Orbital Energies (a.u.)
 --------------------------------------------------------------

 Alpha MOs
 -- Occupied --
*******-101.501 -10.309 -10.299 -10.213  -9.471  -9.413  -7.236
 -7.225  -7.225  -7.177  -7.168  -7.168  -0.899  -0.795  -0.743
 -0.728  -0.619  -0.515  -0.507  -0.473  -0.421  -0.406  -0.396
 -0.321  -0.320  -0.301  -0.269  -0.268

 Beta MOs
 -- Occupied --
*******-101.501 -10.309 -10.299 -10.213  -9.471  -9.413  -7.236
 -7.225  -7.225  -7.177  -7.168  -7.168  -0.899  -0.795  -0.743
 -0.728  -0.619  -0.515  -0.507  -0.473  -0.421  -0.406  -0.396
 -0.321  -0.320  -0.301  -0.269  -0.268

          Ground-State Mulliken Net Atomic Charges

     Atom                 Charge (a.u.)    Spin (a.u.)
  --------------------------------------------------------
      1 Cl                   -0.033561       0.000000
      2 Cl                   -0.377070      -0.000000
      3 C                    -0.207718       0.000000
      4 C                    -0.099179      -0.000000
      5 C                    -0.302957      -0.000000
      6 H                     0.186328      -0.000000
      7 H                     0.190156       0.000000
      8 H                     0.203247       0.000000
      9 H                     0.184207       0.000000
     10 H                     0.134491      -0.000000
     11 H                     0.122056       0.000000
  --------------------------------------------------------
  Sum of atomic charges =    -0.000000

                    Cartesian Multipole Moments
 -----------------------------------------------------------------
    Charge (ESU x 10^10)
                 0.0000
    Dipole Moment (Debye)
         X      -2.8232      Y      -1.9166      Z      -4.0483
       Tot       5.2946
    Quadrupole Moments (Debye-Ang)
        XX     -52.8915     XY       2.1236     YY     -44.4621
        XZ      -4.6938     YZ       0.1073     ZZ     -42.7577

 Final energy is   -1038.27957968557
 **  OPTIMIZATION CONVERGED  **
 Total job time:  33.99s(wall), 364.71s(cpu)
        *  Thank you very much for using Q-Chem.  Have a nice day.  *
