 Q-Chem 5.1, Q-Chem, Inc., Pleasanton, CA (2018)
 Q-Chem 5.1.1 for Intel X86 EM64T Linux

User input:
--------------------------------------------------------------

$comment
potential surface scanner
$end

$rem
JOBTYPE  PES_SCAN
UNRESTRICTED TRUE
SYM_IGNORE  TRUE
GEOM_OPT_MAX_CYCLES 400
SCF_MAX_CYCLES 400
METHOD   B3LYP
BASIS   6-31G**
PDB_PRINT 2
SCF_CONVERGENCE 6
THRESH 14
SCF_PRINT 1
$end
$molecule
0 3
Cl -0.135488 0.418585 1.880092
Cl 0.492697 2.416097 0.184462
C -0.706714 -0.728839 -0.122904
C -0.661126 0.313449 -1.055524
C 0.310086 -1.830134 -0.125692
H -1.672855 -0.950776 0.320694
H -1.507857 0.970999 -1.201475
H 0.179184 0.418640 -1.730829
H 1.312776 -1.446534 -0.327693
H 0.319039 -2.370265 0.822040
H 0.050546 -2.545824 -0.918368
$end
$scan
stre 2 4 2.600000 2.601000 0.100000
$end
--------------------------------------------------------------

   11   -1038.2276476435      9.30e-07  Convergence criterion met
 Total energy in the final basis set =    -1038.2276476435
   12   -1038.2269016412      5.71e-07  Convergence criterion met
 Total energy in the final basis set =    -1038.2269016412
   12   -1038.2270433478      6.15e-07  Convergence criterion met
 Total energy in the final basis set =    -1038.2270433478
   12   -1038.2271561975      6.19e-07  Convergence criterion met
 Total energy in the final basis set =    -1038.2271561975
   12   -1038.2272153606      5.27e-07  Convergence criterion met
 Total energy in the final basis set =    -1038.2272153606
   11   -1038.2273320829      9.41e-07  Convergence criterion met
 Total energy in the final basis set =    -1038.2273320829
   12   -1038.2274022934      8.86e-07  Convergence criterion met
 Total energy in the final basis set =    -1038.2274022934
   12   -1038.2274559468      8.41e-07  Convergence criterion met
   12   -1038.2329815150      7.19e-07  Convergence criterion met
 Total energy in the final basis set =    -1038.2329815150
   12   -1038.2329949635      7.19e-07  Convergence criterion met
 Total energy in the final basis set =    -1038.2329949635
   12   -1038.2330056361      7.16e-07  Convergence criterion met
 Total energy in the final basis set =    -1038.2330056361
   12   -1038.2330122800      7.13e-07  Convergence criterion met
 Total energy in the final basis set =    -1038.2330122800
   12   -1038.2330150760      7.12e-07  Convergence criterion met
 Total energy in the final basis set =    -1038.2330150760
   12   -1038.2330161633      7.12e-07  Convergence criterion met
 Total energy in the final basis set =    -1038.2330161633

             Standard Nuclear Orientation (Angstroms)
    I     Atom           X                Y                Z
 ----------------------------------------------------------------
    1      Cl      0.1683008845     0.3282446488     2.8007226018
    2      Cl      0.1367752132     1.8918994488     0.5982590115
    3      C      -0.7639286142    -0.7387167669    -0.4813584338
    4      C      -0.6252285972     0.3264568387    -1.3327356004
    5      C       0.2892074811    -1.7406460135    -0.1927400736
    6      H      -1.6994787677    -0.8369982178     0.0662961584
    7      H      -1.4573677978     0.9876499794    -1.5439011472
    8      H       0.2781750440     0.4597095229    -1.9194214215
    9      H       1.1637807672    -1.6281268375    -0.8372647829
   10      H       0.6004264726    -1.6263156036     0.8564534586
   11      H      -0.1103740858    -2.7577589993    -0.2895067709
 ----------------------------------------------------------------

   12   -1038.2330168838      7.13e-07  Convergence criterion met
 Total energy in the final basis set =    -1038.2330168838

                    Orbital Energies (a.u.)
 --------------------------------------------------------------

 Alpha MOs
 -- Occupied --
*******-101.518 -10.268 -10.258 -10.215  -9.466  -9.431  -7.232
 -7.226  -7.219  -7.201  -7.185  -7.184  -0.850  -0.810  -0.766
 -0.732  -0.609  -0.518  -0.473  -0.453  -0.414  -0.399  -0.379
 -0.371  -0.321  -0.294  -0.282  -0.278  -0.272

 Beta MOs
 -- Occupied --
*******-101.513 -10.263 -10.256 -10.215  -9.460  -9.426  -7.218
 -7.216  -7.215  -7.184  -7.181  -7.181  -0.836  -0.769  -0.732
 -0.720  -0.602  -0.515  -0.470  -0.442  -0.411  -0.397  -0.329
 -0.319  -0.307  -0.275  -0.269

          Ground-State Mulliken Net Atomic Charges

     Atom                 Charge (a.u.)    Spin (a.u.)
  --------------------------------------------------------
      1 Cl                   -0.244793       0.730608
      2 Cl                   -0.146532       0.805134
      3 C                     0.041799       0.347084
      4 C                    -0.214130       0.125355
      5 C                    -0.367281      -0.019668
      6 H                     0.150696      -0.015281
      7 H                     0.164227      -0.004483
      8 H                     0.155533      -0.005388
      9 H                     0.129535       0.000351
     10 H                     0.191293       0.021394
     11 H                     0.139653       0.014894
  --------------------------------------------------------
  Sum of atomic charges =    -0.000000

                    Cartesian Multipole Moments
 -----------------------------------------------------------------
    Charge (ESU x 10^10)
                -0.0000
    Dipole Moment (Debye)
         X      -1.2390      Y      -2.7714      Z      -4.8003
       Tot       5.6797
    Quadrupole Moments (Debye-Ang)
        XX     -43.4342     XY      -0.3935     YY     -44.4635
        XZ      -0.0622     YZ      -3.4561     ZZ     -51.4644

 Final energy is   -1038.23301688384
 **  OPTIMIZATION CONVERGED  **
 Total job time:  155.90s(wall), 1824.00s(cpu)
        *  Thank you very much for using Q-Chem.  Have a nice day.  *
