 Q-Chem 5.1, Q-Chem, Inc., Pleasanton, CA (2018)
 Q-Chem 5.1.1 for Intel X86 EM64T Linux

User input:
--------------------------------------------------------------

$comment
potential surface scanner
$end

$rem
JOBTYPE  PES_SCAN
UNRESTRICTED TRUE
SYM_IGNORE  TRUE
GEOM_OPT_MAX_CYCLES 400
SCF_MAX_CYCLES 400
METHOD   B3LYP
BASIS   6-31G**
PDB_PRINT 2
SCF_CONVERGENCE 6
THRESH 14
SCF_PRINT 1
$end
$molecule
0 1
Cl -1.271049 1.376811 0.224556
Cl 1.950665 0.118772 0.605909
C -0.614164 -0.179484 -0.476435
C 0.862951 -0.027072 -0.820838
C -0.945480 -1.347390 0.440770
H -1.139280 -0.286617 -1.430919
H 1.187179 -0.914316 -1.371171
H 1.027442 0.857257 -1.436337
H -0.471620 -1.223952 1.416326
H -2.025197 -1.429684 0.580690
H -0.581147 -2.278925 -0.007752
$end
$scan
stre 2 4 1.900000 1.901000 0.100000
$end
--------------------------------------------------------------

    9   -1038.3415658359      2.64e-07  Convergence criterion met
 Total energy in the final basis set =    -1038.3415658359
    9   -1038.3390684144      5.80e-07  Convergence criterion met
 Total energy in the final basis set =    -1038.3390684144
    9   -1038.3393541328      5.87e-07  Convergence criterion met
 Total energy in the final basis set =    -1038.3393541328
    9   -1038.3394280721      5.90e-07  Convergence criterion met
 Total energy in the final basis set =    -1038.3394280721
    9   -1038.3394299909      5.90e-07  Convergence criterion met
 Total energy in the final basis set =    -1038.3394299909

             Standard Nuclear Orientation (Angstroms)
    I     Atom           X                Y                Z
 ----------------------------------------------------------------
    1      Cl     -1.2738295401     1.3778377525     0.2173645762
    2      Cl      1.9855715117     0.1201316164     0.6582234718
    3      C      -0.6240218156    -0.1795118458    -0.4822317902
    4      C       0.8396363217    -0.0305393468    -0.8497985366
    5      C      -0.9451283655    -1.3472430862     0.4389346599
    6      H      -1.1584379153    -0.2900814626    -1.4325083497
    7      H       1.1915957606    -0.9208236111    -1.3732766629
    8      H       1.0322982780     0.8647292339    -1.4371152464
    9      H      -0.4586295133    -1.2213576832     1.4076808282
   10      H      -2.0232548717    -1.4289356676     0.5905369820
   11      H      -0.5854998504    -2.2788058996    -0.0130109323
 ----------------------------------------------------------------

    9   -1038.3394303103      5.90e-07  Convergence criterion met
 Total energy in the final basis set =    -1038.3394303103

                    Orbital Energies (a.u.)
 --------------------------------------------------------------

 Alpha MOs
 -- Occupied --
*******-101.537 -10.275 -10.270 -10.201  -9.454  -9.452  -7.218
 -7.216  -7.208  -7.208  -7.206  -7.206  -0.883  -0.825  -0.760
 -0.705  -0.595  -0.496  -0.488  -0.453  -0.413  -0.393  -0.387
 -0.372  -0.307  -0.305  -0.300  -0.296

 Beta MOs
 -- Occupied --
*******-101.537 -10.275 -10.270 -10.201  -9.454  -9.452  -7.218
 -7.216  -7.208  -7.208  -7.206  -7.206  -0.883  -0.825  -0.760
 -0.705  -0.595  -0.496  -0.488  -0.453  -0.413  -0.393  -0.387
 -0.372  -0.307  -0.305  -0.300  -0.296

          Ground-State Mulliken Net Atomic Charges

     Atom                 Charge (a.u.)    Spin (a.u.)
  --------------------------------------------------------
      1 Cl                   -0.072448      -0.000000
      2 Cl                   -0.110243       0.000000
      3 C                    -0.174585       0.000000
      4 C                    -0.249525       0.000000
      5 C                    -0.303343      -0.000000
      6 H                     0.162788      -0.000000
      7 H                     0.165562       0.000000
      8 H                     0.178374      -0.000000
      9 H                     0.156123      -0.000000
     10 H                     0.131687       0.000000
     11 H                     0.115612       0.000000
  --------------------------------------------------------
  Sum of atomic charges =    -0.000000

                    Cartesian Multipole Moments
 -----------------------------------------------------------------
    Charge (ESU x 10^10)
                 0.0000
    Dipole Moment (Debye)
         X      -0.7763      Y      -2.0787      Z      -2.2965
       Tot       3.1934
    Quadrupole Moments (Debye-Ang)
        XX     -48.5853     XY       1.8820     YY     -45.1752
        XZ      -1.5454     YZ      -0.1436     ZZ     -42.5366

 Final energy is   -1038.33943031029
 **  OPTIMIZATION CONVERGED  **
 Total job time:  20.83s(wall), 229.84s(cpu)
        *  Thank you very much for using Q-Chem.  Have a nice day.  *
