 Q-Chem 5.1, Q-Chem, Inc., Pleasanton, CA (2018)
 Q-Chem 5.1.1 for Intel X86 EM64T Linux

User input:
--------------------------------------------------------------

$comment
potential surface scanner
$end

$rem
JOBTYPE  PES_SCAN
UNRESTRICTED TRUE
SYM_IGNORE  TRUE
GEOM_OPT_MAX_CYCLES 400
SCF_MAX_CYCLES 400
METHOD   B3LYP
BASIS   6-31G**
PDB_PRINT 2
SCF_CONVERGENCE 6
THRESH 14
SCF_PRINT 1
$end
$molecule
0 3
Cl 0.766448 0.622723 1.097948
Cl -1.300611 2.344827 1.746163
C -0.379514 -0.466483 -0.158516
C -0.256497 0.171327 -1.445345
C 0.114085 -1.890410 -0.026415
H -1.330469 -0.277273 0.336819
H -0.818785 1.071639 -1.664134
H 0.507400 -0.146952 -2.147636
H 1.132126 -1.996515 -0.410669
H 0.089765 -2.226555 1.011619
H -0.543651 -2.540929 -0.615030
$end
$scan
stre 2 4 3.900000 3.901000 0.100000
$end
--------------------------------------------------------------

   11   -1038.2314895062      7.34e-07  Convergence criterion met
 Total energy in the final basis set =    -1038.2314895062
   11   -1038.2312046838      7.32e-07  Convergence criterion met
 Total energy in the final basis set =    -1038.2312046838
   11   -1038.2314648410      7.16e-07  Convergence criterion met
 Total energy in the final basis set =    -1038.2314648410
   11   -1038.2316023024      7.12e-07  Convergence criterion met
 Total energy in the final basis set =    -1038.2316023024
   11   -1038.2316117609      7.16e-07  Convergence criterion met
 Total energy in the final basis set =    -1038.2316117609
   11   -1038.2316162862      7.23e-07  Convergence criterion met
 Total energy in the final basis set =    -1038.2316162862

             Standard Nuclear Orientation (Angstroms)
    I     Atom           X                Y                Z
 ----------------------------------------------------------------
    1      Cl      0.7698385345     0.6068999138     1.1205374870
    2      Cl     -1.2940284648     2.3552947537     1.6473413054
    3      C      -0.3802035600    -0.4721965828    -0.1448007938
    4      C      -0.2637360030     0.1822498466    -1.4228990892
    5      C       0.1165126422    -1.8966053875    -0.0318909057
    6      H      -1.3268988895    -0.2869580493     0.3597891705
    7      H      -0.8269640962     1.0856152567    -1.6257257446
    8      H       0.4984792663    -0.1253755424    -2.1317653507
    9      H       1.1322895968    -1.9969423013    -0.4236450611
   10      H       0.0988272544    -2.2454468828     1.0020871436
   11      H      -0.5438192808    -2.5411360245    -0.6242241614
 ----------------------------------------------------------------

   11   -1038.2316171387      7.27e-07  Convergence criterion met
 Total energy in the final basis set =    -1038.2316171387

                    Orbital Energies (a.u.)
 --------------------------------------------------------------

 Alpha MOs
 -- Occupied --
*******-101.528 -10.281 -10.240 -10.215  -9.476  -9.441  -7.239
 -7.235  -7.229  -7.212  -7.194  -7.194  -0.872  -0.798  -0.774
 -0.725  -0.609  -0.507  -0.469  -0.461  -0.408  -0.404  -0.391
 -0.372  -0.330  -0.296  -0.292  -0.287  -0.256

 Beta MOs
 -- Occupied --
*******-101.522 -10.281 -10.228 -10.215  -9.472  -9.436  -7.232
 -7.227  -7.226  -7.194  -7.191  -7.190  -0.857  -0.777  -0.736
 -0.708  -0.599  -0.501  -0.462  -0.454  -0.402  -0.398  -0.373
 -0.327  -0.320  -0.283  -0.279

          Ground-State Mulliken Net Atomic Charges

     Atom                 Charge (a.u.)    Spin (a.u.)
  --------------------------------------------------------
      1 Cl                   -0.050258       0.451625
      2 Cl                   -0.217570       0.761614
      3 C                    -0.166292      -0.064726
      4 C                    -0.146346       0.915205
      5 C                    -0.315339       0.005203
      6 H                     0.193235       0.009342
      7 H                     0.154023      -0.039849
      8 H                     0.132534      -0.039729
      9 H                     0.135399      -0.000945
     10 H                     0.144261       0.001820
     11 H                     0.136353       0.000440
  --------------------------------------------------------
  Sum of atomic charges =    -0.000000

                    Cartesian Multipole Moments
 -----------------------------------------------------------------
    Charge (ESU x 10^10)
                 0.0000
    Dipole Moment (Debye)
         X       0.2502      Y      -3.6764      Z      -3.1311
       Tot       4.8355
    Quadrupole Moments (Debye-Ang)
        XX     -45.5606     XY       1.7543     YY     -48.3748
        XZ       1.2334     YZ      -4.6473     ZZ     -46.9161

 Final energy is   -1038.23161713870
 **  OPTIMIZATION CONVERGED  **
 Total job time:  24.89s(wall), 289.29s(cpu)
        *  Thank you very much for using Q-Chem.  Have a nice day.  *
