 Q-Chem 5.1, Q-Chem, Inc., Pleasanton, CA (2018)
 Q-Chem 5.1.1 for Intel X86 EM64T Linux

User input:
--------------------------------------------------------------

$comment
potential surface scanner
$end

$rem
JOBTYPE  PES_SCAN
UNRESTRICTED TRUE
SYM_IGNORE  TRUE
GEOM_OPT_MAX_CYCLES 400
SCF_MAX_CYCLES 400
METHOD   B3LYP
BASIS   6-31G**
PDB_PRINT 2
SCF_CONVERGENCE 6
THRESH 14
SCF_PRINT 1
$end
$molecule
0 3
Cl 0.544489 1.161311 0.642863
Cl -0.753563 0.579662 3.093322
C -0.435509 -0.211472 -0.437835
C -0.068593 -0.002013 -1.825263
C -0.081830 -1.549934 0.173167
H -1.447929 0.115361 -0.203263
H -0.536491 0.779872 -2.412431
H 0.770287 -0.539792 -2.255026
H 0.972020 -1.790890 0.011041
H -0.289751 -1.552719 1.244135
H -0.692831 -2.323986 -0.305911
$end
$scan
stre 2 4 4.900000 4.901000 0.100000
$end
--------------------------------------------------------------

   12   -1038.2300059545      6.55e-07  Convergence criterion met
 Total energy in the final basis set =    -1038.2300059545
   12   -1038.2295748953      6.38e-07  Convergence criterion met
 Total energy in the final basis set =    -1038.2295748953
   12   -1038.2300747410      6.06e-07  Convergence criterion met
 Total energy in the final basis set =    -1038.2300747410
   12   -1038.2302553086      5.81e-07  Convergence criterion met
 Total energy in the final basis set =    -1038.2302553086
   12   -1038.2302670736      5.80e-07  Convergence criterion met
 Total energy in the final basis set =    -1038.2302670736
   12   -1038.2302866331      5.83e-07  Convergence criterion met
 Total energy in the final basis set =    -1038.2302866331
   12   -1038.2302972779      5.89e-07  Convergence criterion met
 Total energy in the final basis set =    -1038.2302972779
   12   -1038.2303061826      5.97e-07  Convergence criterion met
 Total energy in the final basis set =    -1038.2303061826
   12   -1038.2303097871      6.01e-07  Convergence criterion met
 Total energy in the final basis set =    -1038.2303097871
   12   -1038.2303118439      6.03e-07  Convergence criterion met
 Total energy in the final basis set =    -1038.2303118439
   12   -1038.2303136242      6.02e-07  Convergence criterion met
 Total energy in the final basis set =    -1038.2303136242
   12   -1038.2303151060      6.00e-07  Convergence criterion met
 Total energy in the final basis set =    -1038.2303151060

             Standard Nuclear Orientation (Angstroms)
    I     Atom           X                Y                Z
 ----------------------------------------------------------------
    1      Cl      0.6183994380     1.1293520998     0.6522081448
    2      Cl     -0.8645623266     0.6587904309     2.9875236726
    3      C      -0.4179307250    -0.2203327541    -0.4150491337
    4      C      -0.0881777045     0.0083600023    -1.8066573699
    5      C      -0.0629258828    -1.5697357559     0.1689208926
    6      H      -1.4160608048     0.1198739042    -0.1418459107
    7      H      -0.5650128545     0.8048460148    -2.3664429348
    8      H       0.7348987743    -0.5267792745    -2.2691609908
    9      H       0.9853869209    -1.8178104585    -0.0162847431
   10      H      -0.2545163720    -1.5900919357     1.2428349779
   11      H      -0.6891994630    -2.3310722733    -0.3112476050
 ----------------------------------------------------------------

   12   -1038.2303160397      5.98e-07  Convergence criterion met
 Total energy in the final basis set =    -1038.2303160397

                    Orbital Energies (a.u.)
 --------------------------------------------------------------

 Alpha MOs
 -- Occupied --
*******-101.533 -10.281 -10.243 -10.206  -9.474  -9.446  -7.237
 -7.232  -7.227  -7.217  -7.199  -7.198  -0.870  -0.797  -0.778
 -0.721  -0.608  -0.506  -0.466  -0.459  -0.406  -0.397  -0.392
 -0.368  -0.324  -0.301  -0.296  -0.295  -0.256

 Beta MOs
 -- Occupied --
*******-101.527 -10.281 -10.230 -10.206  -9.470  -9.440  -7.231
 -7.225  -7.224  -7.199  -7.195  -7.195  -0.856  -0.775  -0.740
 -0.704  -0.599  -0.500  -0.459  -0.450  -0.399  -0.394  -0.372
 -0.327  -0.316  -0.286  -0.282

          Ground-State Mulliken Net Atomic Charges

     Atom                 Charge (a.u.)    Spin (a.u.)
  --------------------------------------------------------
      1 Cl                   -0.056222       0.414843
      2 Cl                   -0.197497       0.780494
      3 C                    -0.167227      -0.072161
      4 C                    -0.151926       0.944308
      5 C                    -0.313303       0.005970
      6 H                     0.186687       0.009672
      7 H                     0.139788      -0.041196
      8 H                     0.135449      -0.041074
      9 H                     0.131876      -0.000905
     10 H                     0.162385       0.001916
     11 H                     0.129989      -0.001865
  --------------------------------------------------------
  Sum of atomic charges =    -0.000000

                    Cartesian Multipole Moments
 -----------------------------------------------------------------
    Charge (ESU x 10^10)
                -0.0000
    Dipole Moment (Debye)
         X      -0.1939      Y      -2.0162      Z      -4.2462
       Tot       4.7046
    Quadrupole Moments (Debye-Ang)
        XX     -44.8019     XY      -0.1425     YY     -45.1183
        XZ       1.3315     YZ      -2.9263     ZZ     -50.0995

 Final energy is   -1038.23031603971
 **  OPTIMIZATION CONVERGED  **
 Total job time:  48.36s(wall), 567.32s(cpu)
        *  Thank you very much for using Q-Chem.  Have a nice day.  *
