 Q-Chem 5.1, Q-Chem, Inc., Pleasanton, CA (2018)
 Q-Chem 5.1.1 for Intel X86 EM64T Linux

User input:
--------------------------------------------------------------

$comment
potential surface scanner
$end

$rem
JOBTYPE  PES_SCAN
UNRESTRICTED TRUE
SYM_IGNORE  TRUE
GEOM_OPT_MAX_CYCLES 400
SCF_MAX_CYCLES 400
METHOD   B3LYP
BASIS   6-31G**
PDB_PRINT 2
SCF_CONVERGENCE 6
THRESH 14
SCF_PRINT 1
$end
$molecule
0 3
Cl 0.377877 0.370033 1.520788
Cl -0.411315 2.829981 0.589793
C -0.535385 -0.621895 -0.019607
C -0.472548 0.263744 -1.148218
C 0.212130 -1.934928 -0.108195
H -1.523920 -0.705279 0.427874
H -1.249792 0.990360 -1.336023
H 0.416168 0.285829 -1.770657
H 1.234660 -1.783791 -0.462888
H 0.241453 -2.446663 0.855736
H -0.309037 -2.581992 -0.823795
$end
$scan
stre 2 4 3.000000 3.001000 0.100000
$end
--------------------------------------------------------------

   11   -1038.2292825802      7.39e-07  Convergence criterion met
 Total energy in the final basis set =    -1038.2292825802
   11   -1038.2280901054      6.59e-07  Convergence criterion met
 Total energy in the final basis set =    -1038.2280901054
   11   -1038.2282931226      7.69e-07  Convergence criterion met
 Total energy in the final basis set =    -1038.2282931226
   11   -1038.2283570622      7.85e-07  Convergence criterion met
 Total energy in the final basis set =    -1038.2283570622
   11   -1038.2283710060      7.89e-07  Convergence criterion met
 Total energy in the final basis set =    -1038.2283710060
   11   -1038.2284183528      8.14e-07  Convergence criterion met
 Total energy in the final basis set =    -1038.2284183528
   11   -1038.2284697463      8.42e-07  Convergence criterion met
 Total energy in the final basis set =    -1038.2284697463
   11   -1038.2285908931      8.52e-07  Convergence criterion met
   11   -1038.2295431517      7.58e-07  Convergence criterion met
 Total energy in the final basis set =    -1038.2295431517
   11   -1038.2295567861      7.58e-07  Convergence criterion met
 Total energy in the final basis set =    -1038.2295567861
   11   -1038.2295611196      7.62e-07  Convergence criterion met
 Total energy in the final basis set =    -1038.2295611196
   11   -1038.2295674450      7.68e-07  Convergence criterion met
 Total energy in the final basis set =    -1038.2295674450
   11   -1038.2295704684      7.66e-07  Convergence criterion met
 Total energy in the final basis set =    -1038.2295704684
   11   -1038.2295718781      7.58e-07  Convergence criterion met
 Total energy in the final basis set =    -1038.2295718781

             Standard Nuclear Orientation (Angstroms)
    I     Atom           X                Y                Z
 ----------------------------------------------------------------
    1      Cl     -0.2253767321     0.3762699520     1.6985273774
    2      Cl      0.7386394663     2.4998430564     0.2637274368
    3      C      -0.7102909019    -0.7105708177    -0.0469365074
    4      C      -0.7340087051     0.2626130729    -1.0876097264
    5      C       0.3228504092    -1.8090441344    -0.1003872380
    6      H      -1.6894132937    -1.0192115591     0.3144829102
    7      H      -1.5850775373     0.9199052651    -1.2173679964
    8      H       0.1337472791     0.4230975152    -1.7156095834
    9      H       1.3182571914    -1.4027381028    -0.2944304937
   10      H       0.3479136277    -2.3814236261     0.8282124644
   11      H       0.0630501964    -2.4933416216    -0.9178006435
 ----------------------------------------------------------------

   11   -1038.2295722139      7.53e-07  Convergence criterion met
 Total energy in the final basis set =    -1038.2295722139

                    Orbital Energies (a.u.)
 --------------------------------------------------------------

 Alpha MOs
 -- Occupied --
*******-101.525 -10.281 -10.242 -10.214  -9.468  -9.437  -7.231
 -7.228  -7.221  -7.208  -7.191  -7.190  -0.863  -0.798  -0.773
 -0.725  -0.608  -0.508  -0.466  -0.460  -0.406  -0.400  -0.389
 -0.373  -0.323  -0.298  -0.288  -0.282  -0.252

 Beta MOs
 -- Occupied --
*******-101.519 -10.281 -10.231 -10.214  -9.464  -9.432  -7.224
 -7.220  -7.218  -7.191  -7.187  -7.187  -0.848  -0.774  -0.734
 -0.710  -0.599  -0.502  -0.459  -0.452  -0.402  -0.396  -0.362
 -0.325  -0.313  -0.280  -0.275

          Ground-State Mulliken Net Atomic Charges

     Atom                 Charge (a.u.)    Spin (a.u.)
  --------------------------------------------------------
      1 Cl                   -0.088827       0.533362
      2 Cl                   -0.222905       0.745994
      3 C                    -0.141809      -0.026154
      4 C                    -0.131796       0.808230
      5 C                    -0.314318       0.002526
      6 H                     0.172697       0.005069
      7 H                     0.150460      -0.035410
      8 H                     0.153561      -0.033893
      9 H                     0.148760      -0.001051
     10 H                     0.140454       0.002684
     11 H                     0.133723      -0.001356
  --------------------------------------------------------
  Sum of atomic charges =    -0.000000

                    Cartesian Multipole Moments
 -----------------------------------------------------------------
    Charge (ESU x 10^10)
                 0.0000
    Dipole Moment (Debye)
         X      -1.6238      Y      -3.9466      Z      -2.3287
       Tot       4.8616
    Quadrupole Moments (Debye-Ang)
        XX     -43.7417     XY      -1.6110     YY     -48.7990
        XZ      -0.0666     YZ      -2.5812     ZZ     -45.5980

 Final energy is   -1038.22957221390
 **  OPTIMIZATION CONVERGED  **
 Total job time:  104.25s(wall), 1197.31s(cpu)
        *  Thank you very much for using Q-Chem.  Have a nice day.  *
