 Q-Chem 5.1, Q-Chem, Inc., Pleasanton, CA (2018)
 Q-Chem 5.1.1 for Intel X86 EM64T Linux

User input:
--------------------------------------------------------------

$comment
potential surface scanner
$end

$rem
JOBTYPE  PES_SCAN
UNRESTRICTED TRUE
SYM_IGNORE  TRUE
GEOM_OPT_MAX_CYCLES 400
SCF_MAX_CYCLES 400
METHOD   B3LYP
BASIS   6-31G**
PDB_PRINT 2
SCF_CONVERGENCE 6
THRESH 14
SCF_PRINT 1
$end
$molecule
0 3
Cl 0.826964 0.758376 0.946528
Cl -1.383438 1.928048 2.159615
C -0.358128 -0.393650 -0.228613
C -0.203943 0.127775 -1.562992
C 0.074483 -1.819932 0.025837
H -1.297467 -0.120704 0.248462
H -0.732130 1.023908 -1.867501
H 0.544193 -0.284312 -2.232842
H 1.081668 -2.004447 -0.356931
H 0.047442 -2.060167 1.089841
H -0.619345 -2.489497 -0.496600
$end
$scan
stre 2 4 4.200000 4.201000 0.100000
$end
--------------------------------------------------------------

   11   -1038.2311081338      7.87e-07  Convergence criterion met
 Total energy in the final basis set =    -1038.2311081338
   11   -1038.2304623453      8.28e-07  Convergence criterion met
 Total energy in the final basis set =    -1038.2304623453
   11   -1038.2309204978      7.60e-07  Convergence criterion met
 Total energy in the final basis set =    -1038.2309204978
   11   -1038.2311110970      7.30e-07  Convergence criterion met
 Total energy in the final basis set =    -1038.2311110970
   11   -1038.2311284746      7.30e-07  Convergence criterion met
 Total energy in the final basis set =    -1038.2311284746
   11   -1038.2311418044      7.36e-07  Convergence criterion met
 Total energy in the final basis set =    -1038.2311418044
   11   -1038.2311474259      7.44e-07  Convergence criterion met
 Total energy in the final basis set =    -1038.2311474259
   11   -1038.2311527577      7.54e-07  Convergence criterion met
   11   -1038.2311939021      7.44e-07  Convergence criterion met
 Total energy in the final basis set =    -1038.2311939021
   11   -1038.2312004176      7.27e-07  Convergence criterion met
 Total energy in the final basis set =    -1038.2312004176
   11   -1038.2312079096      7.33e-07  Convergence criterion met
 Total energy in the final basis set =    -1038.2312079096
   11   -1038.2312132043      7.36e-07  Convergence criterion met
 Total energy in the final basis set =    -1038.2312132043
   11   -1038.2312210102      7.43e-07  Convergence criterion met
 Total energy in the final basis set =    -1038.2312210102
   11   -1038.2312229870      7.47e-07  Convergence criterion met
 Total energy in the final basis set =    -1038.2312229870

             Standard Nuclear Orientation (Angstroms)
    I     Atom           X                Y                Z
 ----------------------------------------------------------------
    1      Cl      0.7742802282     0.6747500686     1.0292779918
    2      Cl     -1.3236638404     2.2305614508     1.9767305560
    3      C      -0.3737647201    -0.4396191023    -0.1910258122
    4      C      -0.2350386250     0.1458516201    -1.5030516670
    5      C       0.1006246125    -1.8648734240    -0.0068598197
    6      H      -1.3291577582    -0.2270490075     0.2862531695
    7      H      -0.7938188733     1.0358098769    -1.7684284554
    8      H       0.5365649299    -0.2031384890    -2.1819723413
    9      H       1.1195205100    -1.9954905617    -0.3810943798
   10      H       0.0663403150    -2.1643303796     1.0420402785
   11      H      -0.5615877787    -2.5270740523    -0.5770655204
 ----------------------------------------------------------------

   11   -1038.2312237101      7.49e-07  Convergence criterion met
 Total energy in the final basis set =    -1038.2312237101

                    Orbital Energies (a.u.)
 --------------------------------------------------------------

 Alpha MOs
 -- Occupied --
*******-101.529 -10.281 -10.241 -10.214  -9.475  -9.442  -7.239
 -7.234  -7.229  -7.213  -7.195  -7.195  -0.872  -0.798  -0.775
 -0.725  -0.609  -0.507  -0.469  -0.461  -0.408  -0.403  -0.391
 -0.370  -0.330  -0.296  -0.292  -0.289  -0.256

 Beta MOs
 -- Occupied --
*******-101.523 -10.281 -10.228 -10.214  -9.472  -9.436  -7.232
 -7.227  -7.226  -7.195  -7.191  -7.191  -0.858  -0.777  -0.736
 -0.708  -0.599  -0.501  -0.462  -0.453  -0.402  -0.398  -0.374
 -0.326  -0.320  -0.283  -0.279

          Ground-State Mulliken Net Atomic Charges

     Atom                 Charge (a.u.)    Spin (a.u.)
  --------------------------------------------------------
      1 Cl                   -0.049696       0.433226
      2 Cl                   -0.209034       0.772565
      3 C                    -0.168978      -0.066359
      4 C                    -0.148584       0.924394
      5 C                    -0.313338       0.005233
      6 H                     0.192787       0.010124
      7 H                     0.148960      -0.040314
      8 H                     0.132792      -0.040225
      9 H                     0.134627      -0.000919
     10 H                     0.145224       0.002003
     11 H                     0.135239       0.000273
  --------------------------------------------------------
  Sum of atomic charges =     0.000000

                    Cartesian Multipole Moments
 -----------------------------------------------------------------
    Charge (ESU x 10^10)
                 0.0000
    Dipole Moment (Debye)
         X       0.2427      Y      -3.5008      Z      -3.3889
       Tot       4.8785
    Quadrupole Moments (Debye-Ang)
        XX     -45.5268     XY       1.5651     YY     -47.9491
        XZ       1.5026     YZ      -4.9114     ZZ     -47.6680

 Final energy is   -1038.23122371011
 **  OPTIMIZATION CONVERGED  **
 Total job time:  73.78s(wall), 855.98s(cpu)
        *  Thank you very much for using Q-Chem.  Have a nice day.  *
