 Q-Chem 5.1, Q-Chem, Inc., Pleasanton, CA (2018)
 Q-Chem 5.1.1 for Intel X86 EM64T Linux

User input:
--------------------------------------------------------------

$comment
potential surface scanner
$end

$rem
JOBTYPE  PES_SCAN
UNRESTRICTED TRUE
SYM_IGNORE  TRUE
GEOM_OPT_MAX_CYCLES 400
SCF_MAX_CYCLES 400
METHOD   B3LYP
BASIS   6-31G**
PDB_PRINT 2
SCF_CONVERGENCE 6
THRESH 14
SCF_PRINT 1
$end
$molecule
0 3
Cl 0.427954 0.389661 1.472772
Cl -0.538705 2.851287 0.686881
C -0.513813 -0.611711 -0.024658
C -0.449601 0.249928 -1.174569
C 0.203481 -1.942652 -0.103129
H -1.499971 -0.668357 0.432633
H -1.188282 1.022633 -1.333273
H 0.420397 0.222496 -1.822938
H 1.226582 -1.817876 -0.466629
H 0.228766 -2.444464 0.866057
H -0.336518 -2.585545 -0.808341
$end
$scan
stre 2 4 3.100000 3.101000 0.100000
$end
--------------------------------------------------------------

   11   -1038.2299830403      6.85e-07  Convergence criterion met
 Total energy in the final basis set =    -1038.2299830403
   11   -1038.2288625091      7.19e-07  Convergence criterion met
 Total energy in the final basis set =    -1038.2288625091
   11   -1038.2291392331      7.34e-07  Convergence criterion met
 Total energy in the final basis set =    -1038.2291392331
   11   -1038.2292154252      7.36e-07  Convergence criterion met
 Total energy in the final basis set =    -1038.2292154252
   11   -1038.2292258707      7.36e-07  Convergence criterion met
 Total energy in the final basis set =    -1038.2292258707
   11   -1038.2292498501      7.37e-07  Convergence criterion met
 Total energy in the final basis set =    -1038.2292498501
   11   -1038.2292626929      7.39e-07  Convergence criterion met
 Total energy in the final basis set =    -1038.2292626929
   11   -1038.2292735243      7.42e-07  Convergence criterion met
 Total energy in the final basis set =    -1038.2292735243
   11   -1038.2292770263      7.42e-07  Convergence criterion met
 Total energy in the final basis set =    -1038.2292770263
   11   -1038.2292786897      7.42e-07  Convergence criterion met
 Total energy in the final basis set =    -1038.2292786897
   11   -1038.2292802390      7.40e-07  Convergence criterion met
 Total energy in the final basis set =    -1038.2292802390
   11   -1038.2292816717      7.39e-07  Convergence criterion met
 Total energy in the final basis set =    -1038.2292816717

             Standard Nuclear Orientation (Angstroms)
    I     Atom           X                Y                Z
 ----------------------------------------------------------------
    1      Cl      0.3778765867     0.3700331865     1.5207882563
    2      Cl     -0.4113151797     2.8299807304     0.5897925478
    3      C      -0.5353847589    -0.6218945456    -0.0196074049
    4      C      -0.4725484748     0.2637440890    -1.1482179920
    5      C       0.2121303470    -1.9349277796    -0.1081947596
    6      H      -1.5239199573    -0.7052791572     0.4278738178
    7      H      -1.2497923750     0.9903597028    -1.3360233968
    8      H       0.4161678020     0.2858290885    -1.7706571793
    9      H       1.2346600122    -1.7837906597    -0.4628883846
   10      H       0.2414526549    -2.4466626433     0.8557359878
   11      H      -0.3090366572    -2.5819920120    -0.8237954924
 ----------------------------------------------------------------

   11   -1038.2292825761      7.39e-07  Convergence criterion met
 Total energy in the final basis set =    -1038.2292825761

                    Orbital Energies (a.u.)
 --------------------------------------------------------------

 Alpha MOs
 -- Occupied --
*******-101.526 -10.281 -10.237 -10.216  -9.473  -9.439  -7.236
 -7.232  -7.225  -7.210  -7.192  -7.192  -0.869  -0.797  -0.775
 -0.724  -0.607  -0.507  -0.469  -0.457  -0.410  -0.400  -0.388
 -0.375  -0.326  -0.296  -0.290  -0.285  -0.251

 Beta MOs
 -- Occupied --
*******-101.520 -10.281 -10.225 -10.215  -9.469  -9.434  -7.229
 -7.224  -7.223  -7.192  -7.189  -7.189  -0.853  -0.775  -0.735
 -0.707  -0.598  -0.501  -0.462  -0.449  -0.403  -0.396  -0.369
 -0.328  -0.317  -0.281  -0.277

          Ground-State Mulliken Net Atomic Charges

     Atom                 Charge (a.u.)    Spin (a.u.)
  --------------------------------------------------------
      1 Cl                   -0.061928       0.476842
      2 Cl                   -0.219760       0.755777
      3 C                    -0.156917      -0.044723
      4 C                    -0.136273       0.875418
      5 C                    -0.312325       0.006657
      6 H                     0.175563       0.002037
      7 H                     0.160285      -0.037610
      8 H                     0.136409      -0.038692
      9 H                     0.139453      -0.001072
     10 H                     0.140185       0.005000
     11 H                     0.135309       0.000366
  --------------------------------------------------------
  Sum of atomic charges =    -0.000000

                    Cartesian Multipole Moments
 -----------------------------------------------------------------
    Charge (ESU x 10^10)
                 0.0000
    Dipole Moment (Debye)
         X      -0.6330      Y      -4.1464      Z      -2.3199
       Tot       4.7933
    Quadrupole Moments (Debye-Ang)
        XX     -43.9137     XY       0.5233     YY     -50.1528
        XZ       0.0097     YZ      -3.3031     ZZ     -45.5936

 Final energy is   -1038.22928257610
 **  OPTIMIZATION CONVERGED  **
 Total job time:  45.46s(wall), 532.40s(cpu)
        *  Thank you very much for using Q-Chem.  Have a nice day.  *
