 Q-Chem 5.1, Q-Chem, Inc., Pleasanton, CA (2018)
 Q-Chem 5.1.1 for Intel X86 EM64T Linux

User input:
--------------------------------------------------------------

$comment
potential surface scanner
$end

$rem
JOBTYPE  PES_SCAN
UNRESTRICTED TRUE
SYM_IGNORE  TRUE
GEOM_OPT_MAX_CYCLES 400
SCF_MAX_CYCLES 400
METHOD   B3LYP
BASIS   6-31G**
PDB_PRINT 2
SCF_CONVERGENCE 6
THRESH 14
SCF_PRINT 1
$end
$molecule
0 3
Cl 0.480410 1.176453 0.640965
Cl -0.675918 0.553860 3.191373
C -0.447027 -0.206717 -0.454091
C -0.051521 -0.007871 -1.838994
C -0.094714 -1.540185 0.171339
H -1.472026 0.103208 -0.253061
H -0.515422 0.762153 -2.444651
H 0.802566 -0.541131 -2.243422
H 0.960207 -1.780725 0.015230
H -0.303458 -1.533987 1.242465
H -0.702797 -2.319659 -0.302355
$end
$scan
stre 2 4 5.000000 5.001000 0.100000
$end
--------------------------------------------------------------

   12   -1038.2295126565      7.18e-07  Convergence criterion met
 Total energy in the final basis set =    -1038.2295126565
   12   -1038.2292257071      7.04e-07  Convergence criterion met
 Total energy in the final basis set =    -1038.2292257071
   12   -1038.2297617737      6.65e-07  Convergence criterion met
 Total energy in the final basis set =    -1038.2297617737
   12   -1038.2299604425      6.33e-07  Convergence criterion met
 Total energy in the final basis set =    -1038.2299604425
   12   -1038.2299710049      6.31e-07  Convergence criterion met
 Total energy in the final basis set =    -1038.2299710049
   12   -1038.2299867858      6.34e-07  Convergence criterion met
 Total energy in the final basis set =    -1038.2299867858
   12   -1038.2299961274      6.41e-07  Convergence criterion met
 Total energy in the final basis set =    -1038.2299961274
   12   -1038.2300031611      6.50e-07  Convergence criterion met
 Total energy in the final basis set =    -1038.2300031611
   12   -1038.2300053232      6.54e-07  Convergence criterion met
 Total energy in the final basis set =    -1038.2300053232

             Standard Nuclear Orientation (Angstroms)
    I     Atom           X                Y                Z
 ----------------------------------------------------------------
    1      Cl      0.5444888066     1.1613109650     0.6428626119
    2      Cl     -0.7535632707     0.5796623512     3.0933216366
    3      C      -0.4355091604    -0.2114720287    -0.4378351087
    4      C      -0.0685926520    -0.0020133024    -1.8252628934
    5      C      -0.0818300237    -1.5499344484     0.1731670096
    6      H      -1.4479288557     0.1153610022    -0.2032625926
    7      H      -0.5364906797     0.7798718476    -2.4124307593
    8      H       0.7702871203    -0.5397917586    -2.2550263354
    9      H       0.9720204178    -1.7908899501     0.0110407415
   10      H      -0.2897507439    -1.5527193649     1.2441349336
   11      H      -0.6928309586    -2.3239863130    -0.3059112438
 ----------------------------------------------------------------

   12   -1038.2300059556      6.55e-07  Convergence criterion met
 Total energy in the final basis set =    -1038.2300059556

                    Orbital Energies (a.u.)
 --------------------------------------------------------------

 Alpha MOs
 -- Occupied --
*******-101.535 -10.281 -10.243 -10.206  -9.473  -9.447  -7.237
 -7.231  -7.226  -7.219  -7.200  -7.200  -0.870  -0.796  -0.780
 -0.721  -0.608  -0.505  -0.465  -0.458  -0.405  -0.396  -0.392
 -0.367  -0.323  -0.302  -0.298  -0.296  -0.256

 Beta MOs
 -- Occupied --
*******-101.529 -10.282 -10.230 -10.206  -9.470  -9.442  -7.230
 -7.224  -7.224  -7.201  -7.197  -7.197  -0.856  -0.774  -0.741
 -0.703  -0.598  -0.500  -0.459  -0.450  -0.399  -0.393  -0.372
 -0.325  -0.315  -0.287  -0.283

          Ground-State Mulliken Net Atomic Charges

     Atom                 Charge (a.u.)    Spin (a.u.)
  --------------------------------------------------------
      1 Cl                   -0.057998       0.401257
      2 Cl                   -0.190101       0.789170
      3 C                    -0.168383      -0.072252
      4 C                    -0.152139       0.949668
      5 C                    -0.313945       0.006332
      6 H                     0.184032       0.009461
      7 H                     0.139072      -0.041415
      8 H                     0.135472      -0.041264
      9 H                     0.131886      -0.000931
     10 H                     0.162683       0.001847
     11 H                     0.129421      -0.001873
  --------------------------------------------------------
  Sum of atomic charges =    -0.000000

                    Cartesian Multipole Moments
 -----------------------------------------------------------------
    Charge (ESU x 10^10)
                 0.0000
    Dipole Moment (Debye)
         X      -0.2883      Y      -1.9519      Z      -4.2666
       Tot       4.7007
    Quadrupole Moments (Debye-Ang)
        XX     -44.6543     XY      -0.2339     YY     -45.1291
        XZ       1.1183     YZ      -2.7699     ZZ     -50.2180

 Final energy is   -1038.23000595563
 **  OPTIMIZATION CONVERGED  **
 Total job time:  39.12s(wall), 442.42s(cpu)
        *  Thank you very much for using Q-Chem.  Have a nice day.  *
