 Q-Chem 5.1, Q-Chem, Inc., Pleasanton, CA (2018)
 Q-Chem 5.1.1 for Intel X86 EM64T Linux

User input:
--------------------------------------------------------------

$comment
potential surface scanner
$end

$rem
JOBTYPE  PES_SCAN
UNRESTRICTED TRUE
SYM_IGNORE  TRUE
GEOM_OPT_MAX_CYCLES 400
SCF_MAX_CYCLES 400
METHOD   B3LYP
BASIS   6-31G**
PDB_PRINT 2
SCF_CONVERGENCE 6
THRESH 14
SCF_PRINT 1
$end
$molecule
0 3
Cl 0.049758 0.442493 2.664530
Cl 0.155781 1.864324 0.301186
C -0.772804 -0.774720 -0.433604
C -0.555268 0.463381 -1.092287
C 0.289682 -1.786627 -0.209075
H -1.728929 -0.922840 0.062529
H -1.431701 1.018875 -1.410581
H 0.283498 0.517181 -1.781107
H 1.157180 -1.631610 -0.856433
H 0.626589 -1.722037 0.836302
H -0.093500 -2.803022 -0.356659
$end
$scan
stre 2 4 2.000000 2.001000 0.100000
$end
--------------------------------------------------------------

   11   -1038.2354125111      6.57e-07  Convergence criterion met
 Total energy in the final basis set =    -1038.2354125111
   11   -1038.2345935177      6.97e-07  Convergence criterion met
 Total energy in the final basis set =    -1038.2345935177
   11   -1038.2350177675      7.04e-07  Convergence criterion met
 Total energy in the final basis set =    -1038.2350177675
   11   -1038.2352464760      7.15e-07  Convergence criterion met
 Total energy in the final basis set =    -1038.2352464760
   11   -1038.2352529561      7.16e-07  Convergence criterion met
 Total energy in the final basis set =    -1038.2352529561
   11   -1038.2352592168      7.15e-07  Convergence criterion met
 Total energy in the final basis set =    -1038.2352592168
   11   -1038.2352620144      7.14e-07  Convergence criterion met
 Total energy in the final basis set =    -1038.2352620144
   11   -1038.2352691585      7.09e-07  Convergence criterion met
   11   -1038.2352738696      7.07e-07  Convergence criterion met
 Total energy in the final basis set =    -1038.2352738696
   11   -1038.2352780281      7.07e-07  Convergence criterion met
 Total energy in the final basis set =    -1038.2352780281
   11   -1038.2352818459      7.11e-07  Convergence criterion met
 Total energy in the final basis set =    -1038.2352818459
   11   -1038.2352859094      7.17e-07  Convergence criterion met
 Total energy in the final basis set =    -1038.2352859094
   11   -1038.2352887346      7.24e-07  Convergence criterion met
 Total energy in the final basis set =    -1038.2352887346
   11   -1038.2352903130      7.27e-07  Convergence criterion met
 Total energy in the final basis set =    -1038.2352903130

             Standard Nuclear Orientation (Angstroms)
    I     Atom           X                Y                Z
 ----------------------------------------------------------------
    1      Cl     -0.0192241986     0.4595051816     2.6804752894
    2      Cl      0.2070004097     1.7991939852     0.2621610624
    3      C      -0.7763664868    -0.7802282853    -0.4374247668
    4      C      -0.5421738551     0.4949626020    -1.0560644215
    5      C       0.2951510524    -1.7844401703    -0.2129735132
    6      H      -1.7348272740    -0.9351542367     0.0512427653
    7      H      -1.4295797859     1.0359308318    -1.3735884748
    8      H       0.2555209061     0.5186260232    -1.7960773562
    9      H       1.1470809005    -1.6413480736    -0.8845269742
   10      H       0.6619444819    -1.6958690504     0.8210947813
   11      H      -0.0842401502    -2.8057808076    -0.3295173917
 ----------------------------------------------------------------

   11   -1038.2352911908      7.27e-07  Convergence criterion met
 Total energy in the final basis set =    -1038.2352911908

                    Orbital Energies (a.u.)
 --------------------------------------------------------------

 Alpha MOs
 -- Occupied --
*******-101.529 -10.269 -10.242 -10.203  -9.475  -9.442  -7.239
 -7.234  -7.227  -7.213  -7.195  -7.195  -0.865  -0.805  -0.779
 -0.715  -0.604  -0.508  -0.464  -0.450  -0.409  -0.405  -0.391
 -0.375  -0.324  -0.296  -0.292  -0.289  -0.238

 Beta MOs
 -- Occupied --
*******-101.524 -10.269 -10.231 -10.204  -9.471  -9.437  -7.232
 -7.226  -7.225  -7.195  -7.192  -7.192  -0.846  -0.783  -0.740
 -0.708  -0.589  -0.503  -0.458  -0.430  -0.401  -0.393  -0.385
 -0.327  -0.316  -0.283  -0.279

          Ground-State Mulliken Net Atomic Charges

     Atom                 Charge (a.u.)    Spin (a.u.)
  --------------------------------------------------------
      1 Cl                   -0.209040       0.766572
      2 Cl                   -0.052258       0.450768
      3 C                     0.004085       0.826476
      4 C                    -0.295842      -0.035115
      5 C                    -0.356244      -0.059996
      6 H                     0.135165      -0.035556
      7 H                     0.177048       0.003374
      8 H                     0.172904       0.007055
      9 H                     0.119396       0.005048
     10 H                     0.174725       0.051529
     11 H                     0.130061       0.019846
  --------------------------------------------------------
  Sum of atomic charges =     0.000000

                    Cartesian Multipole Moments
 -----------------------------------------------------------------
    Charge (ESU x 10^10)
                 0.0000
    Dipole Moment (Debye)
         X      -0.8913      Y      -2.0272      Z      -3.9214
       Tot       4.5035
    Quadrupole Moments (Debye-Ang)
        XX     -43.6774     XY      -0.5084     YY     -44.8991
        XZ       0.3406     YZ      -3.3243     ZZ     -49.5635

 Final energy is   -1038.23529119084
 **  OPTIMIZATION CONVERGED  **
 Total job time:  53.76s(wall), 615.40s(cpu)
        *  Thank you very much for using Q-Chem.  Have a nice day.  *
