 Q-Chem 5.1, Q-Chem, Inc., Pleasanton, CA (2018)
 Q-Chem 5.1.1 for Intel X86 EM64T Linux

User input:
--------------------------------------------------------------

$comment
potential surface scanner
$end

$rem
JOBTYPE  PES_SCAN
UNRESTRICTED TRUE
SYM_IGNORE  TRUE
GEOM_OPT_MAX_CYCLES 400
SCF_MAX_CYCLES 400
METHOD   B3LYP
BASIS   6-31G**
PDB_PRINT 2
SCF_CONVERGENCE 6
THRESH 14
SCF_PRINT 1
$end
$molecule
0 1
Cl -1.458281 1.389321 -0.019814
Cl 2.460531 -0.241218 1.420550
C -0.756587 -0.169216 -0.611491
C 0.585704 -0.000890 -1.161554
C -0.882946 -1.288780 0.436977
H -1.377447 -0.452604 -1.484566
H 1.107259 -0.875624 -1.538855
H 1.017166 0.975414 -1.349983
H -0.257211 -1.041536 1.296948
H -1.928302 -1.398446 0.729765
H -0.529590 -2.231022 0.006822
$end
$scan
stre 2 4 3.300000 3.301000 0.100000
$end
--------------------------------------------------------------

   11   -1038.2377445543      4.61e-07  Convergence criterion met
 Total energy in the final basis set =    -1038.2377445543
   12   -1038.2324718341      2.26e-07  Convergence criterion met
 Total energy in the final basis set =    -1038.2324718341
   12   -1038.2324007140      2.37e-07  Convergence criterion met
 Total energy in the final basis set =    -1038.2324007140
   12   -1038.2324271397      2.44e-07  Convergence criterion met
 Total energy in the final basis set =    -1038.2324271397
   12   -1038.2324288091      2.44e-07  Convergence criterion met
 Total energy in the final basis set =    -1038.2324288091
   12   -1038.2324329185      2.42e-07  Convergence criterion met
 Total energy in the final basis set =    -1038.2324329185
   12   -1038.2324339971      2.42e-07  Convergence criterion met
 Total energy in the final basis set =    -1038.2324339971
   12   -1038.2324371612      2.42e-07  Convergence criterion met
   12   -1038.2324424962      2.43e-07  Convergence criterion met
 Total energy in the final basis set =    -1038.2324424962
   12   -1038.2324439480      2.42e-07  Convergence criterion met
 Total energy in the final basis set =    -1038.2324439480
   12   -1038.2324452976      2.40e-07  Convergence criterion met
 Total energy in the final basis set =    -1038.2324452976
   12   -1038.2324465999      2.39e-07  Convergence criterion met
 Total energy in the final basis set =    -1038.2324465999
   12   -1038.2324478388      2.38e-07  Convergence criterion met
 Total energy in the final basis set =    -1038.2324478388
   12   -1038.2324489058      2.39e-07  Convergence criterion met
 Total energy in the final basis set =    -1038.2324489058

             Standard Nuclear Orientation (Angstroms)
    I     Atom           X                Y                Z
 ----------------------------------------------------------------
    1      Cl     -1.4926662157     1.3867261913    -0.0559011632
    2      Cl      2.4985181783    -0.3199843611     1.4773667336
    3      C      -0.7686252159    -0.1684207280    -0.6263445020
    4      C       0.5693777418     0.0100250073    -1.1796068391
    5      C      -0.8727120465    -1.2750510395     0.4423926873
    6      H      -1.3892198182    -0.4798173963    -1.4896724147
    7      H       1.0921551990    -0.8584827561    -1.5696040468
    8      H       1.0107196432     0.9880586432    -1.3337326626
    9      H      -0.2502401248    -1.0024083452     1.2971093047
   10      H      -1.9163771904    -1.3987162676     0.7355874893
   11      H      -0.5006341509    -2.2165299481     0.0272044135
 ----------------------------------------------------------------

   12   -1038.2324495607      2.40e-07  Convergence criterion met
 Total energy in the final basis set =    -1038.2324495607

                    Orbital Energies (a.u.)
 --------------------------------------------------------------

 Alpha MOs
 -- Occupied --
*******-101.478 -10.325 -10.315 -10.225  -9.485  -9.389  -7.250
 -7.239  -7.239  -7.153  -7.144  -7.144  -0.915  -0.809  -0.744
 -0.713  -0.635  -0.536  -0.518  -0.484  -0.435  -0.418  -0.406
 -0.335  -0.331  -0.262  -0.248  -0.247

 Beta MOs
 -- Occupied --
*******-101.478 -10.325 -10.315 -10.225  -9.485  -9.389  -7.250
 -7.239  -7.239  -7.153  -7.144  -7.144  -0.915  -0.809  -0.744
 -0.713  -0.635  -0.536  -0.518  -0.484  -0.435  -0.418  -0.406
 -0.335  -0.331  -0.262  -0.248  -0.247

          Ground-State Mulliken Net Atomic Charges

     Atom                 Charge (a.u.)    Spin (a.u.)
  --------------------------------------------------------
      1 Cl                   -0.017922       0.000000
      2 Cl                   -0.468209       0.000000
      3 C                    -0.236013       0.000000
      4 C                    -0.061994      -0.000000
      5 C                    -0.302728       0.000000
      6 H                     0.202219      -0.000000
      7 H                     0.197992      -0.000000
      8 H                     0.214429      -0.000000
      9 H                     0.200712      -0.000000
     10 H                     0.139853      -0.000000
     11 H                     0.131662       0.000000
  --------------------------------------------------------
  Sum of atomic charges =    -0.000000

                    Cartesian Multipole Moments
 -----------------------------------------------------------------
    Charge (ESU x 10^10)
                 0.0000
    Dipole Moment (Debye)
         X      -4.2852      Y      -1.2868      Z      -5.5362
       Tot       7.1182
    Quadrupole Moments (Debye-Ang)
        XX     -56.9265     XY       3.9327     YY     -44.1960
        XZ      -8.4161     YZ       1.1654     ZZ     -44.7278

 Final energy is   -1038.23244956071
 **  OPTIMIZATION CONVERGED  **
 Total job time:  62.40s(wall), 734.95s(cpu)
        *  Thank you very much for using Q-Chem.  Have a nice day.  *
