 Q-Chem 5.1, Q-Chem, Inc., Pleasanton, CA (2018)
 Q-Chem 5.1.1 for Intel X86 EM64T Linux

User input:
--------------------------------------------------------------

$comment
potential surface scanner
$end

$rem
JOBTYPE  PES_SCAN
UNRESTRICTED TRUE
SYM_IGNORE  TRUE
GEOM_OPT_MAX_CYCLES 400
SCF_MAX_CYCLES 400
METHOD   B3LYP
BASIS   6-31G**
PDB_PRINT 2
SCF_CONVERGENCE 6
THRESH 14
SCF_PRINT 1
$end
$molecule
0 1
Cl -1.301881 1.383377 0.166613
Cl 2.134649 0.074415 0.871516
C -0.664735 -0.178926 -0.511625
C 0.749533 -0.037385 -0.961229
C -0.938306 -1.340428 0.435222
H -1.231124 -0.320331 -1.445873
H 1.190360 -0.927998 -1.400337
H 1.042729 0.902102 -1.415166
H -0.405528 -1.188662 1.374831
H -2.008684 -1.427604 0.630225
H -0.586715 -2.273160 -0.019374
$end
$scan
stre 2 4 2.400000 2.401000 0.100000
$end
--------------------------------------------------------------

    9   -1038.3067544001      8.70e-07  Convergence criterion met
 Total energy in the final basis set =    -1038.3067544001
    9   -1038.2973780578      9.55e-07  Convergence criterion met
 Total energy in the final basis set =    -1038.2973780578
    9   -1038.2972561144      9.59e-07  Convergence criterion met
 Total energy in the final basis set =    -1038.2972561144
    9   -1038.2973749176      9.62e-07  Convergence criterion met
 Total energy in the final basis set =    -1038.2973749176
    9   -1038.2973783676      9.63e-07  Convergence criterion met
 Total energy in the final basis set =    -1038.2973783676
    9   -1038.2973797677      9.63e-07  Convergence criterion met
 Total energy in the final basis set =    -1038.2973797677

             Standard Nuclear Orientation (Angstroms)
    I     Atom           X                Y                Z
 ----------------------------------------------------------------
    1      Cl     -1.3109855077     1.3849623844     0.1537385672
    2      Cl      2.1724288244     0.0597230611     0.9270432265
    3      C      -0.6751837949    -0.1779067263    -0.5202214964
    4      C       0.7279215179    -0.0379665279    -0.9870765698
    5      C      -0.9353511345    -1.3380741544     0.4332634264
    6      H      -1.2500326797    -0.3270860766    -1.4497715378
    7      H       1.1863860970    -0.9294697046    -1.4045584106
    8      H       1.0435034450     0.9080768088    -1.4104850901
    9      H      -0.3902521260    -1.1785900672     1.3645149755
   10      H      -2.0032082545    -1.4273868605     0.6401022636
   11      H      -0.5849283871    -2.2708821369    -0.0217463544
 ----------------------------------------------------------------

    9   -1038.2973806072      9.63e-07  Convergence criterion met
 Total energy in the final basis set =    -1038.2973806072

                    Orbital Energies (a.u.)
 --------------------------------------------------------------

 Alpha MOs
 -- Occupied --
*******-101.511 -10.300 -10.293 -10.210  -9.466  -9.423  -7.231
 -7.220  -7.220  -7.187  -7.178  -7.178  -0.893  -0.791  -0.753
 -0.724  -0.612  -0.507  -0.503  -0.467  -0.416  -0.401  -0.392
 -0.326  -0.316  -0.310  -0.279  -0.277

 Beta MOs
 -- Occupied --
*******-101.511 -10.300 -10.293 -10.210  -9.466  -9.423  -7.231
 -7.220  -7.220  -7.187  -7.178  -7.178  -0.893  -0.791  -0.753
 -0.724  -0.612  -0.507  -0.503  -0.467  -0.416  -0.401  -0.392
 -0.326  -0.316  -0.310  -0.279  -0.277

          Ground-State Mulliken Net Atomic Charges

     Atom                 Charge (a.u.)    Spin (a.u.)
  --------------------------------------------------------
      1 Cl                   -0.041819       0.000000
      2 Cl                   -0.318487       0.000000
      3 C                    -0.195433      -0.000000
      4 C                    -0.133327       0.000000
      5 C                    -0.303084       0.000000
      6 H                     0.179838       0.000000
      7 H                     0.185495       0.000000
      8 H                     0.197552       0.000000
      9 H                     0.176250       0.000000
     10 H                     0.133363       0.000000
     11 H                     0.119651      -0.000000
  --------------------------------------------------------
  Sum of atomic charges =    -0.000000

                    Cartesian Multipole Moments
 -----------------------------------------------------------------
    Charge (ESU x 10^10)
                 0.0000
    Dipole Moment (Debye)
         X      -2.2656      Y      -2.0380      Z      -3.5371
       Tot       4.6688
    Quadrupole Moments (Debye-Ang)
        XX     -51.5948     XY       1.8300     YY     -44.6617
        XZ      -3.6704     YZ      -0.0448     ZZ     -42.5319

 Final energy is   -1038.29738060723
 **  OPTIMIZATION CONVERGED  **
 Total job time:  23.02s(wall), 264.40s(cpu)
        *  Thank you very much for using Q-Chem.  Have a nice day.  *
