 Q-Chem 5.1, Q-Chem, Inc., Pleasanton, CA (2018)
 Q-Chem 5.1.1 for Intel X86 EM64T Linux

User input:
--------------------------------------------------------------

$comment
potential surface scanner
$end

$rem
JOBTYPE  PES_SCAN
UNRESTRICTED TRUE
SYM_IGNORE  TRUE
GEOM_OPT_MAX_CYCLES 400
SCF_MAX_CYCLES 400
METHOD   B3LYP
BASIS   6-31G**
PDB_PRINT 2
SCF_CONVERGENCE 6
THRESH 14
SCF_PRINT 1
$end
$molecule
0 1
Cl -1.271337 1.376813 0.223864
Cl 1.954052 0.118637 0.611689
C -0.615377 -0.179542 -0.477229
C 0.860334 -0.027482 -0.823928
C -0.945393 -1.347408 0.440549
H -1.141317 -0.286818 -1.431387
H 1.187714 -0.914977 -1.371435
H 1.028018 0.858113 -1.436294
H -0.469897 -1.223340 1.415209
H -2.024892 -1.429544 0.581904
H -0.581605 -2.279052 -0.008144
$end
$scan
stre 2 4 1.500000 1.501000 0.100000
$end
--------------------------------------------------------------

    9   -1038.3416009812      3.04e-07  Convergence criterion met
 Total energy in the final basis set =    -1038.3416009812
    9   -1038.3314265140      3.14e-07  Convergence criterion met
 Total energy in the final basis set =    -1038.3314265140
    9   -1038.2896821713      3.90e-07  Convergence criterion met
 Total energy in the final basis set =    -1038.2896821713
    9   -1038.2867788061      4.19e-07  Convergence criterion met
 Total energy in the final basis set =    -1038.2867788061
    9   -1038.2880581959      4.64e-07  Convergence criterion met
 Total energy in the final basis set =    -1038.2880581959
    9   -1038.2881088377      4.63e-07  Convergence criterion met
 Total energy in the final basis set =    -1038.2881088377
    9   -1038.2881407751      4.64e-07  Convergence criterion met
 Total energy in the final basis set =    -1038.2881407751
    9   -1038.2881420270      4.64e-07  Convergence criterion met
 Total energy in the final basis set =    -1038.2881420270
    9   -1038.2881430753      4.64e-07  Convergence criterion met
 Total energy in the final basis set =    -1038.2881430753

             Standard Nuclear Orientation (Angstroms)
    I     Atom           X                Y                Z
 ----------------------------------------------------------------
    1      Cl     -1.2649157459     1.3741165212     0.2449636479
    2      Cl      1.8472321946     0.1098638588     0.4515854148
    3      C      -0.5881748830    -0.1783487874    -0.4607161300
    4      C       0.9348816207    -0.0165582455    -0.7323208162
    5      C      -0.9445067128    -1.3468716087     0.4452815475
    6      H      -1.0815792813    -0.2752522753    -1.4303155059
    7      H       1.1641521263    -0.8948084990    -1.3636775015
    8      H       1.0104135948     0.8311733030    -1.4307200960
    9      H      -0.5050551273    -1.2264569940     1.4382124709
   10      H      -2.0274505727    -1.4336145312     0.5548083418
   11      H      -0.5646972133    -2.2778427417     0.0076966268
 ----------------------------------------------------------------

    9   -1038.2881435070      4.63e-07  Convergence criterion met
 Total energy in the final basis set =    -1038.2881435070

                    Orbital Energies (a.u.)
 --------------------------------------------------------------

 Alpha MOs
 -- Occupied --
*******-101.530 -10.262 -10.244 -10.196  -9.470  -9.446  -7.233
 -7.223  -7.223  -7.210  -7.200  -7.200  -0.955  -0.851  -0.751
 -0.685  -0.585  -0.505  -0.496  -0.468  -0.439  -0.402  -0.389
 -0.371  -0.309  -0.298  -0.289  -0.286

 Beta MOs
 -- Occupied --
*******-101.530 -10.262 -10.244 -10.196  -9.470  -9.446  -7.233
 -7.223  -7.223  -7.210  -7.200  -7.200  -0.955  -0.851  -0.751
 -0.685  -0.585  -0.505  -0.496  -0.468  -0.439  -0.402  -0.389
 -0.371  -0.309  -0.298  -0.289  -0.286

          Ground-State Mulliken Net Atomic Charges

     Atom                 Charge (a.u.)    Spin (a.u.)
  --------------------------------------------------------
      1 Cl                   -0.096680       0.000000
      2 Cl                    0.047849      -0.000000
      3 C                    -0.181717      -0.000000
      4 C                    -0.292047       0.000000
      5 C                    -0.306793       0.000000
      6 H                     0.151931       0.000000
      7 H                     0.135783      -0.000000
      8 H                     0.151457      -0.000000
      9 H                     0.143928      -0.000000
     10 H                     0.132327       0.000000
     11 H                     0.113961      -0.000000
  --------------------------------------------------------
  Sum of atomic charges =     0.000000

                    Cartesian Multipole Moments
 -----------------------------------------------------------------
    Charge (ESU x 10^10)
                 0.0000
    Dipole Moment (Debye)
         X       0.1454      Y      -2.0484      Z      -1.5799
       Tot       2.5910
    Quadrupole Moments (Debye-Ang)
        XX     -46.7809     XY       2.1052     YY     -45.3692
        XZ      -0.5971     YZ      -0.2052     ZZ     -42.8944

 Final energy is   -1038.28814350700
 **  OPTIMIZATION CONVERGED  **
 Total job time:  33.96s(wall), 386.88s(cpu)
        *  Thank you very much for using Q-Chem.  Have a nice day.  *
