 Q-Chem 5.1, Q-Chem, Inc., Pleasanton, CA (2018)
 Q-Chem 5.1.1 for Intel X86 EM64T Linux

User input:
--------------------------------------------------------------

$comment
potential surface scanner
$end

$rem
JOBTYPE  PES_SCAN
UNRESTRICTED TRUE
SYM_IGNORE  TRUE
GEOM_OPT_MAX_CYCLES 400
SCF_MAX_CYCLES 400
METHOD   B3LYP
BASIS   6-31G**
PDB_PRINT 2
SCF_CONVERGENCE 6
THRESH 14
SCF_PRINT 1
$end
$molecule
0 3
Cl 0.695533 0.487613 1.291775
Cl -1.090598 2.571787 1.075462
C -0.417523 -0.532031 -0.067213
C -0.332185 0.238722 -1.278602
C 0.148968 -1.934876 -0.073491
H -1.371072 -0.438488 0.449233
H -0.945835 1.119887 -1.414828
H 0.455761 0.034606 -1.997075
H 1.166262 -1.952587 -0.473025
H 0.153557 -2.368863 0.928115
H -0.482574 -2.560370 -0.715547
$end
$scan
stre 2 4 3.300000 3.301000 0.100000
$end
--------------------------------------------------------------

   11   -1038.2311559552      7.94e-07  Convergence criterion met
 Total energy in the final basis set =    -1038.2311559552
   11   -1038.2299949156      7.86e-07  Convergence criterion met
 Total energy in the final basis set =    -1038.2299949156
   11   -1038.2303849560      7.88e-07  Convergence criterion met
 Total energy in the final basis set =    -1038.2303849560
   11   -1038.2305042115      7.89e-07  Convergence criterion met
 Total energy in the final basis set =    -1038.2305042115
   11   -1038.2305210764      7.92e-07  Convergence criterion met
 Total energy in the final basis set =    -1038.2305210764
   11   -1038.2305358330      7.97e-07  Convergence criterion met
 Total energy in the final basis set =    -1038.2305358330
   11   -1038.2305423217      8.00e-07  Convergence criterion met
 Total energy in the final basis set =    -1038.2305423217
   11   -1038.2305475524      8.01e-07  Convergence criterion met
 Total energy in the final basis set =    -1038.2305475524
   11   -1038.2305500597      7.99e-07  Convergence criterion met
 Total energy in the final basis set =    -1038.2305500597
   11   -1038.2305511012      7.95e-07  Convergence criterion met
 Total energy in the final basis set =    -1038.2305511012

             Standard Nuclear Orientation (Angstroms)
    I     Atom           X                Y                Z
 ----------------------------------------------------------------
    1      Cl      0.6883052836     0.4729549545     1.3192046365
    2      Cl     -1.0518323549     2.5686475822     0.9836667283
    3      C      -0.4252747353    -0.5376960340    -0.0564313635
    4      C      -0.3402847458     0.2506305364    -1.2547475362
    5      C       0.1508593344    -1.9361826603    -0.0789964813
    6      H      -1.3782637841    -0.4544178152     0.4624792294
    7      H      -0.9711456796     1.1181870836    -1.3938956192
    8      H       0.4583010340     0.0658356196    -1.9668820922
    9      H       1.1666204546    -1.9425132904    -0.4825602897
   10      H       0.1619242412    -2.3806379185     0.9180040673
   11      H      -0.4789150482    -2.5594080579    -0.7250372793
 ----------------------------------------------------------------

   11   -1038.2305515866      7.92e-07  Convergence criterion met
 Total energy in the final basis set =    -1038.2305515866

                    Orbital Energies (a.u.)
 --------------------------------------------------------------

 Alpha MOs
 -- Occupied --
*******-101.527 -10.280 -10.237 -10.216  -9.475  -9.440  -7.238
 -7.234  -7.228  -7.211  -7.193  -7.193  -0.871  -0.798  -0.775
 -0.724  -0.607  -0.506  -0.468  -0.459  -0.409  -0.402  -0.389
 -0.375  -0.329  -0.296  -0.292  -0.286  -0.255

 Beta MOs
 -- Occupied --
*******-101.522 -10.281 -10.225 -10.216  -9.471  -9.435  -7.231
 -7.226  -7.225  -7.194  -7.190  -7.190  -0.855  -0.777  -0.737
 -0.708  -0.598  -0.500  -0.461  -0.452  -0.402  -0.396  -0.371
 -0.328  -0.319  -0.283  -0.279

          Ground-State Mulliken Net Atomic Charges

     Atom                 Charge (a.u.)    Spin (a.u.)
  --------------------------------------------------------
      1 Cl                   -0.055370       0.473923
      2 Cl                   -0.225140       0.749509
      3 C                    -0.161164      -0.056232
      4 C                    -0.138947       0.898114
      5 C                    -0.316811       0.005433
      6 H                     0.187369       0.005789
      7 H                     0.163366      -0.039183
      8 H                     0.130583      -0.039308
      9 H                     0.137231      -0.000998
     10 H                     0.141896       0.002657
     11 H                     0.136988       0.000297
  --------------------------------------------------------
  Sum of atomic charges =    -0.000000

                    Cartesian Multipole Moments
 -----------------------------------------------------------------
    Charge (ESU x 10^10)
                -0.0000
    Dipole Moment (Debye)
         X      -0.0061      Y      -3.9164      Z      -2.5505
       Tot       4.6737
    Quadrupole Moments (Debye-Ang)
        XX     -45.0633     XY       1.6086     YY     -49.1386
        XZ       0.4811     YZ      -3.7652     ZZ     -45.7812

 Final energy is   -1038.23055158658
 **  OPTIMIZATION CONVERGED  **
 Total job time:  38.81s(wall), 455.42s(cpu)
        *  Thank you very much for using Q-Chem.  Have a nice day.  *
