 Q-Chem 5.1, Q-Chem, Inc., Pleasanton, CA (2018)
 Q-Chem 5.1.1 for Intel X86 EM64T Linux

User input:
--------------------------------------------------------------

$comment
potential surface scanner
$end

$rem
JOBTYPE  PES_SCAN
UNRESTRICTED TRUE
SYM_IGNORE  TRUE
GEOM_OPT_MAX_CYCLES 400
SCF_MAX_CYCLES 400
METHOD   B3LYP
BASIS   6-31G**
PDB_PRINT 2
SCF_CONVERGENCE 6
THRESH 14
SCF_PRINT 1
$end
$molecule
0 1
Cl -1.627447 1.362961 -0.193864
Cl 2.557779 -0.653572 1.552903
C -0.800474 -0.172249 -0.671868
C 0.531889 0.060223 -1.210476
C -0.834645 -1.218702 0.471583
H -1.397839 -0.588141 -1.503843
H 1.078469 -0.777132 -1.634771
H 0.973996 1.048469 -1.273079
H -0.242498 -0.849283 1.311458
H -1.873633 -1.395525 0.755411
H -0.385299 -2.151650 0.121344
$end
$scan
stre 2 4 3.600000 3.601000 0.100000
$end
--------------------------------------------------------------

   12   -1038.2232931632      3.83e-07  Convergence criterion met
 Total energy in the final basis set =    -1038.2232931632
   13   -1038.2193091237      1.40e-07  Convergence criterion met
 Total energy in the final basis set =    -1038.2193091237
   13   -1038.2192680119      1.37e-07  Convergence criterion met
 Total energy in the final basis set =    -1038.2192680119
   13   -1038.2192917418      1.36e-07  Convergence criterion met
 Total energy in the final basis set =    -1038.2192917418
   13   -1038.2192939165      1.38e-07  Convergence criterion met
 Total energy in the final basis set =    -1038.2192939165
   13   -1038.2192997106      1.44e-07  Convergence criterion met
 Total energy in the final basis set =    -1038.2192997106
   13   -1038.2193014499      1.47e-07  Convergence criterion met
 Total energy in the final basis set =    -1038.2193014499
   13   -1038.2193050231      1.50e-07  Convergence criterion met
   13   -1038.2193107899      1.42e-07  Convergence criterion met
 Total energy in the final basis set =    -1038.2193107899
   13   -1038.2193123413      1.41e-07  Convergence criterion met
 Total energy in the final basis set =    -1038.2193123413
   13   -1038.2193141571      1.40e-07  Convergence criterion met
 Total energy in the final basis set =    -1038.2193141571
   13   -1038.2193161907      1.40e-07  Convergence criterion met
 Total energy in the final basis set =    -1038.2193161907
   13   -1038.2193181927      1.41e-07  Convergence criterion met
 Total energy in the final basis set =    -1038.2193181927
   13   -1038.2193194833      1.41e-07  Convergence criterion met
 Total energy in the final basis set =    -1038.2193194833

             Standard Nuclear Orientation (Angstroms)
    I     Atom           X                Y                Z
 ----------------------------------------------------------------
    1      Cl     -1.6621326612     1.3539625835    -0.2325558779
    2      Cl      2.5778048985    -0.7369462780     1.6108507482
    3      C      -0.8110147573    -0.1749733804    -0.6881872402
    4      C       0.5171363801     0.0720537851    -1.2280157046
    5      C      -0.8202560170    -1.2023875202     0.4775441498
    6      H      -1.4059107715    -0.6189683267    -1.5060485689
    7      H       1.0612220826    -0.7525301740    -1.6798853726
    8      H       0.9675305245     1.0584781701    -1.2462864686
    9      H      -0.2268560436    -0.8119542991     1.3069238635
   10      H      -1.8556372204    -1.3863165846     0.7706462232
   11      H      -0.3615884148    -2.1350189758     0.1398122480
 ----------------------------------------------------------------

   13   -1038.2193199790      1.41e-07  Convergence criterion met
 Total energy in the final basis set =    -1038.2193199790

                    Orbital Energies (a.u.)
 --------------------------------------------------------------

 Alpha MOs
 -- Occupied --
*******-101.472 -10.327 -10.319 -10.230  -9.490  -9.384  -7.254
 -7.244  -7.244  -7.147  -7.139  -7.139  -0.919  -0.813  -0.747
 -0.708  -0.639  -0.544  -0.519  -0.483  -0.442  -0.423  -0.407
 -0.340  -0.335  -0.253  -0.243  -0.243

 Beta MOs
 -- Occupied --
*******-101.472 -10.327 -10.319 -10.230  -9.490  -9.384  -7.254
 -7.244  -7.244  -7.147  -7.139  -7.139  -0.919  -0.813  -0.747
 -0.708  -0.639  -0.544  -0.519  -0.483  -0.442  -0.423  -0.407
 -0.340  -0.335  -0.253  -0.243  -0.243

          Ground-State Mulliken Net Atomic Charges

     Atom                 Charge (a.u.)    Spin (a.u.)
  --------------------------------------------------------
      1 Cl                   -0.020770      -0.000000
      2 Cl                   -0.479451       0.000000
      3 C                    -0.244068       0.000000
      4 C                    -0.064630      -0.000000
      5 C                    -0.296454      -0.000000
      6 H                     0.204209      -0.000000
      7 H                     0.201104       0.000000
      8 H                     0.215579       0.000000
      9 H                     0.199631      -0.000000
     10 H                     0.141099       0.000000
     11 H                     0.143750       0.000000
  --------------------------------------------------------
  Sum of atomic charges =     0.000000

                    Cartesian Multipole Moments
 -----------------------------------------------------------------
    Charge (ESU x 10^10)
                -0.0000
    Dipole Moment (Debye)
         X      -4.5614      Y      -0.3442      Z      -5.8103
       Tot       7.3949
    Quadrupole Moments (Debye-Ang)
        XX     -58.5574     XY       6.5345     YY     -44.9270
        XZ      -9.8684     YZ       2.7602     ZZ     -45.8294

 Final energy is   -1038.21931997900
 **  OPTIMIZATION CONVERGED  **
 Total job time:  71.03s(wall), 815.45s(cpu)
        *  Thank you very much for using Q-Chem.  Have a nice day.  *
