 Q-Chem 5.1, Q-Chem, Inc., Pleasanton, CA (2018)
 Q-Chem 5.1.1 for Intel X86 EM64T Linux

User input:
--------------------------------------------------------------

$comment
potential surface scanner
$end

$rem
JOBTYPE  PES_SCAN
UNRESTRICTED TRUE
SYM_IGNORE  TRUE
GEOM_OPT_MAX_CYCLES 400
SCF_MAX_CYCLES 400
METHOD   B3LYP
BASIS   6-31G**
PDB_PRINT 2
SCF_CONVERGENCE 6
THRESH 14
SCF_PRINT 1
$end
$molecule
0 3
Cl 0.774665 0.572640 1.168175
Cl -1.270987 2.390990 1.442922
C -0.383660 -0.488485 -0.119610
C -0.279570 0.206696 -1.374161
C 0.122899 -1.911093 -0.043848
H -1.324264 -0.316684 0.400043
H -0.848246 1.113691 -1.541076
H 0.477224 -0.075544 -2.099341
H 1.136559 -1.997235 -0.444218
H 0.113658 -2.283680 0.981984
H -0.537981 -2.545897 -0.646067
$end
$scan
stre 2 4 3.600000 3.601000 0.100000
$end
--------------------------------------------------------------

   11   -1038.2317050966      7.57e-07  Convergence criterion met
 Total energy in the final basis set =    -1038.2317050966
   11   -1038.2312963396      7.58e-07  Convergence criterion met
 Total energy in the final basis set =    -1038.2312963396
   11   -1038.2314869559      7.51e-07  Convergence criterion met
 Total energy in the final basis set =    -1038.2314869559
   11   -1038.2315782499      7.55e-07  Convergence criterion met
 Total energy in the final basis set =    -1038.2315782499
   11   -1038.2315877010      7.61e-07  Convergence criterion met
 Total energy in the final basis set =    -1038.2315877010
   11   -1038.2315952394      7.73e-07  Convergence criterion met
 Total energy in the final basis set =    -1038.2315952394
   11   -1038.2315977636      7.79e-07  Convergence criterion met
 Total energy in the final basis set =    -1038.2315977636
   11   -1038.2315999662      7.84e-07  Convergence criterion met
 Total energy in the final basis set =    -1038.2315999662
   11   -1038.2316012159      7.84e-07  Convergence criterion met
 Total energy in the final basis set =    -1038.2316012159

             Standard Nuclear Orientation (Angstroms)
    I     Atom           X                Y                Z
 ----------------------------------------------------------------
    1      Cl      0.7657692558     0.5516337324     1.2011278155
    2      Cl     -1.2422022945     2.4316307550     1.3296809158
    3      C      -0.3895190103    -0.5008332591    -0.1059257381
    4      C      -0.2907294906     0.2187622741    -1.3457470372
    5      C       0.1286474055    -1.9198226630    -0.0521239877
    6      H      -1.3299476820    -0.3438171190     0.4184636809
    7      H      -0.8654045536     1.1250245787    -1.4941848659
    8      H       0.4663335236    -0.0461172034    -2.0772087015
    9      H       1.1418973815    -1.9927307890    -0.4559681896
   10      H       0.1245059700    -2.3072217941     0.9682698836
   11      H      -0.5290535054    -2.5511095127    -0.6615807758
 ----------------------------------------------------------------

   11   -1038.2316020767      7.81e-07  Convergence criterion met
 Total energy in the final basis set =    -1038.2316020767

                    Orbital Energies (a.u.)
 --------------------------------------------------------------

 Alpha MOs
 -- Occupied --
*******-101.528 -10.280 -10.239 -10.215  -9.475  -9.441  -7.238
 -7.234  -7.228  -7.212  -7.194  -7.194  -0.871  -0.798  -0.775
 -0.725  -0.608  -0.506  -0.468  -0.461  -0.408  -0.403  -0.390
 -0.374  -0.329  -0.296  -0.292  -0.287  -0.256

 Beta MOs
 -- Occupied --
*******-101.522 -10.281 -10.227 -10.215  -9.471  -9.436  -7.231
 -7.226  -7.225  -7.194  -7.191  -7.190  -0.855  -0.777  -0.736
 -0.709  -0.598  -0.501  -0.462  -0.454  -0.402  -0.397  -0.371
 -0.327  -0.319  -0.284  -0.279

          Ground-State Mulliken Net Atomic Charges

     Atom                 Charge (a.u.)    Spin (a.u.)
  --------------------------------------------------------
      1 Cl                   -0.056195       0.469623
      2 Cl                   -0.222473       0.753998
      3 C                    -0.162456      -0.061503
      4 C                    -0.142607       0.902208
      5 C                    -0.317127       0.005028
      6 H                     0.192570       0.008151
      7 H                     0.159371      -0.039349
      8 H                     0.131881      -0.039191
      9 H                     0.136267      -0.000974
     10 H                     0.143637       0.001814
     11 H                     0.137131       0.000194
  --------------------------------------------------------
  Sum of atomic charges =    -0.000000

                    Cartesian Multipole Moments
 -----------------------------------------------------------------
    Charge (ESU x 10^10)
                 0.0000
    Dipole Moment (Debye)
         X       0.1845      Y      -3.7841      Z      -2.8666
       Tot       4.7509
    Quadrupole Moments (Debye-Ang)
        XX     -45.5078     XY       1.7908     YY     -48.5988
        XZ       0.8919     YZ      -4.2134     ZZ     -46.2554

 Final energy is   -1038.23160207674
 **  OPTIMIZATION CONVERGED  **
 Total job time:  35.85s(wall), 414.56s(cpu)
        *  Thank you very much for using Q-Chem.  Have a nice day.  *
