 Q-Chem 5.1, Q-Chem, Inc., Pleasanton, CA (2018)
 Q-Chem 5.1.1 for Intel X86 EM64T Linux

User input:
--------------------------------------------------------------

$comment
potential surface scanner
$end

$rem
JOBTYPE  PES_SCAN
UNRESTRICTED TRUE
SYM_IGNORE  TRUE
GEOM_OPT_MAX_CYCLES 400
SCF_MAX_CYCLES 400
METHOD   B3LYP
BASIS   6-31G**
PDB_PRINT 2
SCF_CONVERGENCE 6
THRESH 14
SCF_PRINT 1
$end
$molecule
0 1
Cl -1.376174 1.389287 0.071835
Cl 2.310921 -0.069014 1.171724
C -0.717181 -0.173960 -0.564515
C 0.650167 -0.025147 -1.082155
C -0.911770 -1.317910 0.432606
H -1.318978 -0.382932 -1.469995
H 1.152420 -0.909797 -1.460703
H 1.039316 0.942775 -1.373945
H -0.312242 -1.118998 1.322256
H -1.966745 -1.412887 0.694130
H -0.569435 -2.256019 -0.016437
$end
$scan
stre 2 4 2.900000 2.901000 0.100000
$end
--------------------------------------------------------------

   11   -1038.2636437523      3.18e-07  Convergence criterion met
 Total energy in the final basis set =    -1038.2636437523
   11   -1038.2560417540      4.75e-07  Convergence criterion met
 Total energy in the final basis set =    -1038.2560417540
   11   -1038.2562025567      4.76e-07  Convergence criterion met
 Total energy in the final basis set =    -1038.2562025567
   11   -1038.2564235435      4.72e-07  Convergence criterion met
 Total energy in the final basis set =    -1038.2564235435
   11   -1038.2564292965      4.72e-07  Convergence criterion met
 Total energy in the final basis set =    -1038.2564292965
   11   -1038.2564393013      4.74e-07  Convergence criterion met
 Total energy in the final basis set =    -1038.2564393013
   11   -1038.2564413526      4.74e-07  Convergence criterion met
 Total energy in the final basis set =    -1038.2564413526
   11   -1038.2564428798      4.73e-07  Convergence criterion met
 Total energy in the final basis set =    -1038.2564428798

             Standard Nuclear Orientation (Angstroms)
    I     Atom           X                Y                Z
 ----------------------------------------------------------------
    1      Cl     -1.3922130682     1.3899084978     0.0530707962
    2      Cl      2.3466386423    -0.0995037878     1.2356670976
    3      C      -0.7262733916    -0.1726341918    -0.5749940774
    4      C       0.6337703765    -0.0209062388    -1.1031156476
    5      C      -0.9055864069    -1.3127694426     0.4322428052
    6      H      -1.3341839589    -0.3965908861    -1.4735226450
    7      H       1.1426237717    -0.9044971889    -1.4756099463
    8      H       1.0344318681     0.9492733217    -1.3713128819
    9      H      -0.2947857748    -1.1069058567     1.3128827024
   10      H      -1.9575485419    -1.4076720992     0.7055887508
   11      H      -0.5665745162    -2.2523041277    -0.0160959540
 ----------------------------------------------------------------

   11   -1038.2564435264      4.72e-07  Convergence criterion met
 Total energy in the final basis set =    -1038.2564435264

                    Orbital Energies (a.u.)
 --------------------------------------------------------------

 Alpha MOs
 -- Occupied --
*******-101.489 -10.318 -10.307 -10.218  -9.478  -9.401  -7.242
 -7.232  -7.232  -7.164  -7.156  -7.155  -0.907  -0.801  -0.739
 -0.724  -0.627  -0.525  -0.513  -0.479  -0.427  -0.412  -0.401
 -0.328  -0.325  -0.280  -0.258  -0.257

 Beta MOs
 -- Occupied --
*******-101.489 -10.318 -10.307 -10.218  -9.478  -9.401  -7.242
 -7.232  -7.232  -7.164  -7.156  -7.155  -0.907  -0.801  -0.739
 -0.724  -0.627  -0.525  -0.513  -0.479  -0.427  -0.412  -0.401
 -0.328  -0.325  -0.280  -0.258  -0.257

          Ground-State Mulliken Net Atomic Charges

     Atom                 Charge (a.u.)    Spin (a.u.)
  --------------------------------------------------------
      1 Cl                   -0.023352       0.000000
      2 Cl                   -0.432850      -0.000000
      3 C                    -0.222473      -0.000000
      4 C                    -0.070631      -0.000000
      5 C                    -0.303857       0.000000
      6 H                     0.194473       0.000000
      7 H                     0.194416      -0.000000
      8 H                     0.208895       0.000000
      9 H                     0.193500      -0.000000
     10 H                     0.136914      -0.000000
     11 H                     0.124965      -0.000000
  --------------------------------------------------------
  Sum of atomic charges =    -0.000000

                    Cartesian Multipole Moments
 -----------------------------------------------------------------
    Charge (ESU x 10^10)
                 0.0000
    Dipole Moment (Debye)
         X      -3.5353      Y      -1.7531      Z      -4.7765
       Tot       6.1957
    Quadrupole Moments (Debye-Ang)
        XX     -54.5975     XY       2.5559     YY     -44.2421
        XZ      -6.2706     YZ       0.3608     ZZ     -43.4041

 Final energy is   -1038.25644352645
 **  OPTIMIZATION CONVERGED  **
 Total job time:  37.77s(wall), 380.11s(cpu)
        *  Thank you very much for using Q-Chem.  Have a nice day.  *
