 Q-Chem 5.1, Q-Chem, Inc., Pleasanton, CA (2018)
 Q-Chem 5.1.1 for Intel X86 EM64T Linux

User input:
--------------------------------------------------------------

$comment
potential surface scanner
$end

$rem
JOBTYPE  PES_SCAN
UNRESTRICTED TRUE
SYM_IGNORE  TRUE
GEOM_OPT_MAX_CYCLES 400
SCF_MAX_CYCLES 400
METHOD   B3LYP
BASIS   6-31G**
PDB_PRINT 2
SCF_CONVERGENCE 6
THRESH 14
SCF_PRINT 1
$end
$molecule
0 1
Cl -1.662133 1.353963 -0.232556
Cl 2.577805 -0.736946 1.610851
C -0.811015 -0.174973 -0.688187
C 0.517136 0.072054 -1.228016
C -0.820256 -1.202388 0.477544
H -1.405911 -0.618968 -1.506049
H 1.061222 -0.752530 -1.679885
H 0.967531 1.058478 -1.246286
H -0.226856 -0.811954 1.306924
H -1.855637 -1.386317 0.770646
H -0.361588 -2.135019 0.139812
$end
$scan
stre 2 4 3.700000 3.701000 0.100000
$end
--------------------------------------------------------------

   13   -1038.2193199524      1.41e-07  Convergence criterion met
 Total energy in the final basis set =    -1038.2193199524
   13   -1038.2156967762      5.94e-07  Convergence criterion met
 Total energy in the final basis set =    -1038.2156967762
   13   -1038.2156662160      6.10e-07  Convergence criterion met
 Total energy in the final basis set =    -1038.2156662160
   13   -1038.2156923271      6.04e-07  Convergence criterion met
 Total energy in the final basis set =    -1038.2156923271
   13   -1038.2156956423      6.07e-07  Convergence criterion met
 Total energy in the final basis set =    -1038.2156956423
   13   -1038.2157045406      6.22e-07  Convergence criterion met
 Total energy in the final basis set =    -1038.2157045406
   13   -1038.2157067288      6.24e-07  Convergence criterion met
 Total energy in the final basis set =    -1038.2157067288
   13   -1038.2157093986      6.19e-07  Convergence criterion met
 Total energy in the final basis set =    -1038.2157093986
   13   -1038.2157105038      6.10e-07  Convergence criterion met
 Total energy in the final basis set =    -1038.2157105038

             Standard Nuclear Orientation (Angstroms)
    I     Atom           X                Y                Z
 ----------------------------------------------------------------
    1      Cl     -1.6560654765     1.3573324709    -0.2199748017
    2      Cl      2.5578818149    -0.7577589083     1.7064516105
    3      C      -0.8144218153    -0.1705020097    -0.6932998949
    4      C       0.5029806001     0.0746124550    -1.2557329860
    5      C      -0.8028194332    -1.2005737589     0.4729696430
    6      H      -1.4256991115    -0.6178131605    -1.4972447358
    7      H       1.0406069994    -0.7520689272    -1.7118035752
    8      H       0.9560947136     1.0597925716    -1.2774290698
    9      H      -0.1956783508    -0.8096510292     1.2923865486
   10      H      -1.8335822332    -1.3854365745     0.7814736329
   11      H      -0.3489997075    -2.1325331292     0.1270016284
 ----------------------------------------------------------------

   13   -1038.2157110183      6.01e-07  Convergence criterion met
 Total energy in the final basis set =    -1038.2157110183

                    Orbital Energies (a.u.)
 --------------------------------------------------------------

 Alpha MOs
 -- Occupied --
*******-101.470 -10.327 -10.319 -10.230  -9.491  -9.382  -7.255
 -7.244  -7.244  -7.146  -7.138  -7.137  -0.920  -0.813  -0.747
 -0.707  -0.640  -0.545  -0.519  -0.483  -0.442  -0.423  -0.408
 -0.341  -0.336  -0.250  -0.242  -0.241

 Beta MOs
 -- Occupied --
*******-101.470 -10.327 -10.319 -10.230  -9.491  -9.382  -7.255
 -7.244  -7.244  -7.146  -7.138  -7.137  -0.920  -0.813  -0.747
 -0.707  -0.640  -0.545  -0.519  -0.483  -0.442  -0.423  -0.408
 -0.341  -0.336  -0.250  -0.242  -0.241

          Ground-State Mulliken Net Atomic Charges

     Atom                 Charge (a.u.)    Spin (a.u.)
  --------------------------------------------------------
      1 Cl                   -0.018967      -0.000000
      2 Cl                   -0.479725      -0.000000
      3 C                    -0.244844      -0.000000
      4 C                    -0.065350       0.000000
      5 C                    -0.297114       0.000000
      6 H                     0.205256       0.000000
      7 H                     0.199850      -0.000000
      8 H                     0.214992      -0.000000
      9 H                     0.200945       0.000000
     10 H                     0.141550       0.000000
     11 H                     0.143406      -0.000000
  --------------------------------------------------------
  Sum of atomic charges =    -0.000000

                    Cartesian Multipole Moments
 -----------------------------------------------------------------
    Charge (ESU x 10^10)
                -0.0000
    Dipole Moment (Debye)
         X      -4.5851      Y      -0.2888      Z      -6.0757
       Tot       7.6172
    Quadrupole Moments (Debye-Ang)
        XX     -58.4025     XY       6.6410     YY     -44.9926
        XZ     -10.3559     YZ       3.0001     ZZ     -46.4420

 Final energy is   -1038.21571101830
 **  OPTIMIZATION CONVERGED  **
 Total job time:  39.35s(wall), 454.92s(cpu)
        *  Thank you very much for using Q-Chem.  Have a nice day.  *
