 Q-Chem 5.1, Q-Chem, Inc., Pleasanton, CA (2018)
 Q-Chem 5.1.1 for Intel X86 EM64T Linux

User input:
--------------------------------------------------------------

$comment
potential surface scanner
$end

$rem
JOBTYPE  PES_SCAN
UNRESTRICTED TRUE
SYM_IGNORE  TRUE
GEOM_OPT_MAX_CYCLES 400
SCF_MAX_CYCLES 400
METHOD   B3LYP
BASIS   6-31G**
PDB_PRINT 2
SCF_CONVERGENCE 6
THRESH 14
SCF_PRINT 1
$end
$molecule
0 3
Cl 0.399199 1.194872 0.635053
Cl -0.532972 0.541717 3.296944
C -0.469627 -0.206258 -0.473559
C -0.033256 -0.014011 -1.849070
C -0.117851 -1.533010 0.168056
H -1.507124 0.084783 -0.312274
H -0.492227 0.739745 -2.478367
H 0.845661 -0.532558 -2.217706
H 0.948135 -1.749881 0.059787
H -0.373426 -1.534784 1.228867
H -0.686211 -2.325215 -0.332933
$end
$scan
stre 2 4 5.100000 5.101000 0.100000
$end
--------------------------------------------------------------

   12   -1038.2288717206      7.78e-07  Convergence criterion met
 Total energy in the final basis set =    -1038.2288717206
   12   -1038.2285634901      7.62e-07  Convergence criterion met
 Total energy in the final basis set =    -1038.2285634901
   12   -1038.2291421750      7.18e-07  Convergence criterion met
 Total energy in the final basis set =    -1038.2291421750
   12   -1038.2293890558      6.81e-07  Convergence criterion met
 Total energy in the final basis set =    -1038.2293890558
   12   -1038.2294054550      6.80e-07  Convergence criterion met
 Total energy in the final basis set =    -1038.2294054550
   12   -1038.2294267143      6.85e-07  Convergence criterion met
 Total energy in the final basis set =    -1038.2294267143
   12   -1038.2294421833      6.94e-07  Convergence criterion met
 Total energy in the final basis set =    -1038.2294421833
   12   -1038.2294605193      7.09e-07  Convergence criterion met
   12   -1038.2295008393      7.29e-07  Convergence criterion met
 Total energy in the final basis set =    -1038.2295008393
   12   -1038.2295043328      7.22e-07  Convergence criterion met
 Total energy in the final basis set =    -1038.2295043328
   12   -1038.2295067517      7.16e-07  Convergence criterion met
 Total energy in the final basis set =    -1038.2295067517
   12   -1038.2295088734      7.13e-07  Convergence criterion met
 Total energy in the final basis set =    -1038.2295088734
   12   -1038.2295107140      7.13e-07  Convergence criterion met
 Total energy in the final basis set =    -1038.2295107140
   12   -1038.2295120010      7.15e-07  Convergence criterion met
 Total energy in the final basis set =    -1038.2295120010

             Standard Nuclear Orientation (Angstroms)
    I     Atom           X                Y                Z
 ----------------------------------------------------------------
    1      Cl      0.4804100287     1.1764532108     0.6409650688
    2      Cl     -0.6759177001     0.5538600894     3.1913726794
    3      C      -0.4470267761    -0.2067167917    -0.4540906019
    4      C      -0.0515205426    -0.0078713543    -1.8389937096
    5      C      -0.0947139323    -1.5401854131     0.1713386682
    6      H      -1.4720261486     0.1032082539    -0.2530612675
    7      H      -0.5154224605     0.7621534986    -2.4446509554
    8      H       0.8025656403    -0.5411305434    -2.2434220883
    9      H       0.9602074992    -1.7807245415     0.0152297199
   10      H      -0.3034578292    -1.5339873816     1.2424653451
   11      H      -0.7027967788    -2.3196590270    -0.3023548588
 ----------------------------------------------------------------

   12   -1038.2295126595      7.18e-07  Convergence criterion met
 Total energy in the final basis set =    -1038.2295126595

                    Orbital Energies (a.u.)
 --------------------------------------------------------------

 Alpha MOs
 -- Occupied --
*******-101.537 -10.280 -10.242 -10.206  -9.472  -9.449  -7.236
 -7.230  -7.225  -7.221  -7.202  -7.202  -0.870  -0.795  -0.781
 -0.720  -0.607  -0.505  -0.465  -0.458  -0.405  -0.396  -0.392
 -0.365  -0.322  -0.304  -0.300  -0.297  -0.255

 Beta MOs
 -- Occupied --
*******-101.531 -10.281 -10.229 -10.205  -9.469  -9.444  -7.230
 -7.224  -7.223  -7.203  -7.199  -7.199  -0.856  -0.773  -0.742
 -0.702  -0.598  -0.499  -0.459  -0.449  -0.398  -0.393  -0.373
 -0.323  -0.314  -0.288  -0.285

          Ground-State Mulliken Net Atomic Charges

     Atom                 Charge (a.u.)    Spin (a.u.)
  --------------------------------------------------------
      1 Cl                   -0.058752       0.381937
      2 Cl                   -0.181090       0.800456
      3 C                    -0.170520      -0.071823
      4 C                    -0.153253       0.957861
      5 C                    -0.314059       0.006427
      6 H                     0.181611       0.009242
      7 H                     0.138277      -0.041744
      8 H                     0.135175      -0.041555
      9 H                     0.131575      -0.000940
     10 H                     0.161990       0.001961
     11 H                     0.129044      -0.001823
  --------------------------------------------------------
  Sum of atomic charges =     0.000000

                    Cartesian Multipole Moments
 -----------------------------------------------------------------
    Charge (ESU x 10^10)
                -0.0000
    Dipole Moment (Debye)
         X      -0.3496      Y      -1.9275      Z      -4.2349
       Tot       4.6661
    Quadrupole Moments (Debye-Ang)
        XX     -44.5542     XY      -0.2735     YY     -45.1812
        XZ       0.9583     YZ      -2.7112     ZZ     -50.2429

 Final energy is   -1038.22951265954
 **  OPTIMIZATION CONVERGED  **
 Total job time:  71.32s(wall), 788.94s(cpu)
        *  Thank you very much for using Q-Chem.  Have a nice day.  *
