 Q-Chem 5.1, Q-Chem, Inc., Pleasanton, CA (2018)
 Q-Chem 5.1.1 for Intel X86 EM64T Linux

User input:
--------------------------------------------------------------

$comment
potential surface scanner
$end

$rem
JOBTYPE  PES_SCAN
UNRESTRICTED TRUE
SYM_IGNORE  TRUE
GEOM_OPT_MAX_CYCLES 400
SCF_MAX_CYCLES 400
METHOD   B3LYP
BASIS   6-31G**
PDB_PRINT 2
SCF_CONVERGENCE 6
THRESH 14
SCF_PRINT 1
$end
$molecule
0 3
Cl 0.761639 1.007264 0.724209
Cl -1.167730 1.054299 2.731248
C -0.373700 -0.268858 -0.352966
C -0.134986 0.047522 -1.741988
C -0.004576 -1.653765 0.128412
H -1.334394 0.077784 0.023769
H -0.626155 0.894096 -2.208047
H 0.638177 -0.470681 -2.300166
H 1.021829 -1.912211 -0.144548
H -0.119788 -1.733888 1.210343
H -0.680019 -2.376163 -0.345465
$end
$scan
stre 2 4 4.600000 4.601000 0.100000
$end
--------------------------------------------------------------

   11   -1038.2307610936      9.67e-07  Convergence criterion met
 Total energy in the final basis set =    -1038.2307610936
   12   -1038.2295747295      5.27e-07  Convergence criterion met
 Total energy in the final basis set =    -1038.2295747295
   11   -1038.2304612430      9.35e-07  Convergence criterion met
 Total energy in the final basis set =    -1038.2304612430
   11   -1038.2307525905      8.69e-07  Convergence criterion met
 Total energy in the final basis set =    -1038.2307525905
   11   -1038.2307707944      8.62e-07  Convergence criterion met
 Total energy in the final basis set =    -1038.2307707944
   11   -1038.2307824816      8.64e-07  Convergence criterion met
 Total energy in the final basis set =    -1038.2307824816
   11   -1038.2307889487      8.69e-07  Convergence criterion met
 Total energy in the final basis set =    -1038.2307889487
   11   -1038.2307950615      8.77e-07  Convergence criterion met
 Total energy in the final basis set =    -1038.2307950615
   11   -1038.2308010266      8.83e-07  Convergence criterion met
 Total energy in the final basis set =    -1038.2308010266
   11   -1038.2308075324      8.85e-07  Convergence criterion met
 Total energy in the final basis set =    -1038.2308075324
   11   -1038.2308123640      8.80e-07  Convergence criterion met
 Total energy in the final basis set =    -1038.2308123640
   11   -1038.2308146169      8.72e-07  Convergence criterion met
 Total energy in the final basis set =    -1038.2308146169

             Standard Nuclear Orientation (Angstroms)
    I     Atom           X                Y                Z
 ----------------------------------------------------------------
    1      Cl      0.7991275699     0.9707308022     0.7458262266
    2      Cl     -1.2126883925     1.1638924989     2.6235167906
    3      C      -0.3722237710    -0.2883724950    -0.3353929689
    4      C      -0.1490745381     0.0624254861    -1.7141664672
    5      C       0.0061366915    -1.6792019414     0.1185512895
    6      H      -1.3237011308     0.0586723543     0.0631995642
    7      H      -0.6510342219     0.9159459249    -2.1552959661
    8      H       0.6222120274    -0.4357405633    -2.2931861108
    9      H       1.0316953474    -1.9284092734    -0.1657448178
   10      H      -0.1006289105    -1.7777442657     1.1997756282
   11      H      -0.6695236713    -2.3967995274    -0.3622821683
 ----------------------------------------------------------------

   11   -1038.2308153556      8.66e-07  Convergence criterion met
 Total energy in the final basis set =    -1038.2308153556

                    Orbital Energies (a.u.)
 --------------------------------------------------------------

 Alpha MOs
 -- Occupied --
*******-101.530 -10.280 -10.244 -10.210  -9.474  -9.442  -7.238
 -7.233  -7.227  -7.213  -7.196  -7.195  -0.870  -0.798  -0.776
 -0.724  -0.608  -0.507  -0.467  -0.460  -0.406  -0.401  -0.391
 -0.370  -0.327  -0.298  -0.293  -0.291  -0.258

 Beta MOs
 -- Occupied --
*******-101.524 -10.280 -10.231 -10.210  -9.470  -9.437  -7.231
 -7.226  -7.225  -7.196  -7.192  -7.192  -0.855  -0.776  -0.737
 -0.708  -0.599  -0.502  -0.461  -0.452  -0.401  -0.396  -0.370
 -0.328  -0.318  -0.284  -0.280

          Ground-State Mulliken Net Atomic Charges

     Atom                 Charge (a.u.)    Spin (a.u.)
  --------------------------------------------------------
      1 Cl                   -0.057904       0.451004
      2 Cl                   -0.211921       0.764280
      3 C                    -0.163846      -0.069415
      4 C                    -0.148888       0.920058
      5 C                    -0.311897       0.004822
      6 H                     0.194658       0.010328
      7 H                     0.143145      -0.040222
      8 H                     0.134584      -0.040192
      9 H                     0.132760      -0.000957
     10 H                     0.156353       0.002129
     11 H                     0.132957      -0.001836
  --------------------------------------------------------
  Sum of atomic charges =    -0.000000

                    Cartesian Multipole Moments
 -----------------------------------------------------------------
    Charge (ESU x 10^10)
                 0.0000
    Dipole Moment (Debye)
         X       0.1276      Y      -2.5266      Z      -4.0689
       Tot       4.7912
    Quadrupole Moments (Debye-Ang)
        XX     -45.4176     XY       0.4736     YY     -45.5919
        XZ       1.9253     YZ      -3.8618     ZZ     -49.3067

 Final energy is   -1038.23081535560
 **  OPTIMIZATION CONVERGED  **
 Total job time:  46.22s(wall), 540.39s(cpu)
        *  Thank you very much for using Q-Chem.  Have a nice day.  *
