 Q-Chem 5.1, Q-Chem, Inc., Pleasanton, CA (2018)
 Q-Chem 5.1.1 for Intel X86 EM64T Linux

User input:
--------------------------------------------------------------

$comment
potential surface scanner
$end

$rem
JOBTYPE  PES_SCAN
UNRESTRICTED TRUE
SYM_IGNORE  TRUE
GEOM_OPT_MAX_CYCLES 400
SCF_MAX_CYCLES 400
METHOD   B3LYP
BASIS   6-31G**
PDB_PRINT 2
SCF_CONVERGENCE 6
THRESH 14
SCF_PRINT 1
$end
$molecule
0 1
Cl -1.637647 1.363097 -0.193878
Cl 2.495236 -0.767989 1.822787
C -0.814201 -0.164719 -0.695047
C 0.487173 0.075285 -1.291145
C -0.776816 -1.201503 0.466909
H -1.449148 -0.611139 -1.481459
H 1.010303 -0.754364 -1.758879
H 0.945355 1.057993 -1.320155
H -0.145505 -0.812851 1.269574
H -1.800134 -1.385047 0.799960
H -0.334315 -2.133364 0.106133
$end
$scan
stre 2 4 3.900000 3.901000 0.100000
$end
--------------------------------------------------------------

   14   -1038.2125143474      5.79e-07  Convergence criterion met
 Total energy in the final basis set =    -1038.2125143474
   16   -1038.2096607133      7.66e-07  Convergence criterion met
 Total energy in the final basis set =    -1038.2096607133
   16   -1038.2096438490      6.70e-07  Convergence criterion met
 Total energy in the final basis set =    -1038.2096438490
   16   -1038.2096931221      7.20e-07  Convergence criterion met
 Total energy in the final basis set =    -1038.2096931221
   16   -1038.2097015803      7.42e-07  Convergence criterion met
 Total energy in the final basis set =    -1038.2097015803
   16   -1038.2097163331      7.83e-07  Convergence criterion met
 Total energy in the final basis set =    -1038.2097163331
   16   -1038.2097195378      7.90e-07  Convergence criterion met
 Total energy in the final basis set =    -1038.2097195378
   16   -1038.2097212066      7.92e-07  Convergence criterion met
 Total energy in the final basis set =    -1038.2097212066

             Standard Nuclear Orientation (Angstroms)
    I     Atom           X                Y                Z
 ----------------------------------------------------------------
    1      Cl     -1.6185338884     1.3686233933    -0.1693055623
    2      Cl      2.4454000493    -0.7718654662     1.9317933375
    3      C      -0.8123785907    -0.1587391317    -0.6951682856
    4      C       0.4724560375     0.0762862013    -1.3236831051
    5      C      -0.7549132727    -1.2037636382     0.4605636645
    6      H      -1.4683095004    -0.6026869573    -1.4665278911
    7      H       0.9832962799    -0.7571160350    -1.7983444311
    8      H       0.9333040761     1.0573384275    -1.3644145218
    9      H      -0.1019240048    -0.8220221206     1.2500158582
   10      H      -1.7714036265    -1.3842714492     0.8153365442
   11      H      -0.3266925593    -2.1363842239     0.0845343927
 ----------------------------------------------------------------

   16   -1038.2097216009      7.92e-07  Convergence criterion met
 Total energy in the final basis set =    -1038.2097216009

                    Orbital Energies (a.u.)
 --------------------------------------------------------------

 Alpha MOs
 -- Occupied --
*******-101.467 -10.326 -10.320 -10.230  -9.491  -9.379  -7.256
 -7.245  -7.245  -7.142  -7.134  -7.134  -0.921  -0.815  -0.747
 -0.704  -0.640  -0.547  -0.521  -0.484  -0.441  -0.424  -0.408
 -0.341  -0.336  -0.246  -0.239  -0.239

 Beta MOs
 -- Occupied --
*******-101.467 -10.326 -10.320 -10.230  -9.491  -9.379  -7.256
 -7.245  -7.245  -7.142  -7.134  -7.134  -0.921  -0.815  -0.747
 -0.704  -0.640  -0.547  -0.521  -0.484  -0.441  -0.424  -0.408
 -0.341  -0.336  -0.246  -0.239  -0.239

          Ground-State Mulliken Net Atomic Charges

     Atom                 Charge (a.u.)    Spin (a.u.)
  --------------------------------------------------------
      1 Cl                   -0.014422      -0.000000
      2 Cl                   -0.477916       0.000000
      3 C                    -0.246300       0.000000
      4 C                    -0.066982      -0.000000
      5 C                    -0.297770      -0.000000
      6 H                     0.207834      -0.000000
      7 H                     0.196081       0.000000
      8 H                     0.213210       0.000000
      9 H                     0.203138      -0.000000
     10 H                     0.142341      -0.000000
     11 H                     0.140786      -0.000000
  --------------------------------------------------------
  Sum of atomic charges =    -0.000000

                    Cartesian Multipole Moments
 -----------------------------------------------------------------
    Charge (ESU x 10^10)
                -0.0000
    Dipole Moment (Debye)
         X      -4.4813      Y      -0.2397      Z      -6.7086
       Tot       8.0712
    Quadrupole Moments (Debye-Ang)
        XX     -57.2293     XY       6.5527     YY     -45.0647
        XZ     -11.1449     YZ       3.4552     ZZ     -48.0238

 Final energy is   -1038.20972160085
 **  OPTIMIZATION CONVERGED  **
 Total job time:  42.53s(wall), 473.77s(cpu)
        *  Thank you very much for using Q-Chem.  Have a nice day.  *
