 Q-Chem 5.1, Q-Chem, Inc., Pleasanton, CA (2018)
 Q-Chem 5.1.1 for Intel X86 EM64T Linux

User input:
--------------------------------------------------------------

$comment
potential surface scanner
$end

$rem
JOBTYPE  PES_SCAN
UNRESTRICTED TRUE
SYM_IGNORE  TRUE
GEOM_OPT_MAX_CYCLES 400
SCF_MAX_CYCLES 400
METHOD   B3LYP
BASIS   6-31G**
PDB_PRINT 2
SCF_CONVERGENCE 6
THRESH 14
SCF_PRINT 1
$end
$molecule
0 1
Cl -1.287658 1.381916 0.187958
Cl 2.095596 0.105922 0.816980
C -0.653679 -0.178737 -0.501826
C 0.771883 -0.038427 -0.934290
C -0.941839 -1.344557 0.434157
H -1.213916 -0.305969 -1.440098
H 1.195136 -0.932935 -1.384382
H 1.040772 0.887638 -1.430329
H -0.419668 -1.205446 1.381805
H -2.014420 -1.427765 0.619013
H -0.591910 -2.276241 -0.024185
$end
$scan
stre 2 4 2.300000 2.301000 0.100000
$end
--------------------------------------------------------------

    9   -1038.3162168292      7.90e-07  Convergence criterion met
 Total energy in the final basis set =    -1038.3162168292
    9   -1038.3067128980      8.65e-07  Convergence criterion met
 Total energy in the final basis set =    -1038.3067128980
    9   -1038.3066385158      8.67e-07  Convergence criterion met
 Total energy in the final basis set =    -1038.3066385158
    9   -1038.3067453136      8.68e-07  Convergence criterion met
 Total energy in the final basis set =    -1038.3067453136
    9   -1038.3067486911      8.69e-07  Convergence criterion met
 Total energy in the final basis set =    -1038.3067486911
    9   -1038.3067505007      8.69e-07  Convergence criterion met
 Total energy in the final basis set =    -1038.3067505007
    9   -1038.3067520333      8.69e-07  Convergence criterion met
 Total energy in the final basis set =    -1038.3067520333
    9   -1038.3067537637      8.70e-07  Convergence criterion met
 Total energy in the final basis set =    -1038.3067537637

             Standard Nuclear Orientation (Angstroms)
    I     Atom           X                Y                Z
 ----------------------------------------------------------------
    1      Cl     -1.3018812413     1.3833767409     0.1666130910
    2      Cl      2.1346485999     0.0744152118     0.8715162118
    3      C      -0.6647347278    -0.1789263507    -0.5116246197
    4      C       0.7495328343    -0.0373853057    -0.9612287972
    5      C      -0.9383060643    -1.3404283829     0.4352218342
    6      H      -1.2311241295    -0.3203311416    -1.4458730962
    7      H       1.1903595877    -0.9279979715    -1.4003366693
    8      H       1.0427294742     0.9021017415    -1.4151664434
    9      H      -0.4055278222    -1.1886617136     1.3748308007
   10      H      -2.0086841073    -1.4276039653     0.6302249007
   11      H      -0.5867154036    -2.2731598630    -0.0193742126
 ----------------------------------------------------------------

    9   -1038.3067544107      8.70e-07  Convergence criterion met
 Total energy in the final basis set =    -1038.3067544107

                    Orbital Energies (a.u.)
 --------------------------------------------------------------

 Alpha MOs
 -- Occupied --
*******-101.517 -10.295 -10.289 -10.208  -9.464  -9.429  -7.228
 -7.218  -7.218  -7.193  -7.184  -7.184  -0.890  -0.791  -0.758
 -0.721  -0.609  -0.504  -0.500  -0.464  -0.414  -0.398  -0.390
 -0.335  -0.314  -0.309  -0.284  -0.282

 Beta MOs
 -- Occupied --
*******-101.517 -10.295 -10.289 -10.208  -9.464  -9.429  -7.228
 -7.218  -7.218  -7.193  -7.184  -7.184  -0.890  -0.791  -0.758
 -0.721  -0.609  -0.504  -0.500  -0.464  -0.414  -0.398  -0.390
 -0.335  -0.314  -0.309  -0.284  -0.282

          Ground-State Mulliken Net Atomic Charges

     Atom                 Charge (a.u.)    Spin (a.u.)
  --------------------------------------------------------
      1 Cl                   -0.047401       0.000000
      2 Cl                   -0.282760      -0.000000
      3 C                    -0.189395      -0.000000
      4 C                    -0.154973      -0.000000
      5 C                    -0.302845       0.000000
      6 H                     0.176386       0.000000
      7 H                     0.182554       0.000000
      8 H                     0.194664      -0.000000
      9 H                     0.172197      -0.000000
     10 H                     0.132831       0.000000
     11 H                     0.118743      -0.000000
  --------------------------------------------------------
  Sum of atomic charges =     0.000000

                    Cartesian Multipole Moments
 -----------------------------------------------------------------
    Charge (ESU x 10^10)
                -0.0000
    Dipole Moment (Debye)
         X      -1.9611      Y      -2.0538      Z      -3.2728
       Tot       4.3331
    Quadrupole Moments (Debye-Ang)
        XX     -50.9577     XY       1.8134     YY     -44.7708
        XZ      -3.1911     YZ      -0.0710     ZZ     -42.4730

 Final energy is   -1038.30675441066
 **  OPTIMIZATION CONVERGED  **
 Total job time:  29.88s(wall), 342.10s(cpu)
        *  Thank you very much for using Q-Chem.  Have a nice day.  *
