 Q-Chem 5.1, Q-Chem, Inc., Pleasanton, CA (2018)
 Q-Chem 5.1.1 for Intel X86 EM64T Linux

User input:
--------------------------------------------------------------

$comment
potential surface scanner
$end

$rem
JOBTYPE  PES_SCAN
UNRESTRICTED TRUE
SYM_IGNORE  TRUE
GEOM_OPT_MAX_CYCLES 400
SCF_MAX_CYCLES 400
METHOD   B3LYP
BASIS   6-31G**
PDB_PRINT 2
SCF_CONVERGENCE 6
THRESH 14
SCF_PRINT 1
$end
$molecule
0 1
Cl -1.348408 1.387073 0.106650
Cl 2.246382 -0.015959 1.043543
C -0.698065 -0.176898 -0.543627
C 0.686077 -0.030935 -1.036174
C -0.924148 -1.327011 0.434797
H -1.284969 -0.359261 -1.462355
H 1.170531 -0.916243 -1.436087
H 1.044722 0.931129 -1.381568
H -0.352883 -1.141329 1.345248
H -1.985904 -1.422582 0.667625
H -0.573036 -2.262587 -0.013250
$end
$scan
stre 2 4 2.700000 2.701000 0.100000
$end
--------------------------------------------------------------

   10   -1038.2795797057      4.10e-07  Convergence criterion met
 Total energy in the final basis set =    -1038.2795797057
   10   -1038.2711926966      6.92e-07  Convergence criterion met
 Total energy in the final basis set =    -1038.2711926966
   10   -1038.2711234489      7.02e-07  Convergence criterion met
 Total energy in the final basis set =    -1038.2711234489
   10   -1038.2713281453      7.13e-07  Convergence criterion met
 Total energy in the final basis set =    -1038.2713281453
   10   -1038.2713367577      7.14e-07  Convergence criterion met
 Total energy in the final basis set =    -1038.2713367577
   10   -1038.2713473037      7.16e-07  Convergence criterion met
 Total energy in the final basis set =    -1038.2713473037
   10   -1038.2713496363      7.16e-07  Convergence criterion met
 Total energy in the final basis set =    -1038.2713496363
   10   -1038.2713518724      7.16e-07  Convergence criterion met
 Total energy in the final basis set =    -1038.2713518724
   10   -1038.2713529805      7.16e-07  Convergence criterion met
 Total energy in the final basis set =    -1038.2713529805

             Standard Nuclear Orientation (Angstroms)
    I     Atom           X                Y                Z
 ----------------------------------------------------------------
    1      Cl     -1.3606667350     1.3886734470     0.0900009903
    2      Cl      2.2778751850    -0.0395436148     1.1072007761
    3      C      -0.7081154522    -0.1753729388    -0.5541676254
    4      C       0.6673155388    -0.0291490779    -1.0598219107
    5      C      -0.9182982937    -1.3226243649     0.4334179695
    6      H      -1.3034777671    -0.3704037138    -1.4659300118
    7      H       1.1613638206    -0.9140252513    -1.4485685750
    8      H       1.0440426701     0.9361336420    -1.3758319565
    9      H      -0.3322047190    -1.1304777898     1.3331834725
   10      H      -1.9766385023    -1.4186511212     0.6806697052
   11      H      -0.5708967452    -2.2591622164    -0.0153508342
 ----------------------------------------------------------------

   10   -1038.2713537680      7.15e-07  Convergence criterion met
 Total energy in the final basis set =    -1038.2713537680

                    Orbital Energies (a.u.)
 --------------------------------------------------------------

 Alpha MOs
 -- Occupied --
*******-101.497 -10.312 -10.302 -10.215  -9.474  -9.408  -7.238
 -7.228  -7.228  -7.172  -7.163  -7.163  -0.902  -0.797  -0.740
 -0.728  -0.622  -0.519  -0.509  -0.475  -0.423  -0.408  -0.398
 -0.324  -0.321  -0.293  -0.265  -0.264

 Beta MOs
 -- Occupied --
*******-101.497 -10.312 -10.302 -10.215  -9.474  -9.408  -7.238
 -7.228  -7.228  -7.172  -7.163  -7.163  -0.902  -0.797  -0.740
 -0.728  -0.622  -0.519  -0.509  -0.475  -0.423  -0.408  -0.398
 -0.324  -0.321  -0.293  -0.265  -0.264

          Ground-State Mulliken Net Atomic Charges

     Atom                 Charge (a.u.)    Spin (a.u.)
  --------------------------------------------------------
      1 Cl                   -0.029559      -0.000000
      2 Cl                   -0.399445       0.000000
      3 C                    -0.213121      -0.000000
      4 C                    -0.086945       0.000000
      5 C                    -0.303266       0.000000
      6 H                     0.189236       0.000000
      7 H                     0.191726       0.000000
      8 H                     0.205530      -0.000000
      9 H                     0.187668      -0.000000
     10 H                     0.135225      -0.000000
     11 H                     0.122951      -0.000000
  --------------------------------------------------------
  Sum of atomic charges =     0.000000

                    Cartesian Multipole Moments
 -----------------------------------------------------------------
    Charge (ESU x 10^10)
                 0.0000
    Dipole Moment (Debye)
         X      -3.0747      Y      -1.8726      Z      -4.3021
       Tot       5.6097
    Quadrupole Moments (Debye-Ang)
        XX     -53.4582     XY       2.2357     YY     -44.3795
        XZ      -5.2121     YZ       0.1789     ZZ     -42.9358

 Final energy is   -1038.27135376804
 **  OPTIMIZATION CONVERGED  **
 Total job time:  35.33s(wall), 405.01s(cpu)
        *  Thank you very much for using Q-Chem.  Have a nice day.  *
