 Q-Chem 5.1, Q-Chem, Inc., Pleasanton, CA (2018)
 Q-Chem 5.1.1 for Intel X86 EM64T Linux

User input:
--------------------------------------------------------------

$comment
potential surface scanner
$end

$rem
JOBTYPE  PES_SCAN
UNRESTRICTED TRUE
SYM_IGNORE  TRUE
GEOM_OPT_MAX_CYCLES 400
SCF_MAX_CYCLES 400
METHOD   B3LYP
BASIS   6-31G**
PDB_PRINT 2
SCF_CONVERGENCE 6
THRESH 14
SCF_PRINT 1
$end
$molecule
0 3
Cl 0.698942 1.071954 0.683102
Cl -1.023908 0.843700 2.864649
C -0.394145 -0.242168 -0.384160
C -0.112466 0.026808 -1.776684
C -0.033581 -1.609795 0.151199
H -1.373108 0.107051 -0.059463
H -0.597088 0.849326 -2.290289
H 0.683998 -0.503162 -2.289104
H 1.004460 -1.865228 -0.076939
H -0.188233 -1.661902 1.230072
H -0.684574 -2.351184 -0.327582
$end
$scan
stre 2 4 4.700000 4.701000 0.100000
$end
--------------------------------------------------------------

   12   -1038.2305940515      5.46e-07  Convergence criterion met
 Total energy in the final basis set =    -1038.2305940515
   12   -1038.2293129496      5.72e-07  Convergence criterion met
 Total energy in the final basis set =    -1038.2293129496
   12   -1038.2302656249      5.22e-07  Convergence criterion met
 Total energy in the final basis set =    -1038.2302656249
   11   -1038.2306074286      9.73e-07  Convergence criterion met
 Total energy in the final basis set =    -1038.2306074286
   11   -1038.2306394958      9.65e-07  Convergence criterion met
 Total energy in the final basis set =    -1038.2306394958
   11   -1038.2306673555      9.68e-07  Convergence criterion met
 Total energy in the final basis set =    -1038.2306673555
   11   -1038.2306834476      9.78e-07  Convergence criterion met
 Total energy in the final basis set =    -1038.2306834476
   11   -1038.2306979821      9.93e-07  Convergence criterion met
   12   -1038.2307107516      5.10e-07  Convergence criterion met
 Total energy in the final basis set =    -1038.2307107516
   12   -1038.2307262311      5.18e-07  Convergence criterion met
 Total energy in the final basis set =    -1038.2307262311
   12   -1038.2307441446      5.24e-07  Convergence criterion met
 Total energy in the final basis set =    -1038.2307441446
   11   -1038.2307539802      9.95e-07  Convergence criterion met
 Total energy in the final basis set =    -1038.2307539802
   11   -1038.2307585348      9.81e-07  Convergence criterion met
 Total energy in the final basis set =    -1038.2307585348
   11   -1038.2307603849      9.71e-07  Convergence criterion met
 Total energy in the final basis set =    -1038.2307603849

             Standard Nuclear Orientation (Angstroms)
    I     Atom           X                Y                Z
 ----------------------------------------------------------------
    1      Cl      0.7616390991     1.0072642993     0.7242092039
    2      Cl     -1.1677295208     1.0542992200     2.7312477026
    3      C      -0.3737000888    -0.2688583627    -0.3529661899
    4      C      -0.1349864086     0.0475223437    -1.7419884967
    5      C      -0.0045763767    -1.6537653535     0.1284124939
    6      H      -1.3343941290     0.0777835701     0.0237686778
    7      H      -0.6261548864     0.8940964230    -2.2080465753
    8      H       0.6381769190    -0.4706806607    -2.3001658480
    9      H       1.0218290806    -1.9122110902    -0.1445480840
   10      H      -0.1197881568    -1.7338878243     1.2103434383
   11      H      -0.6800185316    -2.3761625646    -0.3454653226
 ----------------------------------------------------------------

   11   -1038.2307610965      9.67e-07  Convergence criterion met
 Total energy in the final basis set =    -1038.2307610965

                    Orbital Energies (a.u.)
 --------------------------------------------------------------

 Alpha MOs
 -- Occupied --
*******-101.531 -10.280 -10.243 -10.209  -9.474  -9.444  -7.238
 -7.233  -7.227  -7.215  -7.197  -7.197  -0.870  -0.797  -0.777
 -0.723  -0.608  -0.507  -0.466  -0.460  -0.406  -0.400  -0.391
 -0.369  -0.326  -0.299  -0.294  -0.293  -0.257

 Beta MOs
 -- Occupied --
*******-101.526 -10.281 -10.231 -10.209  -9.470  -9.439  -7.231
 -7.226  -7.225  -7.198  -7.194  -7.193  -0.856  -0.775  -0.738
 -0.706  -0.599  -0.501  -0.460  -0.452  -0.400  -0.395  -0.371
 -0.327  -0.317  -0.286  -0.281

          Ground-State Mulliken Net Atomic Charges

     Atom                 Charge (a.u.)    Spin (a.u.)
  --------------------------------------------------------
      1 Cl                   -0.056759       0.433492
      2 Cl                   -0.206078       0.771848
      3 C                    -0.166439      -0.070706
      4 C                    -0.150735       0.931536
      5 C                    -0.311966       0.004764
      6 H                     0.193482       0.011050
      7 H                     0.142048      -0.040706
      8 H                     0.134719      -0.040642
      9 H                     0.132114      -0.000938
     10 H                     0.157333       0.002081
     11 H                     0.132280      -0.001781
  --------------------------------------------------------
  Sum of atomic charges =    -0.000000

                    Cartesian Multipole Moments
 -----------------------------------------------------------------
    Charge (ESU x 10^10)
                -0.0000
    Dipole Moment (Debye)
         X       0.0736      Y      -2.3948      Z      -4.0952
       Tot       4.7445
    Quadrupole Moments (Debye-Ang)
        XX     -45.3242     XY       0.3128     YY     -45.4394
        XZ       1.8252     YZ      -3.6411     ZZ     -49.5054

 Final energy is   -1038.23076109646
 **  OPTIMIZATION CONVERGED  **
 Total job time:  53.56s(wall), 629.40s(cpu)
        *  Thank you very much for using Q-Chem.  Have a nice day.  *
