 Q-Chem 5.1, Q-Chem, Inc., Pleasanton, CA (2018)
 Q-Chem 5.1.1 for Intel X86 EM64T Linux

User input:
--------------------------------------------------------------

$comment
potential surface scanner
$end

$rem
JOBTYPE  PES_SCAN
UNRESTRICTED TRUE
SYM_IGNORE  TRUE
GEOM_OPT_MAX_CYCLES 400
SCF_MAX_CYCLES 400
METHOD   B3LYP
BASIS   6-31G**
PDB_PRINT 2
SCF_CONVERGENCE 6
THRESH 14
SCF_PRINT 1
$end
$molecule
0 1
Cl -1.271337 1.376813 0.223864
Cl 1.954052 0.118637 0.611689
C -0.615377 -0.179542 -0.477229
C 0.860334 -0.027482 -0.823928
C -0.945393 -1.347408 0.440549
H -1.141317 -0.286818 -1.431387
H 1.187714 -0.914977 -1.371435
H 1.028018 0.858113 -1.436294
H -0.469897 -1.223340 1.415209
H -2.024892 -1.429544 0.581904
H -0.581605 -2.279052 -0.008144
$end
$scan
stre 2 4 1.800000 1.801000 0.100000
$end
--------------------------------------------------------------

    9   -1038.3416009812      3.04e-07  Convergence criterion met
 Total energy in the final basis set =    -1038.3416009812
    9   -1038.3415600299      2.69e-07  Convergence criterion met
 Total energy in the final basis set =    -1038.3415600299
    9   -1038.3415650998      2.66e-07  Convergence criterion met
 Total energy in the final basis set =    -1038.3415650998

             Standard Nuclear Orientation (Angstroms)
    I     Atom           X                Y                Z
 ----------------------------------------------------------------
    1      Cl     -1.2710489881     1.3768111000     0.2245556718
    2      Cl      1.9506652387     0.1187716476     0.6059092831
    3      C      -0.6141639166    -0.1794840034    -0.4764349932
    4      C       0.8629511817    -0.0270719258    -0.8208379944
    5      C      -0.9454804817    -1.3473897206     0.4407701181
    6      H      -1.1392795218    -0.2866169213    -1.4309191248
    7      H       1.1871786418    -0.9143158394    -1.3711713472
    8      H       1.0274421179     0.8572565315    -1.4363366628
    9      H      -0.4716203913    -1.2239521284     1.4163256022
   10      H      -2.0251968472    -1.4296839584     0.5806898007
   11      H      -0.5811470334    -2.2789247818    -0.0077523536
 ----------------------------------------------------------------

    9   -1038.3415658374      2.64e-07  Convergence criterion met
 Total energy in the final basis set =    -1038.3415658374

                    Orbital Energies (a.u.)
 --------------------------------------------------------------

 Alpha MOs
 -- Occupied --
*******-101.535 -10.272 -10.263 -10.199  -9.457  -9.451  -7.221
 -7.215  -7.211  -7.211  -7.206  -7.206  -0.888  -0.838  -0.757
 -0.700  -0.592  -0.496  -0.486  -0.452  -0.419  -0.395  -0.386
 -0.373  -0.309  -0.304  -0.298  -0.296

 Beta MOs
 -- Occupied --
*******-101.535 -10.272 -10.263 -10.199  -9.457  -9.451  -7.221
 -7.215  -7.211  -7.211  -7.206  -7.206  -0.888  -0.838  -0.757
 -0.700  -0.592  -0.496  -0.486  -0.452  -0.419  -0.395  -0.386
 -0.373  -0.309  -0.304  -0.298  -0.296

          Ground-State Mulliken Net Atomic Charges

     Atom                 Charge (a.u.)    Spin (a.u.)
  --------------------------------------------------------
      1 Cl                   -0.078865       0.000000
      2 Cl                   -0.066183      -0.000000
      3 C                    -0.174464       0.000000
      4 C                    -0.268657       0.000000
      5 C                    -0.303807       0.000000
      6 H                     0.159691      -0.000000
      7 H                     0.159795      -0.000000
      8 H                     0.173131       0.000000
      9 H                     0.152660      -0.000000
     10 H                     0.131612      -0.000000
     11 H                     0.115087      -0.000000
  --------------------------------------------------------
  Sum of atomic charges =    -0.000000

                    Cartesian Multipole Moments
 -----------------------------------------------------------------
    Charge (ESU x 10^10)
                -0.0000
    Dipole Moment (Debye)
         X      -0.5179      Y      -2.0703      Z      -2.0920
       Tot       2.9884
    Quadrupole Moments (Debye-Ang)
        XX     -48.0934     XY       1.9401     YY     -45.2457
        XZ      -1.2437     YZ      -0.1530     ZZ     -42.6012

 Final energy is   -1038.34156583741
 **  OPTIMIZATION CONVERGED  **
 Total job time:  13.54s(wall), 153.16s(cpu)
        *  Thank you very much for using Q-Chem.  Have a nice day.  *
