 Q-Chem 5.1, Q-Chem, Inc., Pleasanton, CA (2018)
 Q-Chem 5.1.1 for Intel X86 EM64T Linux

User input:
--------------------------------------------------------------

$comment
potential surface scanner
$end

$rem
JOBTYPE  PES_SCAN
UNRESTRICTED TRUE
SYM_IGNORE  TRUE
GEOM_OPT_MAX_CYCLES 400
SCF_MAX_CYCLES 400
METHOD   B3LYP
BASIS   6-31G**
PDB_PRINT 2
SCF_CONVERGENCE 6
THRESH 14
SCF_PRINT 1
$end
$molecule
0 1
Cl -1.282175 1.380449 0.198559
Cl 2.058750 0.112634 0.763122
C -0.643743 -0.179179 -0.494749
C 0.794108 -0.036183 -0.906768
C -0.943410 -1.345759 0.435923
H -1.195434 -0.300324 -1.437098
H 1.195436 -0.929605 -1.380841
H 1.038826 0.880742 -1.433173
H -0.433639 -1.211740 1.391142
H -2.018073 -1.428279 0.609170
H -0.590349 -2.277356 -0.020485
$end
$scan
stre 2 4 2.200000 2.201000 0.100000
$end
--------------------------------------------------------------

    9   -1038.3253353316      7.21e-07  Convergence criterion met
 Total energy in the final basis set =    -1038.3253353316
    9   -1038.3161357754      7.87e-07  Convergence criterion met
 Total energy in the final basis set =    -1038.3161357754
    9   -1038.3161183529      7.88e-07  Convergence criterion met
 Total energy in the final basis set =    -1038.3161183529
    9   -1038.3162137316      7.89e-07  Convergence criterion met
 Total energy in the final basis set =    -1038.3162137316
    9   -1038.3162161350      7.90e-07  Convergence criterion met
 Total energy in the final basis set =    -1038.3162161350

             Standard Nuclear Orientation (Angstroms)
    I     Atom           X                Y                Z
 ----------------------------------------------------------------
    1      Cl     -1.2876575690     1.3819161871     0.1879576205
    2      Cl      2.0955958686     0.1059216260     0.8169798380
    3      C      -0.6536792534    -0.1787367322    -0.5018261825
    4      C       0.7718828581    -0.0384271271    -0.9342901873
    5      C      -0.9418388581    -1.3445570179     0.4341566928
    6      H      -1.2139162120    -0.3059687850    -1.4400977361
    7      H       1.1951358261    -0.9329349698    -1.3843815042
    8      H       1.0407724628     0.8876381936    -1.4303290082
    9      H      -0.4196677417    -1.2054456900     1.3818046209
   10      H      -2.0144203462    -1.4277646020     0.6190130115
   11      H      -0.5919100351    -2.2762410827    -0.0241851654
 ----------------------------------------------------------------

    9   -1038.3162168281      7.90e-07  Convergence criterion met
 Total energy in the final basis set =    -1038.3162168281

                    Orbital Energies (a.u.)
 --------------------------------------------------------------

 Alpha MOs
 -- Occupied --
*******-101.522 -10.289 -10.286 -10.206  -9.461  -9.435  -7.225
 -7.215  -7.215  -7.199  -7.189  -7.189  -0.887  -0.795  -0.762
 -0.717  -0.605  -0.501  -0.497  -0.461  -0.412  -0.396  -0.388
 -0.346  -0.311  -0.308  -0.289  -0.287

 Beta MOs
 -- Occupied --
*******-101.522 -10.289 -10.286 -10.206  -9.461  -9.435  -7.225
 -7.215  -7.215  -7.199  -7.189  -7.189  -0.887  -0.795  -0.762
 -0.717  -0.605  -0.501  -0.497  -0.461  -0.412  -0.396  -0.388
 -0.346  -0.311  -0.308  -0.289  -0.287

          Ground-State Mulliken Net Atomic Charges

     Atom                 Charge (a.u.)    Spin (a.u.)
  --------------------------------------------------------
      1 Cl                   -0.052848      -0.000000
      2 Cl                   -0.242899      -0.000000
      3 C                    -0.183836      -0.000000
      4 C                    -0.178666       0.000000
      5 C                    -0.303008       0.000000
      6 H                     0.172929      -0.000000
      7 H                     0.179193       0.000000
      8 H                     0.191064      -0.000000
      9 H                     0.167882      -0.000000
     10 H                     0.132523       0.000000
     11 H                     0.117667      -0.000000
  --------------------------------------------------------
  Sum of atomic charges =    -0.000000

                    Cartesian Multipole Moments
 -----------------------------------------------------------------
    Charge (ESU x 10^10)
                -0.0000
    Dipole Moment (Debye)
         X      -1.6576      Y      -2.0897      Z      -3.0161
       Tot       4.0264
    Quadrupole Moments (Debye-Ang)
        XX     -50.3021     XY       1.7490     YY     -44.8845
        XZ      -2.7210     YZ      -0.1140     ZZ     -42.4523

 Final energy is   -1038.31621682813
 **  OPTIMIZATION CONVERGED  **
 Total job time:  20.76s(wall), 229.06s(cpu)
        *  Thank you very much for using Q-Chem.  Have a nice day.  *
