 Q-Chem 5.1, Q-Chem, Inc., Pleasanton, CA (2018)
 Q-Chem 5.1.1 for Intel X86 EM64T Linux

User input:
--------------------------------------------------------------

$comment
potential surface scanner
$end

$rem
JOBTYPE  PES_SCAN
UNRESTRICTED TRUE
SYM_IGNORE  TRUE
GEOM_OPT_MAX_CYCLES 400
SCF_MAX_CYCLES 400
METHOD   B3LYP
BASIS   6-31G**
PDB_PRINT 2
SCF_CONVERGENCE 6
THRESH 14
SCF_PRINT 1
$end
$molecule
0 3
Cl 0.811100 0.780293 0.921584
Cl -1.364975 1.878893 2.268488
C -0.360878 -0.381770 -0.243925
C -0.196275 0.114135 -1.588943
C 0.068666 -1.805603 0.033178
H -1.307132 -0.106142 0.218599
H -0.722153 1.003482 -1.916437
H 0.559703 -0.309795 -2.242282
H 1.081563 -1.992363 -0.333097
H 0.027157 -2.033652 1.099372
H -0.616477 -2.482080 -0.491734
$end
$scan
stre 2 4 4.300000 4.301000 0.100000
$end
--------------------------------------------------------------

   11   -1038.2309531005      8.13e-07  Convergence criterion met
 Total energy in the final basis set =    -1038.2309531005
   11   -1038.2303393001      8.41e-07  Convergence criterion met
 Total energy in the final basis set =    -1038.2303393001
   11   -1038.2308433293      7.82e-07  Convergence criterion met
 Total energy in the final basis set =    -1038.2308433293
   11   -1038.2310599364      7.52e-07  Convergence criterion met
 Total energy in the final basis set =    -1038.2310599364
   11   -1038.2310820286      7.53e-07  Convergence criterion met
 Total energy in the final basis set =    -1038.2310820286
   11   -1038.2310974122      7.63e-07  Convergence criterion met
 Total energy in the final basis set =    -1038.2310974122
   11   -1038.2311021231      7.72e-07  Convergence criterion met
 Total energy in the final basis set =    -1038.2311021231
   11   -1038.2311047714      7.81e-07  Convergence criterion met
 Total energy in the final basis set =    -1038.2311047714
   11   -1038.2311060194      7.85e-07  Convergence criterion met
 Total energy in the final basis set =    -1038.2311060194
   11   -1038.2311071928      7.87e-07  Convergence criterion met
 Total energy in the final basis set =    -1038.2311071928

             Standard Nuclear Orientation (Angstroms)
    I     Atom           X                Y                Z
 ----------------------------------------------------------------
    1      Cl      0.8269635656     0.7583763947     0.9465279983
    2      Cl     -1.3834375177     1.9280482494     2.1596154246
    3      C      -0.3581276096    -0.3936500150    -0.2286131237
    4      C      -0.2039430509     0.1277748088    -1.5629923158
    5      C       0.0744827001    -1.8199323013     0.0258373657
    6      H      -1.2974670277    -0.1207036116     0.2484618239
    7      H      -0.7321301562     1.0239079486    -1.8675011290
    8      H       0.5441930544    -0.2843124349    -2.2328418208
    9      H       1.0816684500    -2.0044469508    -0.3569313930
   10      H       0.0474418119    -2.0601667605     1.0898406029
   11      H      -0.6193452200    -2.4894973275    -0.4966004332
 ----------------------------------------------------------------

   11   -1038.2311081332      7.87e-07  Convergence criterion met
 Total energy in the final basis set =    -1038.2311081332

                    Orbital Energies (a.u.)
 --------------------------------------------------------------

 Alpha MOs
 -- Occupied --
*******-101.529 -10.280 -10.242 -10.214  -9.474  -9.442  -7.238
 -7.233  -7.227  -7.213  -7.195  -7.195  -0.870  -0.798  -0.776
 -0.725  -0.609  -0.507  -0.467  -0.461  -0.408  -0.404  -0.390
 -0.369  -0.329  -0.297  -0.293  -0.290  -0.257

 Beta MOs
 -- Occupied --
*******-101.524 -10.281 -10.230 -10.213  -9.471  -9.437  -7.231
 -7.226  -7.225  -7.196  -7.192  -7.192  -0.856  -0.776  -0.737
 -0.708  -0.599  -0.501  -0.461  -0.453  -0.402  -0.398  -0.371
 -0.325  -0.319  -0.284  -0.280

          Ground-State Mulliken Net Atomic Charges

     Atom                 Charge (a.u.)    Spin (a.u.)
  --------------------------------------------------------
      1 Cl                   -0.056847       0.446364
      2 Cl                   -0.209806       0.768977
      3 C                    -0.165681      -0.066797
      4 C                    -0.147237       0.915714
      5 C                    -0.313242       0.004558
      6 H                     0.195832       0.010782
      7 H                     0.147264      -0.039998
      8 H                     0.133206      -0.039980
      9 H                     0.133559      -0.000956
     10 H                     0.147701       0.002060
     11 H                     0.135250      -0.000723
  --------------------------------------------------------
  Sum of atomic charges =    -0.000000

                    Cartesian Multipole Moments
 -----------------------------------------------------------------
    Charge (ESU x 10^10)
                -0.0000
    Dipole Moment (Debye)
         X       0.2710      Y      -3.2369      Z      -3.5988
       Tot       4.8479
    Quadrupole Moments (Debye-Ang)
        XX     -45.7262     XY       1.3510     YY     -47.1052
        XZ       1.7511     YZ      -4.7088     ZZ     -48.0335

 Final energy is   -1038.23110813316
 **  OPTIMIZATION CONVERGED  **
 Total job time:  38.02s(wall), 445.95s(cpu)
        *  Thank you very much for using Q-Chem.  Have a nice day.  *
