 Q-Chem 5.1, Q-Chem, Inc., Pleasanton, CA (2018)
 Q-Chem 5.1.1 for Intel X86 EM64T Linux

User input:
--------------------------------------------------------------

$comment
potential surface scanner
$end

$rem
JOBTYPE  PES_SCAN
UNRESTRICTED TRUE
SYM_IGNORE  TRUE
GEOM_OPT_MAX_CYCLES 400
SCF_MAX_CYCLES 400
METHOD   B3LYP
BASIS   6-31G**
PDB_PRINT 2
SCF_CONVERGENCE 6
THRESH 14
SCF_PRINT 1
$end
$molecule
0 1
Cl -1.434956 1.389725 0.005824
Cl 2.425066 -0.186697 1.358539
C -0.746308 -0.170548 -0.598846
C 0.601556 -0.008283 -1.142056
C -0.891689 -1.298199 0.434662
H -1.363030 -0.432631 -1.481506
H 1.120870 -0.886415 -1.514163
H 1.023402 0.966467 -1.357616
H -0.267978 -1.067898 1.300572
H -1.938961 -1.399922 0.723309
H -0.547675 -2.240201 -0.003920
$end
$scan
stre 2 4 3.200000 3.201000 0.100000
$end
--------------------------------------------------------------

   11   -1038.2435057045      7.65e-07  Convergence criterion met
 Total energy in the final basis set =    -1038.2435057045
   11   -1038.2377753781      4.76e-07  Convergence criterion met
 Total energy in the final basis set =    -1038.2377753781
   11   -1038.2377203038      4.66e-07  Convergence criterion met
 Total energy in the final basis set =    -1038.2377203038
   11   -1038.2377272475      4.67e-07  Convergence criterion met
 Total energy in the final basis set =    -1038.2377272475
   11   -1038.2377325070      4.68e-07  Convergence criterion met
 Total energy in the final basis set =    -1038.2377325070
   11   -1038.2377342650      4.67e-07  Convergence criterion met
 Total energy in the final basis set =    -1038.2377342650
   11   -1038.2377363268      4.65e-07  Convergence criterion met
 Total energy in the final basis set =    -1038.2377363268
   11   -1038.2377383232      4.63e-07  Convergence criterion met
 Total energy in the final basis set =    -1038.2377383232
   11   -1038.2377409528      4.61e-07  Convergence criterion met
 Total energy in the final basis set =    -1038.2377409528
   11   -1038.2377431391      4.60e-07  Convergence criterion met
 Total energy in the final basis set =    -1038.2377431391
   11   -1038.2377442130      4.61e-07  Convergence criterion met
 Total energy in the final basis set =    -1038.2377442130

             Standard Nuclear Orientation (Angstroms)
    I     Atom           X                Y                Z
 ----------------------------------------------------------------
    1      Cl     -1.4582805203     1.3893206284    -0.0198140331
    2      Cl      2.4605312927    -0.2412183752     1.4205502588
    3      C      -0.7565869696    -0.1692162532    -0.6114907296
    4      C       0.5857038855    -0.0008904339    -1.1615540196
    5      C      -0.8829460786    -1.2887797667     0.4369769003
    6      H      -1.3774470370    -0.4526042430    -1.4845655325
    7      H       1.1072586905    -0.8756241182    -1.5388550216
    8      H       1.0171664523     0.9754144468    -1.3499831216
    9      H      -0.2572105564    -1.0415359354     1.2969481322
   10      H      -1.9283021451    -1.3984457484     0.7297645614
   11      H      -0.5295900139    -2.2310222011     0.0068216054
 ----------------------------------------------------------------

   11   -1038.2377445288      4.61e-07  Convergence criterion met
 Total energy in the final basis set =    -1038.2377445288

                    Orbital Energies (a.u.)
 --------------------------------------------------------------

 Alpha MOs
 -- Occupied --
*******-101.480 -10.323 -10.313 -10.223  -9.483  -9.392  -7.248
 -7.237  -7.237  -7.155  -7.147  -7.147  -0.913  -0.807  -0.743
 -0.715  -0.633  -0.533  -0.517  -0.484  -0.433  -0.417  -0.405
 -0.333  -0.330  -0.266  -0.250  -0.249

 Beta MOs
 -- Occupied --
*******-101.480 -10.323 -10.313 -10.223  -9.483  -9.392  -7.248
 -7.237  -7.237  -7.155  -7.147  -7.147  -0.913  -0.807  -0.743
 -0.715  -0.633  -0.533  -0.517  -0.484  -0.433  -0.417  -0.405
 -0.333  -0.330  -0.266  -0.250  -0.249

          Ground-State Mulliken Net Atomic Charges

     Atom                 Charge (a.u.)    Spin (a.u.)
  --------------------------------------------------------
      1 Cl                   -0.018432       0.000000
      2 Cl                   -0.462212       0.000000
      3 C                    -0.233116       0.000000
      4 C                    -0.062107      -0.000000
      5 C                    -0.303604       0.000000
      6 H                     0.200783      -0.000000
      7 H                     0.197266      -0.000000
      8 H                     0.213244       0.000000
      9 H                     0.199536      -0.000000
     10 H                     0.139255      -0.000000
     11 H                     0.129387      -0.000000
  --------------------------------------------------------
  Sum of atomic charges =    -0.000000

                    Cartesian Multipole Moments
 -----------------------------------------------------------------
    Charge (ESU x 10^10)
                 0.0000
    Dipole Moment (Debye)
         X      -4.1241      Y      -1.4572      Z      -5.3765
       Tot       6.9309
    Quadrupole Moments (Debye-Ang)
        XX     -56.3286     XY       3.4337     YY     -44.1570
        XZ      -7.8791     YZ       0.8698     ZZ     -44.3628

 Final energy is   -1038.23774452878
 **  OPTIMIZATION CONVERGED  **
 Total job time:  42.86s(wall), 497.54s(cpu)
        *  Thank you very much for using Q-Chem.  Have a nice day.  *
