 Q-Chem 5.1, Q-Chem, Inc., Pleasanton, CA (2018)
 Q-Chem 5.1.1 for Intel X86 EM64T Linux

User input:
--------------------------------------------------------------

$comment
potential surface scanner
$end

$rem
JOBTYPE  PES_SCAN
UNRESTRICTED TRUE
SYM_IGNORE  TRUE
GEOM_OPT_MAX_CYCLES 400
SCF_MAX_CYCLES 400
METHOD   B3LYP
BASIS   6-31G**
PDB_PRINT 2
SCF_CONVERGENCE 6
THRESH 14
SCF_PRINT 1
$end
$molecule
0 3
Cl 0.080771 0.402209 2.685745
Cl 0.164220 1.906288 0.394719
C -0.769044 -0.768993 -0.450339
C -0.586316 0.404098 -1.176944
C 0.289827 -1.777108 -0.205735
H -1.718875 -0.906749 0.062045
H -1.443768 1.013694 -1.436627
H 0.289354 0.510758 -1.809006
H 1.160502 -1.636977 -0.850872
H 0.613055 -1.687426 0.842094
H -0.099439 -2.794397 -0.330279
$end
$scan
stre 2 4 2.200000 2.201000 0.100000
$end
--------------------------------------------------------------

   12   -1038.2348393352      5.23e-07  Convergence criterion met
 Total energy in the final basis set =    -1038.2348393352
   11   -1038.2347525185      7.35e-07  Convergence criterion met
 Total energy in the final basis set =    -1038.2347525185
   11   -1038.2350131187      7.33e-07  Convergence criterion met
 Total energy in the final basis set =    -1038.2350131187
   11   -1038.2352080259      7.38e-07  Convergence criterion met
 Total energy in the final basis set =    -1038.2352080259
   11   -1038.2352138420      7.37e-07  Convergence criterion met
 Total energy in the final basis set =    -1038.2352138420
   11   -1038.2352185593      7.35e-07  Convergence criterion met
 Total energy in the final basis set =    -1038.2352185593

             Standard Nuclear Orientation (Angstroms)
    I     Atom           X                Y                Z
 ----------------------------------------------------------------
    1      Cl      0.0629251076     0.4219112640     2.6679038353
    2      Cl      0.1604666748     1.8911658849     0.3442963354
    3      C      -0.7701812256    -0.7721767959    -0.4401704219
    4      C      -0.5706741173     0.4332331858    -1.1321403842
    5      C       0.2898466653    -1.7831547618    -0.2076961724
    6      H      -1.7232835191    -0.9161323806     0.0636548540
    7      H      -1.4380215701     1.0165835688    -1.4203715681
    8      H       0.2879120684     0.5152855949    -1.7915685015
    9      H       1.1591593725    -1.6349239354    -0.8534320478
   10      H       0.6191895081    -1.7067696718     0.8392187322
   11      H      -0.0970519646    -2.7996249529    -0.3448936608
 ----------------------------------------------------------------

   11   -1038.2352192791      7.34e-07  Convergence criterion met
 Total energy in the final basis set =    -1038.2352192791

                    Orbital Energies (a.u.)
 --------------------------------------------------------------

 Alpha MOs
 -- Occupied --
*******-101.521 -10.268 -10.259 -10.211  -9.465  -9.434  -7.230
 -7.225  -7.218  -7.204  -7.187  -7.187  -0.854  -0.808  -0.770
 -0.725  -0.609  -0.515  -0.470  -0.453  -0.412  -0.398  -0.393
 -0.373  -0.320  -0.290  -0.285  -0.280  -0.255

 Beta MOs
 -- Occupied --
*******-101.515 -10.268 -10.250 -10.212  -9.460  -9.428  -7.219
 -7.216  -7.215  -7.187  -7.184  -7.184  -0.835  -0.780  -0.734
 -0.715  -0.598  -0.511  -0.466  -0.436  -0.408  -0.395  -0.363
 -0.320  -0.308  -0.277  -0.272

          Ground-State Mulliken Net Atomic Charges

     Atom                 Charge (a.u.)    Spin (a.u.)
  --------------------------------------------------------
      1 Cl                   -0.235767       0.737169
      2 Cl                   -0.115504       0.616922
      3 C                     0.035604       0.659020
      4 C                    -0.265023      -0.005992
      5 C                    -0.362465      -0.045574
      6 H                     0.144908      -0.028743
      7 H                     0.178545       0.001851
      8 H                     0.172472       0.001623
      9 H                     0.125991       0.002426
     10 H                     0.185866       0.041391
     11 H                     0.135375       0.019905
  --------------------------------------------------------
  Sum of atomic charges =     0.000000

                    Cartesian Multipole Moments
 -----------------------------------------------------------------
    Charge (ESU x 10^10)
                 0.0000
    Dipole Moment (Debye)
         X      -1.1254      Y      -2.7025      Z      -4.4385
       Tot       5.3170
    Quadrupole Moments (Debye-Ang)
        XX     -43.4383     XY      -0.4639     YY     -44.9988
        XZ       0.2435     YZ      -3.5420     ZZ     -50.3549

 Final energy is   -1038.23521927909
 **  OPTIMIZATION CONVERGED  **
 Total job time:  28.00s(wall), 295.57s(cpu)
        *  Thank you very much for using Q-Chem.  Have a nice day.  *
