 Q-Chem 5.1, Q-Chem, Inc., Pleasanton, CA (2018)
 Q-Chem 5.1.1 for Intel X86 EM64T Linux

User input:
--------------------------------------------------------------

$comment
potential surface scanner
$end

$rem
JOBTYPE  PES_SCAN
UNRESTRICTED TRUE
SYM_IGNORE  TRUE
GEOM_OPT_MAX_CYCLES 400
SCF_MAX_CYCLES 400
METHOD   B3LYP
BASIS   6-31G**
PDB_PRINT 2
SCF_CONVERGENCE 6
THRESH 14
SCF_PRINT 1
$end
$molecule
0 1
Cl -1.271337 1.376813 0.223864
Cl 1.954052 0.118637 0.611689
C -0.615377 -0.179542 -0.477229
C 0.860334 -0.027482 -0.823928
C -0.945393 -1.347408 0.440549
H -1.141317 -0.286818 -1.431387
H 1.187714 -0.914977 -1.371435
H 1.028018 0.858113 -1.436294
H -0.469897 -1.223340 1.415209
H -2.024892 -1.429544 0.581904
H -0.581605 -2.279052 -0.008144
$end
$scan
stre 2 4 0.900000 0.901000 0.100000
$end
--------------------------------------------------------------

    9   -1038.3416009812      3.04e-07  Convergence criterion met
 Total energy in the final basis set =    -1038.3416009812
    9   -1038.3314265140      3.14e-07  Convergence criterion met
 Total energy in the final basis set =    -1038.3314265140
    9   -1038.2896821713      3.90e-07  Convergence criterion met
 Total energy in the final basis set =    -1038.2896821713
    9   -1038.2110098581      4.52e-07  Convergence criterion met
 Total energy in the final basis set =    -1038.2110098581
    9   -1038.0934157141      5.18e-07  Convergence criterion met
 Total energy in the final basis set =    -1038.0934157141
    9   -1037.8895790589      6.20e-07  Convergence criterion met
 Total energy in the final basis set =    -1037.8895790589
    9   -1037.5862303872      7.25e-07  Convergence criterion met
 Total energy in the final basis set =    -1037.5862303872
    9   -1037.3273926278      7.29e-07  Convergence criterion met
   10   -1036.4079831465      5.52e-07  Convergence criterion met
 Total energy in the final basis set =    -1036.4079831465
   10   -1036.4080254194      5.48e-07  Convergence criterion met
 Total energy in the final basis set =    -1036.4080254194
   10   -1036.4080392048      5.45e-07  Convergence criterion met
 Total energy in the final basis set =    -1036.4080392048
   10   -1036.4080449049      5.43e-07  Convergence criterion met
 Total energy in the final basis set =    -1036.4080449049
   10   -1036.4080491922      5.42e-07  Convergence criterion met
 Total energy in the final basis set =    -1036.4080491922
   10   -1036.4080510302      5.43e-07  Convergence criterion met
 Total energy in the final basis set =    -1036.4080510302

             Standard Nuclear Orientation (Angstroms)
    I     Atom           X                Y                Z
 ----------------------------------------------------------------
    1      Cl     -1.0647978183     1.2949828801     0.6557605491
    2      Cl      1.6458507346     0.9972554684    -0.2133203576
    3      C      -0.7811094812    -0.1555859942    -0.3833390032
    4      C       1.3787390133     0.2514340022    -0.6404055904
    5      C      -1.0848902386    -1.4549727163     0.3090194818
    6      H      -1.3370810874     0.0068538466    -1.3091447884
    7      H       1.4979986595    -0.8648928961    -0.3801964129
    8      H       1.1748406854     0.0357397419    -1.7513737557
    9      H      -0.4820602110    -1.5799902913     1.2171073021
   10      H      -2.1391815742    -1.5891193603     0.5941863781
   11      H      -0.8280086820    -2.2763046810    -0.3734958028
 ----------------------------------------------------------------

   10   -1036.4080514976      5.43e-07  Convergence criterion met
 Total energy in the final basis set =    -1036.4080514976

                    Orbital Energies (a.u.)
 --------------------------------------------------------------

 Alpha MOs
 -- Occupied --
*******-101.522 -10.371 -10.194 -10.172  -9.619  -9.438  -7.394
 -7.352  -7.349  -7.201  -7.194  -7.193  -1.146  -0.830  -0.716
 -0.680  -0.654  -0.612  -0.558  -0.511  -0.429  -0.400  -0.376
 -0.348  -0.307  -0.284  -0.228  -0.171

 Beta MOs
 -- Occupied --
*******-101.522 -10.371 -10.194 -10.172  -9.619  -9.438  -7.394
 -7.352  -7.349  -7.201  -7.194  -7.193  -1.146  -0.830  -0.716
 -0.680  -0.654  -0.612  -0.558  -0.511  -0.429  -0.400  -0.376
 -0.348  -0.307  -0.284  -0.228  -0.171

          Ground-State Mulliken Net Atomic Charges

     Atom                 Charge (a.u.)    Spin (a.u.)
  --------------------------------------------------------
      1 Cl                   -0.126931       0.000000
      2 Cl                    0.724100      -0.000000
      3 C                    -0.343127      -0.000000
      4 C                    -0.518645       0.000000
      5 C                    -0.287931       0.000000
      6 H                     0.117041       0.000000
      7 H                     0.059808       0.000000
      8 H                     0.062809       0.000000
      9 H                     0.100539      -0.000000
     10 H                     0.108672       0.000000
     11 H                     0.103665      -0.000000
  --------------------------------------------------------
  Sum of atomic charges =    -0.000000

                    Cartesian Multipole Moments
 -----------------------------------------------------------------
    Charge (ESU x 10^10)
                -0.0000
    Dipole Moment (Debye)
         X       2.7545      Y      -0.7076      Z      -1.1387
       Tot       3.0634
    Quadrupole Moments (Debye-Ang)
        XX     -40.9386     XY       2.7585     YY     -45.1732
        XZ       0.0070     YZ      -1.4175     ZZ     -43.8125

 Final energy is   -1036.40805149762
 **  OPTIMIZATION CONVERGED  **
 Total job time:  226.87s(wall), 2583.48s(cpu)
        *  Thank you very much for using Q-Chem.  Have a nice day.  *
