 Q-Chem 5.1, Q-Chem, Inc., Pleasanton, CA (2018)
 Q-Chem 5.1.1 for Intel X86 EM64T Linux

User input:
--------------------------------------------------------------

$comment
potential surface scanner
$end

$rem
JOBTYPE  PES_SCAN
UNRESTRICTED TRUE
SYM_IGNORE  TRUE
GEOM_OPT_MAX_CYCLES 400
SCF_MAX_CYCLES 400
METHOD   B3LYP
BASIS   6-31G**
PDB_PRINT 2
SCF_CONVERGENCE 6
THRESH 14
SCF_PRINT 1
$end
$molecule
0 1
Cl -1.271337 1.376813 0.223864
Cl 1.954052 0.118637 0.611689
C -0.615377 -0.179542 -0.477229
C 0.860334 -0.027482 -0.823928
C -0.945393 -1.347408 0.440549
H -1.141317 -0.286818 -1.431387
H 1.187714 -0.914977 -1.371435
H 1.028018 0.858113 -1.436294
H -0.469897 -1.223340 1.415209
H -2.024892 -1.429544 0.581904
H -0.581605 -2.279052 -0.008144
$end
$scan
stre 2 4 1.300000 1.301000 0.100000
$end
--------------------------------------------------------------

    9   -1038.3416009812      3.04e-07  Convergence criterion met
 Total energy in the final basis set =    -1038.3416009812
    9   -1038.3314265140      3.14e-07  Convergence criterion met
 Total energy in the final basis set =    -1038.3314265140
    9   -1038.2896821713      3.90e-07  Convergence criterion met
 Total energy in the final basis set =    -1038.2896821713
    9   -1038.2110098581      4.52e-07  Convergence criterion met
 Total energy in the final basis set =    -1038.2110098581
    9   -1038.1290709119      5.11e-07  Convergence criterion met
 Total energy in the final basis set =    -1038.1290709119
    9   -1038.1193500307      5.28e-07  Convergence criterion met
 Total energy in the final basis set =    -1038.1193500307
    9   -1038.1191930091      5.39e-07  Convergence criterion met
 Total energy in the final basis set =    -1038.1191930091
    9   -1038.1192430661      5.42e-07  Convergence criterion met
    9   -1038.1192633069      5.40e-07  Convergence criterion met
 Total energy in the final basis set =    -1038.1192633069
    9   -1038.1192674252      5.40e-07  Convergence criterion met
 Total energy in the final basis set =    -1038.1192674252
    9   -1038.1192709441      5.40e-07  Convergence criterion met
 Total energy in the final basis set =    -1038.1192709441
    9   -1038.1192741670      5.40e-07  Convergence criterion met
 Total energy in the final basis set =    -1038.1192741670
    9   -1038.1192766920      5.41e-07  Convergence criterion met
 Total energy in the final basis set =    -1038.1192766920
    9   -1038.1192781969      5.41e-07  Convergence criterion met
 Total energy in the final basis set =    -1038.1192781969

             Standard Nuclear Orientation (Angstroms)
    I     Atom           X                Y                Z
 ----------------------------------------------------------------
    1      Cl     -1.2648042818     1.3720875866     0.2631880537
    2      Cl      1.7802452318     0.1304616906     0.3560756878
    3      C      -0.5790989263    -0.1748088775    -0.4509569735
    4      C       0.9906328858    -0.0061056878    -0.6675755488
    5      C      -0.9451722913    -1.3481322151     0.4428213764
    6      H      -1.0431094121    -0.2613828547    -1.4350177751
    7      H       1.1482215546    -0.8976997287    -1.3334767803
    8      H       0.9995694149     0.8001704355    -1.4407883029
    9      H      -0.5085180156    -1.2397369259     1.4396377100
   10      H      -2.0282852421    -1.4322127686     0.5534160084
   11      H      -0.5693809177    -2.2772406543    -0.0025254557
 ----------------------------------------------------------------

    9   -1038.1192787803      5.40e-07  Convergence criterion met
 Total energy in the final basis set =    -1038.1192787803

                    Orbital Energies (a.u.)
 --------------------------------------------------------------

 Alpha MOs
 -- Occupied --
*******-101.527 -10.255 -10.238 -10.194  -9.482  -9.443  -7.245
 -7.234  -7.234  -7.207  -7.198  -7.197  -1.033  -0.849  -0.748
 -0.673  -0.582  -0.524  -0.522  -0.487  -0.444  -0.409  -0.392
 -0.370  -0.307  -0.293  -0.272  -0.267

 Beta MOs
 -- Occupied --
*******-101.527 -10.255 -10.238 -10.194  -9.482  -9.443  -7.245
 -7.234  -7.234  -7.207  -7.198  -7.197  -1.033  -0.849  -0.748
 -0.673  -0.582  -0.524  -0.522  -0.487  -0.444  -0.409  -0.392
 -0.370  -0.307  -0.293  -0.272  -0.267

          Ground-State Mulliken Net Atomic Charges

     Atom                 Charge (a.u.)    Spin (a.u.)
  --------------------------------------------------------
      1 Cl                   -0.107933      -0.000000
      2 Cl                    0.120053      -0.000000
      3 C                    -0.193199      -0.000000
      4 C                    -0.272623       0.000000
      5 C                    -0.310307       0.000000
      6 H                     0.147991       0.000000
      7 H                     0.106297      -0.000000
      8 H                     0.124452      -0.000000
      9 H                     0.137633       0.000000
     10 H                     0.133987      -0.000000
     11 H                     0.113649      -0.000000
  --------------------------------------------------------
  Sum of atomic charges =     0.000000

                    Cartesian Multipole Moments
 -----------------------------------------------------------------
    Charge (ESU x 10^10)
                 0.0000
    Dipole Moment (Debye)
         X       0.5708      Y      -2.0339      Z      -1.2393
       Tot       2.4492
    Quadrupole Moments (Debye-Ang)
        XX     -45.8387     XY       2.2027     YY     -45.4066
        XZ      -0.2728     YZ      -0.2808     ZZ     -43.2784

 Final energy is   -1038.11927878025
 **  OPTIMIZATION CONVERGED  **
 Total job time:  58.86s(wall), 658.80s(cpu)
        *  Thank you very much for using Q-Chem.  Have a nice day.  *
