 Q-Chem 5.1, Q-Chem, Inc., Pleasanton, CA (2018)
 Q-Chem 5.1.1 for Intel X86 EM64T Linux

User input:
--------------------------------------------------------------

$comment
potential surface scanner
$end

$rem
JOBTYPE  PES_SCAN
UNRESTRICTED TRUE
SYM_IGNORE  TRUE
GEOM_OPT_MAX_CYCLES 400
SCF_MAX_CYCLES 400
METHOD   B3LYP
BASIS   6-31G**
PDB_PRINT 2
SCF_CONVERGENCE 6
THRESH 14
SCF_PRINT 1
$end
$molecule
0 1
Cl -1.271337 1.376813 0.223864
Cl 1.954052 0.118637 0.611689
C -0.615377 -0.179542 -0.477229
C 0.860334 -0.027482 -0.823928
C -0.945393 -1.347408 0.440549
H -1.141317 -0.286818 -1.431387
H 1.187714 -0.914977 -1.371435
H 1.028018 0.858113 -1.436294
H -0.469897 -1.223340 1.415209
H -2.024892 -1.429544 0.581904
H -0.581605 -2.279052 -0.008144
$end
$scan
stre 2 4 1.600000 1.601000 0.100000
$end
--------------------------------------------------------------

    9   -1038.3416009812      3.04e-07  Convergence criterion met
 Total energy in the final basis set =    -1038.3416009812
    9   -1038.3314265140      3.14e-07  Convergence criterion met
 Total energy in the final basis set =    -1038.3314265140
    9   -1038.3203800649      3.70e-07  Convergence criterion met
 Total energy in the final basis set =    -1038.3203800649
    9   -1038.3210181823      3.94e-07  Convergence criterion met
 Total energy in the final basis set =    -1038.3210181823
    9   -1038.3214808549      4.28e-07  Convergence criterion met
 Total energy in the final basis set =    -1038.3214808549
    9   -1038.3214965819      4.29e-07  Convergence criterion met
 Total energy in the final basis set =    -1038.3214965819

             Standard Nuclear Orientation (Angstroms)
    I     Atom           X                Y                Z
 ----------------------------------------------------------------
    1      Cl     -1.2666047227     1.3751685631     0.2383414898
    2      Cl      1.8813071205     0.1143734288     0.5022100245
    3      C      -0.5956714161    -0.1786008922    -0.4652443983
    4      C       0.9109643052    -0.0200696376    -0.7628432870
    5      C      -0.9452979869    -1.3472070940     0.4443025273
    6      H      -1.1010844467    -0.2798290304    -1.4288702187
    7      H       1.1740720103    -0.9011378982    -1.3666592604
    8      H       1.0166628261     0.8403614133    -1.4335637139
    9      H      -0.4954789041    -1.2275722446     1.4323191334
   10      H      -2.0275109974    -1.4318395837     0.5624643327
   11      H      -0.5710577882    -2.2782470245     0.0023413706
 ----------------------------------------------------------------

    9   -1038.3215085842      4.30e-07  Convergence criterion met
 Total energy in the final basis set =    -1038.3215085842

                    Orbital Energies (a.u.)
 --------------------------------------------------------------

 Alpha MOs
 -- Occupied --
*******-101.531 -10.265 -10.250 -10.197  -9.466  -9.448  -7.229
 -7.219  -7.219  -7.212  -7.202  -7.202  -0.924  -0.850  -0.753
 -0.690  -0.587  -0.500  -0.490  -0.459  -0.435  -0.399  -0.387
 -0.372  -0.310  -0.301  -0.293  -0.291

 Beta MOs
 -- Occupied --
*******-101.531 -10.265 -10.250 -10.197  -9.466  -9.448  -7.229
 -7.219  -7.219  -7.212  -7.202  -7.202  -0.924  -0.850  -0.753
 -0.690  -0.587  -0.500  -0.490  -0.459  -0.435  -0.399  -0.387
 -0.372  -0.310  -0.301  -0.293  -0.291

          Ground-State Mulliken Net Atomic Charges

     Atom                 Charge (a.u.)    Spin (a.u.)
  --------------------------------------------------------
      1 Cl                   -0.090797       0.000000
      2 Cl                    0.013424      -0.000000
      3 C                    -0.178162       0.000000
      4 C                    -0.291656      -0.000000
      5 C                    -0.305489       0.000000
      6 H                     0.154202      -0.000000
      7 H                     0.145531       0.000000
      8 H                     0.160227      -0.000000
      9 H                     0.146589      -0.000000
     10 H                     0.131916      -0.000000
     11 H                     0.114216       0.000000
  --------------------------------------------------------
  Sum of atomic charges =    -0.000000

                    Cartesian Multipole Moments
 -----------------------------------------------------------------
    Charge (ESU x 10^10)
                -0.0000
    Dipole Moment (Debye)
         X      -0.0619      Y      -2.0556      Z      -1.7397
       Tot       2.6937
    Quadrupole Moments (Debye-Ang)
        XX     -47.2046     XY       2.0488     YY     -45.3404
        XZ      -0.7802     YZ      -0.1821     ZZ     -42.7747

 Final energy is   -1038.32150858422
 **  OPTIMIZATION CONVERGED  **
 Total job time:  24.22s(wall), 272.76s(cpu)
        *  Thank you very much for using Q-Chem.  Have a nice day.  *
