 Q-Chem 5.1, Q-Chem, Inc., Pleasanton, CA (2018)
 Q-Chem 5.1.1 for Intel X86 EM64T Linux

User input:
--------------------------------------------------------------

$comment
potential surface scanner
$end

$rem
JOBTYPE  PES_SCAN
UNRESTRICTED TRUE
SYM_IGNORE  TRUE
GEOM_OPT_MAX_CYCLES 400
SCF_MAX_CYCLES 400
METHOD   B3LYP
BASIS   6-31G**
PDB_PRINT 2
SCF_CONVERGENCE 6
THRESH 14
SCF_PRINT 1
$end
$molecule
0 3
Cl -0.225377 0.376270 1.698527
Cl 0.738639 2.499843 0.263727
C -0.710291 -0.710571 -0.046937
C -0.734009 0.262613 -1.087610
C 0.322850 -1.809044 -0.100387
H -1.689413 -1.019212 0.314483
H -1.585078 0.919905 -1.217368
H 0.133747 0.423098 -1.715610
H 1.318257 -1.402738 -0.294430
H 0.347914 -2.381424 0.828212
H 0.063050 -2.493342 -0.917801
$end
$scan
stre 2 4 2.900000 2.901000 0.100000
$end
--------------------------------------------------------------

   11   -1038.2295722102      7.53e-07  Convergence criterion met
 Total energy in the final basis set =    -1038.2295722102
   11   -1038.2288475154      7.72e-07  Convergence criterion met
 Total energy in the final basis set =    -1038.2288475154
   11   -1038.2288791531      7.58e-07  Convergence criterion met
 Total energy in the final basis set =    -1038.2288791531
   11   -1038.2289021203      7.64e-07  Convergence criterion met
 Total energy in the final basis set =    -1038.2289021203
   11   -1038.2289106392      7.75e-07  Convergence criterion met
 Total energy in the final basis set =    -1038.2289106392
   11   -1038.2289337919      8.36e-07  Convergence criterion met
 Total energy in the final basis set =    -1038.2289337919
   11   -1038.2289507532      9.13e-07  Convergence criterion met
 Total energy in the final basis set =    -1038.2289507532
   11   -1038.2289613596      9.81e-07  Convergence criterion met
 Total energy in the final basis set =    -1038.2289613596
   11   -1038.2289642477      9.99e-07  Convergence criterion met
 Total energy in the final basis set =    -1038.2289642477
   11   -1038.2289652563      9.97e-07  Convergence criterion met
 Total energy in the final basis set =    -1038.2289652563

             Standard Nuclear Orientation (Angstroms)
    I     Atom           X                Y                Z
 ----------------------------------------------------------------
    1      Cl     -0.2017287589     0.3835991486     1.7416743927
    2      Cl      0.6567733798     2.4790335917     0.2289238669
    3      C      -0.7064156131    -0.7146942147    -0.0647345611
    4      C      -0.7102280141     0.2785355003    -1.0745775893
    5      C       0.3195468616    -1.8165763964    -0.1065518319
    6      H      -1.6840612789    -0.9977761234     0.3185136759
    7      H      -1.5562833252     0.9420800247    -1.2024251952
    8      H       0.1476226614     0.4184442194    -1.7206469925
    9      H       1.3185888388    -1.4177030717    -0.2970855902
   10      H       0.3355923915    -2.3856807480     0.8241264679
   11      H       0.0608818571    -2.5038639304    -0.9224106434
 ----------------------------------------------------------------

   11   -1038.2289659956      9.93e-07  Convergence criterion met
 Total energy in the final basis set =    -1038.2289659956

                    Orbital Energies (a.u.)
 --------------------------------------------------------------

 Alpha MOs
 -- Occupied --
*******-101.523 -10.280 -10.246 -10.215  -9.465  -9.436  -7.228
 -7.225  -7.218  -7.206  -7.190  -7.189  -0.860  -0.799  -0.773
 -0.726  -0.608  -0.510  -0.466  -0.460  -0.407  -0.400  -0.388
 -0.371  -0.322  -0.299  -0.287  -0.280  -0.253

 Beta MOs
 -- Occupied --
*******-101.518 -10.279 -10.235 -10.214  -9.460  -9.431  -7.219
 -7.216  -7.215  -7.190  -7.186  -7.186  -0.844  -0.772  -0.734
 -0.712  -0.600  -0.504  -0.460  -0.453  -0.404  -0.396  -0.356
 -0.323  -0.311  -0.279  -0.274

          Ground-State Mulliken Net Atomic Charges

     Atom                 Charge (a.u.)    Spin (a.u.)
  --------------------------------------------------------
      1 Cl                   -0.109029       0.582318
      2 Cl                   -0.227286       0.733668
      3 C                    -0.125216      -0.000975
      4 C                    -0.129859       0.742562
      5 C                    -0.317685       0.001432
      6 H                     0.172516       0.003413
      7 H                     0.154918      -0.032533
      8 H                     0.155518      -0.031069
      9 H                     0.149393      -0.000946
     10 H                     0.142110       0.003033
     11 H                     0.134618      -0.000904
  --------------------------------------------------------
  Sum of atomic charges =    -0.000000

                    Cartesian Multipole Moments
 -----------------------------------------------------------------
    Charge (ESU x 10^10)
                -0.0000
    Dipole Moment (Debye)
         X      -1.5939      Y      -4.0070      Z      -2.4989
       Tot       4.9841
    Quadrupole Moments (Debye-Ang)
        XX     -43.6550     XY      -1.5272     YY     -48.8107
        XZ       0.0248     YZ      -2.5965     ZZ     -45.6608

 Final energy is   -1038.22896599558
 **  OPTIMIZATION CONVERGED  **
 Total job time:  39.20s(wall), 458.61s(cpu)
        *  Thank you very much for using Q-Chem.  Have a nice day.  *
