 Q-Chem 5.1, Q-Chem, Inc., Pleasanton, CA (2018)
 Q-Chem 5.1.1 for Intel X86 EM64T Linux

User input:
--------------------------------------------------------------

$comment
potential surface scanner
$end

$rem
JOBTYPE  PES_SCAN
UNRESTRICTED TRUE
SYM_IGNORE  TRUE
GEOM_OPT_MAX_CYCLES 400
SCF_MAX_CYCLES 400
METHOD   B3LYP
BASIS   6-31G**
PDB_PRINT 2
SCF_CONVERGENCE 6
THRESH 14
SCF_PRINT 1
$end
$molecule
0 1
Cl -1.271337 1.376813 0.223864
Cl 1.954052 0.118637 0.611689
C -0.615377 -0.179542 -0.477229
C 0.860334 -0.027482 -0.823928
C -0.945393 -1.347408 0.440549
H -1.141317 -0.286818 -1.431387
H 1.187714 -0.914977 -1.371435
H 1.028018 0.858113 -1.436294
H -0.469897 -1.223340 1.415209
H -2.024892 -1.429544 0.581904
H -0.581605 -2.279052 -0.008144
$end
$scan
stre 2 4 1.200000 1.201000 0.100000
$end
--------------------------------------------------------------

    9   -1038.3416009812      3.04e-07  Convergence criterion met
 Total energy in the final basis set =    -1038.3416009812
    9   -1038.3314265140      3.14e-07  Convergence criterion met
 Total energy in the final basis set =    -1038.3314265140
    9   -1038.2896821713      3.90e-07  Convergence criterion met
 Total energy in the final basis set =    -1038.2896821713
    9   -1038.2110098581      4.52e-07  Convergence criterion met
 Total energy in the final basis set =    -1038.2110098581
    9   -1038.0934157141      5.18e-07  Convergence criterion met
 Total energy in the final basis set =    -1038.0934157141
    9   -1037.9460323846      5.94e-07  Convergence criterion met
 Total energy in the final basis set =    -1037.9460323846
    9   -1037.9402870286      6.01e-07  Convergence criterion met
 Total energy in the final basis set =    -1037.9402870286
    9   -1037.9401218600      6.16e-07  Convergence criterion met
    9   -1037.9404008104      6.29e-07  Convergence criterion met
 Total energy in the final basis set =    -1037.9404008104
    9   -1037.9404073813      6.29e-07  Convergence criterion met
 Total energy in the final basis set =    -1037.9404073813
    9   -1037.9404111961      6.28e-07  Convergence criterion met
 Total energy in the final basis set =    -1037.9404111961
    9   -1037.9404133751      6.26e-07  Convergence criterion met
 Total energy in the final basis set =    -1037.9404133751
    9   -1037.9404153884      6.25e-07  Convergence criterion met
 Total energy in the final basis set =    -1037.9404153884
    9   -1037.9404171311      6.24e-07  Convergence criterion met
 Total energy in the final basis set =    -1037.9404171311

             Standard Nuclear Orientation (Angstroms)
    I     Atom           X                Y                Z
 ----------------------------------------------------------------
    1      Cl     -1.2649581367     1.3709528645     0.2747397704
    2      Cl      1.7434549674     0.1521542300     0.3145179506
    3      C      -0.5820905936    -0.1719869637    -0.4480026663
    4      C       1.0222359883     0.0017186405    -0.6326949709
    5      C      -0.9461904862    -1.3491647872     0.4389467152
    6      H      -1.0281213196    -0.2521947346    -1.4406106335
    7      H       1.1449610428    -0.9074319253    -1.3067875875
    8      H       0.9978005938     0.7787050282    -1.4529386602
    9      H      -0.4991075906    -1.2504334834     1.4329455796
   10      H      -2.0282275921    -1.4305568124     0.5625246970
   11      H      -0.5794568735    -2.2763620566    -0.0178421943
 ----------------------------------------------------------------

    9   -1037.9404180178      6.24e-07  Convergence criterion met
 Total energy in the final basis set =    -1037.9404180178

                    Orbital Energies (a.u.)
 --------------------------------------------------------------

 Alpha MOs
 -- Occupied --
*******-101.526 -10.251 -10.242 -10.193  -9.494  -9.442  -7.257
 -7.243  -7.243  -7.206  -7.196  -7.196  -1.075  -0.847  -0.746
 -0.665  -0.584  -0.545  -0.539  -0.496  -0.446  -0.412  -0.393
 -0.369  -0.306  -0.292  -0.259  -0.254

 Beta MOs
 -- Occupied --
*******-101.526 -10.251 -10.242 -10.193  -9.494  -9.442  -7.257
 -7.243  -7.243  -7.206  -7.196  -7.196  -1.075  -0.847  -0.746
 -0.665  -0.584  -0.545  -0.539  -0.496  -0.446  -0.412  -0.393
 -0.369  -0.306  -0.292  -0.259  -0.254

          Ground-State Mulliken Net Atomic Charges

     Atom                 Charge (a.u.)    Spin (a.u.)
  --------------------------------------------------------
      1 Cl                   -0.113371      -0.000000
      2 Cl                    0.179918      -0.000000
      3 C                    -0.202181       0.000000
      4 C                    -0.268779      -0.000000
      5 C                    -0.312483       0.000000
      6 H                     0.146224      -0.000000
      7 H                     0.084270       0.000000
      8 H                     0.104089       0.000000
      9 H                     0.133513      -0.000000
     10 H                     0.134899       0.000000
     11 H                     0.113902      -0.000000
  --------------------------------------------------------
  Sum of atomic charges =    -0.000000

                    Cartesian Multipole Moments
 -----------------------------------------------------------------
    Charge (ESU x 10^10)
                -0.0000
    Dipole Moment (Debye)
         X       0.8139      Y      -2.0057      Z      -1.0334
       Tot       2.3986
    Quadrupole Moments (Debye-Ang)
        XX     -45.2625     XY       2.2623     YY     -45.4259
        XZ      -0.0988     YZ      -0.3366     ZZ     -43.5703

 Final energy is   -1037.94041801783
 **  OPTIMIZATION CONVERGED  **
 Total job time:  95.56s(wall), 986.61s(cpu)
        *  Thank you very much for using Q-Chem.  Have a nice day.  *
