 Q-Chem 5.1, Q-Chem, Inc., Pleasanton, CA (2018)
 Q-Chem 5.1.1 for Intel X86 EM64T Linux

User input:
--------------------------------------------------------------

$comment
potential surface scanner
$end

$rem
JOBTYPE  PES_SCAN
UNRESTRICTED TRUE
SYM_IGNORE  TRUE
GEOM_OPT_MAX_CYCLES 400
SCF_MAX_CYCLES 400
METHOD   B3LYP
BASIS   6-31G**
PDB_PRINT 2
SCF_CONVERGENCE 6
THRESH 14
SCF_PRINT 1
$end
$molecule
0 3
Cl 0.769839 0.606900 1.120537
Cl -1.294028 2.355295 1.647341
C -0.380204 -0.472197 -0.144801
C -0.263736 0.182250 -1.422899
C 0.116513 -1.896605 -0.031891
H -1.326899 -0.286958 0.359789
H -0.826964 1.085615 -1.625726
H 0.498479 -0.125376 -2.131765
H 1.132290 -1.996942 -0.423645
H 0.098827 -2.245447 1.002087
H -0.543819 -2.541136 -0.624224
$end
$scan
stre 2 4 3.800000 3.801000 0.100000
$end
--------------------------------------------------------------

   11   -1038.2316171393      7.27e-07  Convergence criterion met
 Total energy in the final basis set =    -1038.2316171393
   11   -1038.2313415307      7.32e-07  Convergence criterion met
 Total energy in the final basis set =    -1038.2313415307
   11   -1038.2315752270      7.19e-07  Convergence criterion met
 Total energy in the final basis set =    -1038.2315752270
   11   -1038.2316912380      7.20e-07  Convergence criterion met
 Total energy in the final basis set =    -1038.2316912380
   11   -1038.2317001222      7.25e-07  Convergence criterion met
 Total energy in the final basis set =    -1038.2317001222
   11   -1038.2317046572      7.33e-07  Convergence criterion met
 Total energy in the final basis set =    -1038.2317046572

             Standard Nuclear Orientation (Angstroms)
    I     Atom           X                Y                Z
 ----------------------------------------------------------------
    1      Cl      0.7734239878     0.5905978414     1.1430575890
    2      Cl     -1.2849290890     2.3696657614     1.5467806572
    3      C      -0.3815466461    -0.4795292390    -0.1319500594
    4      C      -0.2713044187     0.1940972314    -1.3993132206
    5      C       0.1193309778    -1.9034851335    -0.0375853296
    6      H      -1.3247370099    -0.2997818262     0.3808327383
    7      H      -0.8362853438     1.1000261158    -1.5844942100
    8      H       0.4882423311    -0.1017339850    -2.1160751065
    9      H       1.1337649503    -1.9973419988    -0.4343409088
   10      H       0.1063030212    -2.2642897597     0.9923807352
   11      H      -0.5419647607    -2.5428260077    -0.6344898847
 ----------------------------------------------------------------

   11   -1038.2317056267      7.37e-07  Convergence criterion met
 Total energy in the final basis set =    -1038.2317056267

                    Orbital Energies (a.u.)
 --------------------------------------------------------------

 Alpha MOs
 -- Occupied --
*******-101.528 -10.280 -10.240 -10.215  -9.476  -9.441  -7.239
 -7.235  -7.229  -7.212  -7.194  -7.194  -0.872  -0.799  -0.775
 -0.725  -0.608  -0.507  -0.469  -0.461  -0.408  -0.404  -0.390
 -0.373  -0.330  -0.296  -0.292  -0.287  -0.256

 Beta MOs
 -- Occupied --
*******-101.522 -10.281 -10.228 -10.215  -9.472  -9.435  -7.232
 -7.227  -7.226  -7.194  -7.191  -7.190  -0.857  -0.777  -0.736
 -0.708  -0.599  -0.501  -0.462  -0.454  -0.402  -0.398  -0.372
 -0.327  -0.320  -0.283  -0.279

          Ground-State Mulliken Net Atomic Charges

     Atom                 Charge (a.u.)    Spin (a.u.)
  --------------------------------------------------------
      1 Cl                   -0.051174       0.458165
      2 Cl                   -0.219979       0.758047
      3 C                    -0.165329      -0.063826
      4 C                    -0.145275       0.911543
      5 C                    -0.315938       0.005134
      6 H                     0.193390       0.008978
      7 H                     0.155687      -0.039691
      8 H                     0.132326      -0.039561
      9 H                     0.135593      -0.000951
     10 H                     0.144037       0.001804
     11 H                     0.136662       0.000357
  --------------------------------------------------------
  Sum of atomic charges =     0.000000

                    Cartesian Multipole Moments
 -----------------------------------------------------------------
    Charge (ESU x 10^10)
                -0.0000
    Dipole Moment (Debye)
         X       0.2447      Y      -3.7047      Z      -3.0455
       Tot       4.8020
    Quadrupole Moments (Debye-Ang)
        XX     -45.5676     XY       1.7838     YY     -48.4267
        XZ       1.1418     YZ      -4.5106     ZZ     -46.6924

 Final energy is   -1038.23170562671
 **  OPTIMIZATION CONVERGED  **
 Total job time:  24.60s(wall), 286.57s(cpu)
        *  Thank you very much for using Q-Chem.  Have a nice day.  *
