 Q-Chem 5.1, Q-Chem, Inc., Pleasanton, CA (2018)
 Q-Chem 5.1.1 for Intel X86 EM64T Linux

User input:
--------------------------------------------------------------

$comment
potential surface scanner
$end

$rem
JOBTYPE  PES_SCAN
UNRESTRICTED TRUE
SYM_IGNORE  TRUE
GEOM_OPT_MAX_CYCLES 400
SCF_MAX_CYCLES 400
METHOD   B3LYP
BASIS   6-31G**
PDB_PRINT 2
SCF_CONVERGENCE 6
THRESH 14
SCF_PRINT 1
$end
$molecule
0 3
Cl 0.323068 1.203744 0.630300
Cl -0.392263 0.548680 3.398647
C -0.489711 -0.206937 -0.491050
C -0.017762 -0.018574 -1.857585
C -0.140071 -1.529315 0.162806
H -1.537886 0.063904 -0.366581
H -0.470682 0.723246 -2.505107
H 0.881498 -0.522847 -2.195580
H 0.935456 -1.718424 0.112437
H -0.452117 -1.544869 1.208126
H -0.659230 -2.333207 -0.371615
$end
$scan
stre 2 4 5.200000 5.201000 0.100000
$end
--------------------------------------------------------------

   12   -1038.2282713027      8.64e-07  Convergence criterion met
 Total energy in the final basis set =    -1038.2282713027
   12   -1038.2279574398      8.47e-07  Convergence criterion met
 Total energy in the final basis set =    -1038.2279574398
   12   -1038.2285548538      7.94e-07  Convergence criterion met
 Total energy in the final basis set =    -1038.2285548538
   12   -1038.2288087749      7.45e-07  Convergence criterion met
 Total energy in the final basis set =    -1038.2288087749
   12   -1038.2288208970      7.42e-07  Convergence criterion met
 Total energy in the final basis set =    -1038.2288208970
   12   -1038.2288295164      7.44e-07  Convergence criterion met
 Total energy in the final basis set =    -1038.2288295164
   12   -1038.2288342460      7.50e-07  Convergence criterion met
 Total energy in the final basis set =    -1038.2288342460
   12   -1038.2288375336      7.58e-07  Convergence criterion met
   12   -1038.2288554162      7.89e-07  Convergence criterion met
 Total energy in the final basis set =    -1038.2288554162
   12   -1038.2288615628      7.92e-07  Convergence criterion met
 Total energy in the final basis set =    -1038.2288615628
   12   -1038.2288657018      7.89e-07  Convergence criterion met
 Total energy in the final basis set =    -1038.2288657018
   12   -1038.2288682758      7.83e-07  Convergence criterion met
 Total energy in the final basis set =    -1038.2288682758
   12   -1038.2288698168      7.78e-07  Convergence criterion met
 Total energy in the final basis set =    -1038.2288698168
   12   -1038.2288711246      7.76e-07  Convergence criterion met
 Total energy in the final basis set =    -1038.2288711246

             Standard Nuclear Orientation (Angstroms)
    I     Atom           X                Y                Z
 ----------------------------------------------------------------
    1      Cl      0.3991986636     1.1948716451     0.6350528354
    2      Cl     -0.5329717968     0.5417171150     3.2969435510
    3      C      -0.4696272085    -0.2062582757    -0.4735586113
    4      C      -0.0332564627    -0.0140105903    -1.8490695983
    5      C      -0.1178508420    -1.5330095074     0.1680560957
    6      H      -1.5071237953     0.0847829090    -0.3122741465
    7      H      -0.4922271306     0.7397454246    -2.4783667199
    8      H       0.8456613846    -0.5325579500    -2.2177063762
    9      H       0.9481347988    -1.7498813600     0.0597868737
   10      H      -0.3734261507    -1.5347837737     1.2288673296
   11      H      -0.6862114604    -2.3252146365    -0.3329332330
 ----------------------------------------------------------------

   12   -1038.2288717264      7.78e-07  Convergence criterion met
 Total energy in the final basis set =    -1038.2288717264

                    Orbital Energies (a.u.)
 --------------------------------------------------------------

 Alpha MOs
 -- Occupied --
*******-101.538 -10.280 -10.241 -10.206  -9.471  -9.451  -7.235
 -7.229  -7.224  -7.223  -7.204  -7.203  -0.870  -0.795  -0.781
 -0.719  -0.607  -0.504  -0.465  -0.457  -0.406  -0.395  -0.391
 -0.364  -0.321  -0.305  -0.302  -0.298  -0.254

 Beta MOs
 -- Occupied --
*******-101.532 -10.281 -10.228 -10.206  -9.468  -9.445  -7.229
 -7.223  -7.222  -7.204  -7.200  -7.200  -0.856  -0.772  -0.743
 -0.702  -0.598  -0.498  -0.458  -0.449  -0.398  -0.392  -0.373
 -0.322  -0.314  -0.289  -0.285

          Ground-State Mulliken Net Atomic Charges

     Atom                 Charge (a.u.)    Spin (a.u.)
  --------------------------------------------------------
      1 Cl                   -0.060677       0.365581
      2 Cl                   -0.172999       0.811063
      3 C                    -0.171773      -0.071121
      4 C                    -0.154010       0.963517
      5 C                    -0.314191       0.006942
      6 H                     0.178911       0.008528
      7 H                     0.137614      -0.041943
      8 H                     0.134934      -0.041766
      9 H                     0.132984      -0.001017
     10 H                     0.160592       0.002011
     11 H                     0.128615      -0.001795
  --------------------------------------------------------
  Sum of atomic charges =    -0.000000

                    Cartesian Multipole Moments
 -----------------------------------------------------------------
    Charge (ESU x 10^10)
                -0.0000
    Dipole Moment (Debye)
         X      -0.4484      Y      -1.9362      Z      -4.2225
       Tot       4.6669
    Quadrupole Moments (Debye-Ang)
        XX     -44.3958     XY      -0.3100     YY     -45.2437
        XZ       0.7057     YZ      -2.7009     ZZ     -50.3238

 Final energy is   -1038.22887172644
 **  OPTIMIZATION CONVERGED  **
 Total job time:  71.73s(wall), 822.32s(cpu)
        *  Thank you very much for using Q-Chem.  Have a nice day.  *
