 Q-Chem 5.1, Q-Chem, Inc., Pleasanton, CA (2018)
 Q-Chem 5.1.1 for Intel X86 EM64T Linux

User input:
--------------------------------------------------------------

$comment
potential surface scanner
$end

$rem
JOBTYPE  PES_SCAN
UNRESTRICTED TRUE
SYM_IGNORE  TRUE
GEOM_OPT_MAX_CYCLES 400
SCF_MAX_CYCLES 400
METHOD   B3LYP
BASIS   6-31G**
PDB_PRINT 2
SCF_CONVERGENCE 6
THRESH 14
SCF_PRINT 1
$end
$molecule
0 1
Cl -1.271337 1.376813 0.223864
Cl 1.954052 0.118637 0.611689
C -0.615377 -0.179542 -0.477229
C 0.860334 -0.027482 -0.823928
C -0.945393 -1.347408 0.440549
H -1.141317 -0.286818 -1.431387
H 1.187714 -0.914977 -1.371435
H 1.028018 0.858113 -1.436294
H -0.469897 -1.223340 1.415209
H -2.024892 -1.429544 0.581904
H -0.581605 -2.279052 -0.008144
$end
$scan
stre 2 4 1.400000 1.401000 0.100000
$end
--------------------------------------------------------------

    9   -1038.3416009812      3.04e-07  Convergence criterion met
 Total energy in the final basis set =    -1038.3416009812
    9   -1038.3314265140      3.14e-07  Convergence criterion met
 Total energy in the final basis set =    -1038.3314265140
    9   -1038.2896821713      3.90e-07  Convergence criterion met
 Total energy in the final basis set =    -1038.2896821713
    9   -1038.2291586325      4.48e-07  Convergence criterion met
 Total energy in the final basis set =    -1038.2291586325
    9   -1038.2256982238      4.71e-07  Convergence criterion met
 Total energy in the final basis set =    -1038.2256982238
    9   -1038.2262945265      4.96e-07  Convergence criterion met
 Total energy in the final basis set =    -1038.2262945265
    9   -1038.2263376308      4.97e-07  Convergence criterion met
 Total energy in the final basis set =    -1038.2263376308
    9   -1038.2263627810      4.97e-07  Convergence criterion met
 Total energy in the final basis set =    -1038.2263627810
    9   -1038.2263641739      4.97e-07  Convergence criterion met
 Total energy in the final basis set =    -1038.2263641739
    9   -1038.2263673857      4.95e-07  Convergence criterion met
 Total energy in the final basis set =    -1038.2263673857
    9   -1038.2263686486      4.95e-07  Convergence criterion met
 Total energy in the final basis set =    -1038.2263686486
    9   -1038.2263713768      4.95e-07  Convergence criterion met
 Total energy in the final basis set =    -1038.2263713768
    9   -1038.2263729389      4.95e-07  Convergence criterion met
 Total energy in the final basis set =    -1038.2263729389

             Standard Nuclear Orientation (Angstroms)
    I     Atom           X                Y                Z
 ----------------------------------------------------------------
    1      Cl     -1.2634477971     1.3726690230     0.2557720293
    2      Cl      1.8114447014     0.1256350789     0.4038613140
    3      C      -0.5820146086    -0.1771738844    -0.4560831390
    4      C       0.9618284876    -0.0116024512    -0.7003661031
    5      C      -0.9448136276    -1.3481455062     0.4432606493
    6      H      -1.0626353536    -0.2665372761    -1.4322135339
    7      H       1.1581260241    -0.8977390798    -1.3450358378
    8      H       1.0046005475     0.8136712312    -1.4379451504
    9      H      -0.5051434622    -1.2356183431     1.4376291066
   10      H      -2.0278288299    -1.4309506253     0.5551896605
   11      H      -0.5698160816    -2.2788081669     0.0007290045
 ----------------------------------------------------------------

    9   -1038.2263738568      4.96e-07  Convergence criterion met
 Total energy in the final basis set =    -1038.2263738568

                    Orbital Energies (a.u.)
 --------------------------------------------------------------

 Alpha MOs
 -- Occupied --
*******-101.528 -10.259 -10.240 -10.195  -9.475  -9.444  -7.238
 -7.228  -7.228  -7.208  -7.199  -7.199  -0.992  -0.850  -0.749
 -0.679  -0.583  -0.513  -0.506  -0.477  -0.442  -0.405  -0.391
 -0.370  -0.308  -0.295  -0.282  -0.278

 Beta MOs
 -- Occupied --
*******-101.528 -10.259 -10.240 -10.195  -9.475  -9.444  -7.238
 -7.228  -7.228  -7.208  -7.199  -7.199  -0.992  -0.850  -0.749
 -0.679  -0.583  -0.513  -0.506  -0.477  -0.442  -0.405  -0.391
 -0.370  -0.308  -0.295  -0.282  -0.278

          Ground-State Mulliken Net Atomic Charges

     Atom                 Charge (a.u.)    Spin (a.u.)
  --------------------------------------------------------
      1 Cl                   -0.102658      -0.000000
      2 Cl                    0.081166       0.000000
      3 C                    -0.186717      -0.000000
      4 C                    -0.284177       0.000000
      5 C                    -0.308304       0.000000
      6 H                     0.149940       0.000000
      7 H                     0.123179      -0.000000
      8 H                     0.139790      -0.000000
      9 H                     0.140885      -0.000000
     10 H                     0.133198       0.000000
     11 H                     0.113698      -0.000000
  --------------------------------------------------------
  Sum of atomic charges =    -0.000000

                    Cartesian Multipole Moments
 -----------------------------------------------------------------
    Charge (ESU x 10^10)
                -0.0000
    Dipole Moment (Debye)
         X       0.3531      Y      -2.0500      Z      -1.4208
       Tot       2.5191
    Quadrupole Moments (Debye-Ang)
        XX     -46.3287     XY       2.1436     YY     -45.3888
        XZ      -0.4313     YZ      -0.2425     ZZ     -43.0597

 Final energy is   -1038.22637385681
 **  OPTIMIZATION CONVERGED  **
 Total job time:  46.39s(wall), 535.87s(cpu)
        *  Thank you very much for using Q-Chem.  Have a nice day.  *
