 Q-Chem 5.1, Q-Chem, Inc., Pleasanton, CA (2018)
 Q-Chem 5.1.1 for Intel X86 EM64T Linux

User input:
--------------------------------------------------------------

$comment
potential surface scanner
$end

$rem
JOBTYPE  PES_SCAN
UNRESTRICTED TRUE
SYM_IGNORE  TRUE
GEOM_OPT_MAX_CYCLES 400
SCF_MAX_CYCLES 400
METHOD   B3LYP
BASIS   6-31G**
PDB_PRINT 2
SCF_CONVERGENCE 6
THRESH 14
SCF_PRINT 1
$end
$molecule
0 1
Cl -1.492666 1.386726 -0.055901
Cl 2.498518 -0.319984 1.477367
C -0.768625 -0.168421 -0.626345
C 0.569378 0.010025 -1.179607
C -0.872712 -1.275051 0.442393
H -1.389220 -0.479817 -1.489672
H 1.092155 -0.858483 -1.569604
H 1.010720 0.988059 -1.333733
H -0.250240 -1.002408 1.297109
H -1.916377 -1.398716 0.735587
H -0.500634 -2.216530 0.027204
$end
$scan
stre 2 4 3.400000 3.401000 0.100000
$end
--------------------------------------------------------------

   12   -1038.2324495581      2.40e-07  Convergence criterion met
 Total energy in the final basis set =    -1038.2324495581
   11   -1038.2276222682      9.02e-07  Convergence criterion met
 Total energy in the final basis set =    -1038.2276222682
   11   -1038.2275599773      7.00e-07  Convergence criterion met
 Total energy in the final basis set =    -1038.2275599773
   11   -1038.2275844032      4.83e-07  Convergence criterion met
 Total energy in the final basis set =    -1038.2275844032
   11   -1038.2275860172      4.80e-07  Convergence criterion met
 Total energy in the final basis set =    -1038.2275860172
   11   -1038.2275899610      4.66e-07  Convergence criterion met
 Total energy in the final basis set =    -1038.2275899610
   11   -1038.2275909793      4.65e-07  Convergence criterion met
 Total energy in the final basis set =    -1038.2275909793
   11   -1038.2275944678      4.84e-07  Convergence criterion met
   12   -1038.2276261788      1.84e-07  Convergence criterion met
 Total energy in the final basis set =    -1038.2276261788
   12   -1038.2276351928      2.00e-07  Convergence criterion met
 Total energy in the final basis set =    -1038.2276351928
   12   -1038.2276435315      2.46e-07  Convergence criterion met
 Total energy in the final basis set =    -1038.2276435315
   12   -1038.2276481069      2.90e-07  Convergence criterion met
 Total energy in the final basis set =    -1038.2276481069
   12   -1038.2276480996      3.22e-07  Convergence criterion met
 Total energy in the final basis set =    -1038.2276480996
   12   -1038.2276510421      3.14e-07  Convergence criterion met
 Total energy in the final basis set =    -1038.2276510421

             Standard Nuclear Orientation (Angstroms)
    I     Atom           X                Y                Z
 ----------------------------------------------------------------
    1      Cl     -1.6124696788     1.3653614035    -0.1832089743
    2      Cl      2.5413659563    -0.6056260757     1.4819073703
    3      C      -0.7935352365    -0.1744536247    -0.6626240984
    4      C       0.5455727424     0.0519338098    -1.1909978838
    5      C      -0.8461097844    -1.2255353288     0.4724478208
    6      H      -1.3859259952    -0.5775647996    -1.5043708041
    7      H       1.0860658437    -0.7855377365    -1.6223876204
    8      H       0.9907190318     1.0386370160    -1.2541651647
    9      H      -0.2627419755    -0.8615350837     1.3202950523
   10      H      -1.8882209359    -1.4022616371     0.7443830528
   11      H      -0.3944229679    -2.1580179433     0.1235192493
 ----------------------------------------------------------------

   12   -1038.2276516255      3.16e-07  Convergence criterion met
 Total energy in the final basis set =    -1038.2276516255

                    Orbital Energies (a.u.)
 --------------------------------------------------------------

 Alpha MOs
 -- Occupied --
*******-101.476 -10.326 -10.317 -10.227  -9.488  -9.387  -7.252
 -7.241  -7.241  -7.151  -7.143  -7.143  -0.917  -0.811  -0.745
 -0.711  -0.637  -0.541  -0.518  -0.482  -0.439  -0.420  -0.406
 -0.338  -0.333  -0.259  -0.246  -0.246

 Beta MOs
 -- Occupied --
*******-101.476 -10.326 -10.317 -10.227  -9.488  -9.387  -7.252
 -7.241  -7.241  -7.151  -7.143  -7.143  -0.917  -0.811  -0.745
 -0.711  -0.637  -0.541  -0.518  -0.482  -0.439  -0.420  -0.406
 -0.338  -0.333  -0.259  -0.246  -0.246

          Ground-State Mulliken Net Atomic Charges

     Atom                 Charge (a.u.)    Spin (a.u.)
  --------------------------------------------------------
      1 Cl                   -0.022207      -0.000000
      2 Cl                   -0.475195       0.000000
      3 C                    -0.240912      -0.000000
      4 C                    -0.063212      -0.000000
      5 C                    -0.296727       0.000000
      6 H                     0.202876      -0.000000
      7 H                     0.201278       0.000000
      8 H                     0.215413      -0.000000
      9 H                     0.199147      -0.000000
     10 H                     0.139247      -0.000000
     11 H                     0.140292      -0.000000
  --------------------------------------------------------
  Sum of atomic charges =     0.000000

                    Cartesian Multipole Moments
 -----------------------------------------------------------------
    Charge (ESU x 10^10)
                -0.0000
    Dipole Moment (Debye)
         X      -4.3768      Y      -0.6605      Z      -5.4920
       Tot       7.0537
    Quadrupole Moments (Debye-Ang)
        XX     -57.8563     XY       5.6457     YY     -44.6295
        XZ      -8.8514     YZ       2.0828     ZZ     -44.9536

 Final energy is   -1038.22765162547
 **  OPTIMIZATION CONVERGED  **
 Total job time:  80.63s(wall), 924.88s(cpu)
        *  Thank you very much for using Q-Chem.  Have a nice day.  *
