 Q-Chem 5.1, Q-Chem, Inc., Pleasanton, CA (2018)
 Q-Chem 5.1.1 for Intel X86 EM64T Linux

User input:
--------------------------------------------------------------

$comment
potential surface scanner
$end

$rem
JOBTYPE  PES_SCAN
UNRESTRICTED TRUE
SYM_IGNORE  TRUE
GEOM_OPT_MAX_CYCLES 400
SCF_MAX_CYCLES 400
METHOD   B3LYP
BASIS   6-31G**
PDB_PRINT 2
SCF_CONVERGENCE 6
THRESH 14
SCF_PRINT 1
$end
$molecule
0 3
Cl -0.158687 0.399860 1.801156
Cl 0.549869 2.470672 0.201958
C -0.704303 -0.723796 -0.094026
C -0.679748 0.295652 -1.061896
C 0.312623 -1.829692 -0.116682
H -1.677595 -0.972082 0.320651
H -1.522182 0.961855 -1.195511
H 0.171992 0.420334 -1.719113
H 1.314941 -1.442802 -0.314222
H 0.323693 -2.383984 0.822864
H 0.049686 -2.530619 -0.920374
$end
$scan
stre 2 4 2.700000 2.701000 0.100000
$end
--------------------------------------------------------------

   12   -1038.2282697665      5.82e-07  Convergence criterion met
 Total energy in the final basis set =    -1038.2282697665
   11   -1038.2273129845      9.97e-07  Convergence criterion met
 Total energy in the final basis set =    -1038.2273129845
   12   -1038.2274201091      5.46e-07  Convergence criterion met
 Total energy in the final basis set =    -1038.2274201091
   12   -1038.2274860302      5.66e-07  Convergence criterion met
 Total energy in the final basis set =    -1038.2274860302
   12   -1038.2275139321      5.61e-07  Convergence criterion met
 Total energy in the final basis set =    -1038.2275139321
   11   -1038.2275653906      9.97e-07  Convergence criterion met
 Total energy in the final basis set =    -1038.2275653906
   11   -1038.2275983354      9.27e-07  Convergence criterion met
 Total energy in the final basis set =    -1038.2275983354
   11   -1038.2276257381      9.20e-07  Convergence criterion met
 Total energy in the final basis set =    -1038.2276257381
   11   -1038.2276379722      9.32e-07  Convergence criterion met
 Total energy in the final basis set =    -1038.2276379722
   11   -1038.2276424684      9.31e-07  Convergence criterion met
 Total energy in the final basis set =    -1038.2276424684
   11   -1038.2276444488      9.29e-07  Convergence criterion met
 Total energy in the final basis set =    -1038.2276444488
   11   -1038.2276461105      9.28e-07  Convergence criterion met
 Total energy in the final basis set =    -1038.2276461105
   11   -1038.2276471369      9.29e-07  Convergence criterion met
 Total energy in the final basis set =    -1038.2276471369

             Standard Nuclear Orientation (Angstroms)
    I     Atom           X                Y                Z
 ----------------------------------------------------------------
    1      Cl     -0.1354879927     0.4185853851     1.8800922973
    2      Cl      0.4926969374     2.4160968168     0.1844624263
    3      C      -0.7067139006    -0.7288390052    -0.1229035397
    4      C      -0.6611258448     0.3134486238    -1.0555237194
    5      C       0.3100864685    -1.8301340199    -0.1256920122
    6      H      -1.6728548204    -0.9507758617     0.3206936283
    7      H      -1.5078570777     0.9709989032    -1.2014746859
    8      H       0.1791837875     0.4186402292    -1.7308287175
    9      H       1.3127762370    -1.4465335414    -0.3276930388
   10      H       0.3190387992    -2.3702654357     0.8220399218
   11      H       0.0505464067    -2.5458240941    -0.9183675602
 ----------------------------------------------------------------

   11   -1038.2276476441      9.30e-07  Convergence criterion met
 Total energy in the final basis set =    -1038.2276476441

                    Orbital Energies (a.u.)
 --------------------------------------------------------------

 Alpha MOs
 -- Occupied --
*******-101.525 -10.276 -10.255 -10.216  -9.455  -9.438  -7.219
 -7.216  -7.208  -7.206  -7.193  -7.191  -0.852  -0.799  -0.773
 -0.729  -0.609  -0.514  -0.469  -0.457  -0.410  -0.399  -0.385
 -0.362  -0.317  -0.305  -0.286  -0.274  -0.257

 Beta MOs
 -- Occupied --
*******-101.519 -10.273 -10.248 -10.216  -9.450  -9.432  -7.208
 -7.207  -7.205  -7.191  -7.188  -7.187  -0.836  -0.766  -0.736
 -0.717  -0.601  -0.509  -0.464  -0.450  -0.407  -0.397  -0.340
 -0.316  -0.305  -0.278  -0.273

          Ground-State Mulliken Net Atomic Charges

     Atom                 Charge (a.u.)    Spin (a.u.)
  --------------------------------------------------------
      1 Cl                   -0.163886       0.681394
      2 Cl                   -0.225245       0.709081
      3 C                    -0.068000       0.122776
      4 C                    -0.139592       0.530305
      5 C                    -0.329763      -0.005051
      6 H                     0.167588      -0.003249
      7 H                     0.165004      -0.022903
      8 H                     0.160312      -0.021667
      9 H                     0.149864       0.000148
     10 H                     0.147152       0.005299
     11 H                     0.136567       0.003867
  --------------------------------------------------------
  Sum of atomic charges =    -0.000000

                    Cartesian Multipole Moments
 -----------------------------------------------------------------
    Charge (ESU x 10^10)
                -0.0000
    Dipole Moment (Debye)
         X      -1.5054      Y      -4.0260      Z      -2.9887
       Tot       5.2351
    Quadrupole Moments (Debye-Ang)
        XX     -43.4756     XY      -1.2380     YY     -48.3984
        XZ       0.2144     YZ      -2.7017     ZZ     -46.1396

 Final energy is   -1038.22764764414
 **  OPTIMIZATION CONVERGED  **
 Total job time:  51.52s(wall), 601.47s(cpu)
        *  Thank you very much for using Q-Chem.  Have a nice day.  *
