 Q-Chem 5.1, Q-Chem, Inc., Pleasanton, CA (2018)
 Q-Chem 5.1.1 for Intel X86 EM64T Linux

User input:
--------------------------------------------------------------

$comment
potential surface scanner
$end

$rem
JOBTYPE  PES_SCAN
UNRESTRICTED TRUE
SYM_IGNORE  TRUE
GEOM_OPT_MAX_CYCLES 400
SCF_MAX_CYCLES 400
METHOD   B3LYP
BASIS   6-31G**
PDB_PRINT 2
SCF_CONVERGENCE 6
THRESH 14
SCF_PRINT 1
$end
$molecule
0 3
Cl 0.292469 1.195188 0.636171
Cl -0.364976 0.609243 3.489197
C -0.493963 -0.213175 -0.499248
C -0.010265 -0.017011 -1.862624
C -0.143674 -1.538455 0.149602
H -1.546513 0.046520 -0.387730
H -0.458776 0.727673 -2.509699
H 0.893463 -0.516400 -2.195436
H 0.931403 -1.729168 0.095242
H -0.453426 -1.559345 1.195723
H -0.665442 -2.339669 -0.386400
$end
$scan
stre 2 4 5.300000 5.301000 0.100000
$end
--------------------------------------------------------------

   13   -1038.2275699543      4.52e-07  Convergence criterion met
 Total energy in the final basis set =    -1038.2275699543
   12   -1038.2273598956      9.94e-07  Convergence criterion met
 Total energy in the final basis set =    -1038.2273598956
   12   -1038.2279714201      9.25e-07  Convergence criterion met
 Total energy in the final basis set =    -1038.2279714201
   12   -1038.2282445329      8.49e-07  Convergence criterion met
 Total energy in the final basis set =    -1038.2282445329
   12   -1038.2282566724      8.42e-07  Convergence criterion met
 Total energy in the final basis set =    -1038.2282566724
   12   -1038.2282644228      8.43e-07  Convergence criterion met
 Total energy in the final basis set =    -1038.2282644228
   12   -1038.2282683783      8.50e-07  Convergence criterion met
 Total energy in the final basis set =    -1038.2282683783
   12   -1038.2282705920      8.59e-07  Convergence criterion met
 Total energy in the final basis set =    -1038.2282705920

             Standard Nuclear Orientation (Angstroms)
    I     Atom           X                Y                Z
 ----------------------------------------------------------------
    1      Cl      0.3230678433     1.2037436507     0.6302999816
    2      Cl     -0.3922629918     0.5486796454     3.3986467443
    3      C      -0.4897108487    -0.2069369409    -0.4910504079
    4      C      -0.0177620417    -0.0185738733    -1.8575850347
    5      C      -0.1400713565    -1.5293148006     0.1628063171
    6      H      -1.5378856191     0.0639040547    -0.3665805003
    7      H      -0.4706817260     0.7232458854    -2.5051071285
    8      H       0.8814976941    -0.5228473530    -2.1955803857
    9      H       0.9354560451    -1.7184238389     0.1124372071
   10      H      -0.4521171425    -1.5448685656     1.2081262800
   11      H      -0.6592298561    -2.3332068639    -0.3716150730
 ----------------------------------------------------------------

   12   -1038.2282713012      8.64e-07  Convergence criterion met
 Total energy in the final basis set =    -1038.2282713012

                    Orbital Energies (a.u.)
 --------------------------------------------------------------

 Alpha MOs
 -- Occupied --
*******-101.540 -10.280 -10.240 -10.206  -9.470  -9.453  -7.234
 -7.227  -7.225  -7.223  -7.206  -7.205  -0.869  -0.794  -0.782
 -0.719  -0.606  -0.504  -0.464  -0.456  -0.406  -0.395  -0.390
 -0.362  -0.320  -0.308  -0.304  -0.300  -0.253

 Beta MOs
 -- Occupied --
*******-101.534 -10.281 -10.227 -10.206  -9.467  -9.447  -7.228
 -7.222  -7.221  -7.206  -7.202  -7.202  -0.856  -0.771  -0.744
 -0.701  -0.597  -0.498  -0.458  -0.448  -0.398  -0.392  -0.374
 -0.320  -0.313  -0.290  -0.287

          Ground-State Mulliken Net Atomic Charges

     Atom                 Charge (a.u.)    Spin (a.u.)
  --------------------------------------------------------
      1 Cl                   -0.062624       0.344491
      2 Cl                   -0.162694       0.824411
      3 C                    -0.173802      -0.069846
      4 C                    -0.155374       0.970576
      5 C                    -0.313729       0.007397
      6 H                     0.176380       0.008028
      7 H                     0.136758      -0.042209
      8 H                     0.134422      -0.042036
      9 H                     0.134655      -0.001075
     10 H                     0.157995       0.001986
     11 H                     0.128012      -0.001722
  --------------------------------------------------------
  Sum of atomic charges =    -0.000000

                    Cartesian Multipole Moments
 -----------------------------------------------------------------
    Charge (ESU x 10^10)
                 0.0000
    Dipole Moment (Debye)
         X      -0.5372      Y      -1.9504      Z      -4.1538
       Tot       4.6202
    Quadrupole Moments (Debye-Ang)
        XX     -44.2696     XY      -0.3337     YY     -45.3183
        XZ       0.4552     YZ      -2.6939     ZZ     -50.2613

 Final energy is   -1038.22827130115
 **  OPTIMIZATION CONVERGED  **
 Total job time:  33.45s(wall), 390.09s(cpu)
        *  Thank you very much for using Q-Chem.  Have a nice day.  *
