 Q-Chem 5.1, Q-Chem, Inc., Pleasanton, CA (2018)
 Q-Chem 5.1.1 for Intel X86 EM64T Linux

User input:
--------------------------------------------------------------

$comment
potential surface scanner
$end

$rem
JOBTYPE  PES_SCAN
UNRESTRICTED TRUE
SYM_IGNORE  TRUE
GEOM_OPT_MAX_CYCLES 400
SCF_MAX_CYCLES 400
METHOD   B3LYP
BASIS   6-31G**
PDB_PRINT 2
SCF_CONVERGENCE 6
THRESH 14
SCF_PRINT 1
$end
$molecule
0 1
Cl -1.360667 1.388673 0.090001
Cl 2.277875 -0.039544 1.107201
C -0.708115 -0.175373 -0.554168
C 0.667316 -0.029149 -1.059822
C -0.918298 -1.322624 0.433418
H -1.303478 -0.370404 -1.465930
H 1.161364 -0.914025 -1.448569
H 1.044043 0.936134 -1.375832
H -0.332205 -1.130478 1.333183
H -1.976639 -1.418651 0.680670
H -0.570897 -2.259162 -0.015351
$end
$scan
stre 2 4 2.800000 2.801000 0.100000
$end
--------------------------------------------------------------

   10   -1038.2713537786      7.15e-07  Convergence criterion met
 Total energy in the final basis set =    -1038.2713537786
   11   -1038.2632307191      3.12e-07  Convergence criterion met
 Total energy in the final basis set =    -1038.2632307191
   11   -1038.2633941035      3.16e-07  Convergence criterion met
 Total energy in the final basis set =    -1038.2633941035
   11   -1038.2636259680      3.18e-07  Convergence criterion met
 Total energy in the final basis set =    -1038.2636259680
   11   -1038.2636313566      3.19e-07  Convergence criterion met
 Total energy in the final basis set =    -1038.2636313566
   11   -1038.2636399071      3.20e-07  Convergence criterion met
 Total energy in the final basis set =    -1038.2636399071
   11   -1038.2636417963      3.19e-07  Convergence criterion met
 Total energy in the final basis set =    -1038.2636417963
   11   -1038.2636431306      3.18e-07  Convergence criterion met
 Total energy in the final basis set =    -1038.2636431306

             Standard Nuclear Orientation (Angstroms)
    I     Atom           X                Y                Z
 ----------------------------------------------------------------
    1      Cl     -1.3761741128     1.3892867837     0.0718351532
    2      Cl      2.3109213957    -0.0690141767     1.1717237700
    3      C      -0.7171812036    -0.1739603513    -0.5645151410
    4      C       0.6501671180    -0.0251466953    -1.0821553023
    5      C      -0.9117701171    -1.3179099298     0.4326057791
    6      H      -1.3189780922    -0.3829323221    -1.4699947790
    7      H       1.1524197546    -0.9097972546    -1.4607027666
    8      H       1.0393161672     0.9427748792    -1.3739451921
    9      H      -0.3122419850    -1.1189976071     1.3222563244
   10      H      -1.9667450537    -1.4128872194     0.6941297727
   11      H      -0.5694348711    -2.2560191066    -0.0164366184
 ----------------------------------------------------------------

   11   -1038.2636437263      3.18e-07  Convergence criterion met
 Total energy in the final basis set =    -1038.2636437263

                    Orbital Energies (a.u.)
 --------------------------------------------------------------

 Alpha MOs
 -- Occupied --
*******-101.493 -10.315 -10.305 -10.216  -9.476  -9.404  -7.240
 -7.230  -7.230  -7.168  -7.159  -7.159  -0.904  -0.799  -0.739
 -0.727  -0.624  -0.522  -0.511  -0.477  -0.425  -0.410  -0.399
 -0.326  -0.323  -0.287  -0.261  -0.260

 Beta MOs
 -- Occupied --
*******-101.493 -10.315 -10.305 -10.216  -9.476  -9.404  -7.240
 -7.230  -7.230  -7.168  -7.159  -7.159  -0.904  -0.799  -0.739
 -0.727  -0.624  -0.522  -0.511  -0.477  -0.425  -0.410  -0.399
 -0.326  -0.323  -0.287  -0.261  -0.260

          Ground-State Mulliken Net Atomic Charges

     Atom                 Charge (a.u.)    Spin (a.u.)
  --------------------------------------------------------
      1 Cl                   -0.026200       0.000000
      2 Cl                   -0.417856       0.000000
      3 C                    -0.218050       0.000000
      4 C                    -0.077462      -0.000000
      5 C                    -0.303569       0.000000
      6 H                     0.191931      -0.000000
      7 H                     0.193215       0.000000
      8 H                     0.207248      -0.000000
      9 H                     0.190783       0.000000
     10 H                     0.136042       0.000000
     11 H                     0.123919      -0.000000
  --------------------------------------------------------
  Sum of atomic charges =     0.000000

                    Cartesian Multipole Moments
 -----------------------------------------------------------------
    Charge (ESU x 10^10)
                 0.0000
    Dipole Moment (Debye)
         X      -3.3103      Y      -1.8146      Z      -4.5458
       Tot       5.9089
    Quadrupole Moments (Debye-Ang)
        XX     -54.0282     XY       2.3832     YY     -44.3051
        XZ      -5.7396     YZ       0.2619     ZZ     -43.1508

 Final energy is   -1038.26364372630
 **  OPTIMIZATION CONVERGED  **
 Total job time:  32.81s(wall), 379.15s(cpu)
        *  Thank you very much for using Q-Chem.  Have a nice day.  *
