 Q-Chem 5.1, Q-Chem, Inc., Pleasanton, CA (2018)
 Q-Chem 5.1.1 for Intel X86 EM64T Linux

User input:
--------------------------------------------------------------

$comment
potential surface scanner
$end

$rem
JOBTYPE  PES_SCAN
UNRESTRICTED TRUE
SYM_IGNORE  TRUE
GEOM_OPT_MAX_CYCLES 400
SCF_MAX_CYCLES 400
METHOD   B3LYP
BASIS   6-31G**
PDB_PRINT 2
SCF_CONVERGENCE 6
THRESH 14
SCF_PRINT 1
$end
$molecule
0 3
Cl 0.774280 0.674750 1.029278
Cl -1.323664 2.230561 1.976731
C -0.373765 -0.439619 -0.191026
C -0.235039 0.145852 -1.503052
C 0.100625 -1.864873 -0.006860
H -1.329158 -0.227049 0.286253
H -0.793819 1.035810 -1.768428
H 0.536565 -0.203138 -2.181972
H 1.119521 -1.995491 -0.381094
H 0.066340 -2.164330 1.042040
H -0.561588 -2.527074 -0.577066
$end
$scan
stre 2 4 4.100000 4.101000 0.100000
$end
--------------------------------------------------------------

   11   -1038.2312237100      7.49e-07  Convergence criterion met
 Total energy in the final basis set =    -1038.2312237100
   11   -1038.2308288642      7.48e-07  Convergence criterion met
 Total energy in the final basis set =    -1038.2308288642
   11   -1038.2311575773      7.26e-07  Convergence criterion met
 Total energy in the final basis set =    -1038.2311575773
   11   -1038.2313177752      7.17e-07  Convergence criterion met
 Total energy in the final basis set =    -1038.2313177752
   11   -1038.2313328376      7.22e-07  Convergence criterion met
 Total energy in the final basis set =    -1038.2313328376
   11   -1038.2313425850      7.33e-07  Convergence criterion met
 Total energy in the final basis set =    -1038.2313425850
   11   -1038.2313457920      7.40e-07  Convergence criterion met
 Total energy in the final basis set =    -1038.2313457920
   11   -1038.2313487856      7.48e-07  Convergence criterion met
 Total energy in the final basis set =    -1038.2313487856
   11   -1038.2313510409      7.52e-07  Convergence criterion met
 Total energy in the final basis set =    -1038.2313510409
   11   -1038.2313534285      7.51e-07  Convergence criterion met
 Total energy in the final basis set =    -1038.2313534285
   11   -1038.2313550924      7.46e-07  Convergence criterion met
 Total energy in the final basis set =    -1038.2313550924

             Standard Nuclear Orientation (Angstroms)
    I     Atom           X                Y                Z
 ----------------------------------------------------------------
    1      Cl      0.7693913679     0.6467451099     1.0667481405
    2      Cl     -1.3124484926     2.3002192996     1.8576486400
    3      C      -0.3780287322    -0.4556316747    -0.1747476438
    4      C      -0.2468666383     0.1591292616    -1.4725573771
    5      C       0.1086003685    -1.8795579237    -0.0179029026
    6      H      -1.3311024589    -0.2559841239     0.3124203265
    7      H      -0.8046886020     1.0571542533    -1.7114541639
    8      H       0.5184004529    -0.1756513345    -2.1656487742
    9      H       1.1277635860    -1.9955174187    -0.3962101598
   10      H       0.0786984309    -2.1987921839     1.0252949904
   11      H      -0.5494212821    -2.5367142651    -0.5987870759
 ----------------------------------------------------------------

   11   -1038.2313559204      7.38e-07  Convergence criterion met
 Total energy in the final basis set =    -1038.2313559204

                    Orbital Energies (a.u.)
 --------------------------------------------------------------

 Alpha MOs
 -- Occupied --
*******-101.529 -10.281 -10.241 -10.215  -9.475  -9.441  -7.239
 -7.234  -7.228  -7.212  -7.194  -7.194  -0.872  -0.798  -0.775
 -0.725  -0.609  -0.507  -0.469  -0.461  -0.408  -0.403  -0.391
 -0.371  -0.330  -0.296  -0.292  -0.289  -0.256

 Beta MOs
 -- Occupied --
*******-101.523 -10.282 -10.229 -10.215  -9.471  -9.436  -7.232
 -7.227  -7.225  -7.195  -7.191  -7.191  -0.857  -0.777  -0.736
 -0.708  -0.599  -0.501  -0.462  -0.454  -0.402  -0.398  -0.373
 -0.326  -0.320  -0.283  -0.279

          Ground-State Mulliken Net Atomic Charges

     Atom                 Charge (a.u.)    Spin (a.u.)
  --------------------------------------------------------
      1 Cl                   -0.051438       0.440588
      2 Cl                   -0.211711       0.769540
      3 C                    -0.167254      -0.065940
      4 C                    -0.147700       0.919412
      5 C                    -0.314223       0.005221
      6 H                     0.192835       0.009947
      7 H                     0.150908      -0.040091
      8 H                     0.132850      -0.039974
      9 H                     0.135133      -0.000933
     10 H                     0.144956       0.001831
     11 H                     0.135644       0.000398
  --------------------------------------------------------
  Sum of atomic charges =    -0.000000

                    Cartesian Multipole Moments
 -----------------------------------------------------------------
    Charge (ESU x 10^10)
                 0.0000
    Dipole Moment (Debye)
         X       0.2391      Y      -3.5925      Z      -3.3089
       Tot       4.8900
    Quadrupole Moments (Debye-Ang)
        XX     -45.5406     XY       1.6479     YY     -48.1607
        XZ       1.3991     YZ      -4.8634     ZZ     -47.3909

 Final energy is   -1038.23135592043
 **  OPTIMIZATION CONVERGED  **
 Total job time:  41.77s(wall), 490.56s(cpu)
        *  Thank you very much for using Q-Chem.  Have a nice day.  *
