 Q-Chem 5.1, Q-Chem, Inc., Pleasanton, CA (2018)
 Q-Chem 5.1.1 for Intel X86 EM64T Linux

User input:
--------------------------------------------------------------

$comment
potential surface scanner
$end

$rem
JOBTYPE  PES_SCAN
UNRESTRICTED TRUE
SYM_IGNORE  TRUE
GEOM_OPT_MAX_CYCLES 400
SCF_MAX_CYCLES 400
METHOD   B3LYP
BASIS   6-31G**
PDB_PRINT 2
SCF_CONVERGENCE 6
THRESH 14
SCF_PRINT 1
$end
$molecule
0 1
Cl -1.392213 1.389908 0.053071
Cl 2.346639 -0.099504 1.235667
C -0.726273 -0.172634 -0.574994
C 0.633770 -0.020906 -1.103116
C -0.905586 -1.312769 0.432243
H -1.334184 -0.396591 -1.473523
H 1.142624 -0.904497 -1.475610
H 1.034432 0.949273 -1.371313
H -0.294786 -1.106906 1.312883
H -1.957549 -1.407672 0.705589
H -0.566575 -2.252304 -0.016096
$end
$scan
stre 2 4 3.000000 3.001000 0.100000
$end
--------------------------------------------------------------

   11   -1038.2564434812      4.72e-07  Convergence criterion met
 Total energy in the final basis set =    -1038.2564434812
   11   -1038.2493375718      6.02e-07  Convergence criterion met
 Total energy in the final basis set =    -1038.2493375718
   11   -1038.2494998371      5.98e-07  Convergence criterion met
 Total energy in the final basis set =    -1038.2494998371
   11   -1038.2497114821      5.88e-07  Convergence criterion met
 Total energy in the final basis set =    -1038.2497114821
   11   -1038.2497177229      5.88e-07  Convergence criterion met
 Total energy in the final basis set =    -1038.2497177229
   11   -1038.2497297948      5.90e-07  Convergence criterion met
 Total energy in the final basis set =    -1038.2497297948
   11   -1038.2497320645      5.90e-07  Convergence criterion met
 Total energy in the final basis set =    -1038.2497320645
   11   -1038.2497337590      5.89e-07  Convergence criterion met
 Total energy in the final basis set =    -1038.2497337590

             Standard Nuclear Orientation (Angstroms)
    I     Atom           X                Y                Z
 ----------------------------------------------------------------
    1      Cl     -1.4083690206     1.3904763370     0.0344047140
    2      Cl      2.3821106217    -0.1319082489     1.3002271880
    3      C      -0.7351906102    -0.1712243788    -0.5854875938
    4      C       0.6179868680    -0.0163213388    -1.1235110501
    5      C      -0.8990353661    -1.3072159533     0.4320974606
    6      H      -1.3491080847    -0.4104655158    -1.4765056478
    7      H       1.1321163297    -0.8987375083    -1.4919277959
    8      H       1.0285874547     0.9555995609    -1.3700262566
    9      H      -0.2786495062    -1.0938935095     1.3045563026
   10      H      -1.9481868241    -1.4028969513     0.7157920322
   11      H      -0.5619628622    -2.2480144933    -0.0148183532
 ----------------------------------------------------------------

   11   -1038.2497344420      5.88e-07  Convergence criterion met
 Total energy in the final basis set =    -1038.2497344420

                    Orbital Energies (a.u.)
 --------------------------------------------------------------

 Alpha MOs
 -- Occupied --
*******-101.486 -10.320 -10.309 -10.220  -9.480  -9.397  -7.244
 -7.234  -7.234  -7.161  -7.152  -7.152  -0.909  -0.803  -0.741
 -0.721  -0.629  -0.528  -0.515  -0.481  -0.429  -0.413  -0.402
 -0.329  -0.326  -0.275  -0.255  -0.254

 Beta MOs
 -- Occupied --
*******-101.486 -10.320 -10.309 -10.220  -9.480  -9.397  -7.244
 -7.234  -7.234  -7.161  -7.152  -7.152  -0.909  -0.803  -0.741
 -0.721  -0.629  -0.528  -0.515  -0.481  -0.429  -0.413  -0.402
 -0.329  -0.326  -0.275  -0.255  -0.254

          Ground-State Mulliken Net Atomic Charges

     Atom                 Charge (a.u.)    Spin (a.u.)
  --------------------------------------------------------
      1 Cl                   -0.020925      -0.000000
      2 Cl                   -0.444873       0.000000
      3 C                    -0.226330       0.000000
      4 C                    -0.065981      -0.000000
      5 C                    -0.304152       0.000000
      6 H                     0.196807       0.000000
      7 H                     0.195427       0.000000
      8 H                     0.210324       0.000000
      9 H                     0.195876      -0.000000
     10 H                     0.137786      -0.000000
     11 H                     0.126042      -0.000000
  --------------------------------------------------------
  Sum of atomic charges =    -0.000000

                    Cartesian Multipole Moments
 -----------------------------------------------------------------
    Charge (ESU x 10^10)
                 0.0000
    Dipole Moment (Debye)
         X      -3.7447      Y      -1.6859      Z      -4.9976
       Tot       6.4684
    Quadrupole Moments (Debye-Ang)
        XX     -55.1496     XY       2.7503     YY     -44.1913
        XZ      -6.8053     YZ       0.4749     ZZ     -43.6955

 Final energy is   -1038.24973444199
 **  OPTIMIZATION CONVERGED  **
 Total job time:  32.10s(wall), 374.43s(cpu)
        *  Thank you very much for using Q-Chem.  Have a nice day.  *
