 Q-Chem 5.1, Q-Chem, Inc., Pleasanton, CA (2018)
 Q-Chem 5.1.1 for Intel X86 EM64T Linux

User input:
--------------------------------------------------------------

$comment
potential surface scanner
$end

$rem
JOBTYPE  PES_SCAN
UNRESTRICTED TRUE
SYM_IGNORE  TRUE
GEOM_OPT_MAX_CYCLES 400
SCF_MAX_CYCLES 400
METHOD   B3LYP
BASIS   6-31G**
PDB_PRINT 2
SCF_CONVERGENCE 6
THRESH 14
SCF_PRINT 1
$end
$molecule
0 3
Cl 0.773424 0.590598 1.143058
Cl -1.284929 2.369666 1.546781
C -0.381547 -0.479529 -0.131950
C -0.271304 0.194097 -1.399313
C 0.119331 -1.903485 -0.037585
H -1.324737 -0.299782 0.380833
H -0.836285 1.100026 -1.584494
H 0.488242 -0.101734 -2.116075
H 1.133765 -1.997342 -0.434341
H 0.106303 -2.264290 0.992381
H -0.541965 -2.542826 -0.634490
$end
$scan
stre 2 4 3.700000 3.701000 0.100000
$end
--------------------------------------------------------------

   11   -1038.2317056266      7.37e-07  Convergence criterion met
 Total energy in the final basis set =    -1038.2317056266
   11   -1038.2313806956      7.41e-07  Convergence criterion met
 Total energy in the final basis set =    -1038.2313806956
   11   -1038.2315904063      7.31e-07  Convergence criterion met
 Total energy in the final basis set =    -1038.2315904063
   11   -1038.2316889594      7.34e-07  Convergence criterion met
 Total energy in the final basis set =    -1038.2316889594
   11   -1038.2316976305      7.39e-07  Convergence criterion met
 Total energy in the final basis set =    -1038.2316976305
   11   -1038.2317029258      7.49e-07  Convergence criterion met
 Total energy in the final basis set =    -1038.2317029258
   11   -1038.2317042568      7.54e-07  Convergence criterion met
 Total energy in the final basis set =    -1038.2317042568

             Standard Nuclear Orientation (Angstroms)
    I     Atom           X                Y                Z
 ----------------------------------------------------------------
    1      Cl      0.7746651099     0.5726402051     1.1681754891
    2      Cl     -1.2709867708     2.3909899451     1.4429223054
    3      C      -0.3836596278    -0.4884848561    -0.1196097473
    4      C      -0.2795704776     0.2066959250    -1.3741605219
    5      C       0.1228989110    -1.9110928692    -0.0438478203
    6      H      -1.3242636051    -0.3166844234     0.4000429380
    7      H      -0.8482460329     1.1136906232    -1.5410761287
    8      H       0.4772240120    -0.0755439555    -2.0993407379
    9      H       1.1365591242    -1.9972346223    -0.4442181926
   10      H       0.1136578915    -2.2836799959     0.9819844885
   11      H      -0.5379805344    -2.5458969759    -0.6460670723
 ----------------------------------------------------------------

   11   -1038.2317050964      7.57e-07  Convergence criterion met
 Total energy in the final basis set =    -1038.2317050964

                    Orbital Energies (a.u.)
 --------------------------------------------------------------

 Alpha MOs
 -- Occupied --
*******-101.528 -10.280 -10.240 -10.215  -9.475  -9.441  -7.239
 -7.234  -7.228  -7.212  -7.194  -7.194  -0.871  -0.799  -0.775
 -0.725  -0.608  -0.506  -0.468  -0.461  -0.408  -0.404  -0.390
 -0.373  -0.330  -0.296  -0.292  -0.287  -0.256

 Beta MOs
 -- Occupied --
*******-101.522 -10.281 -10.228 -10.215  -9.471  -9.436  -7.232
 -7.227  -7.226  -7.194  -7.191  -7.190  -0.856  -0.777  -0.736
 -0.709  -0.599  -0.501  -0.462  -0.454  -0.402  -0.398  -0.372
 -0.327  -0.320  -0.283  -0.279

          Ground-State Mulliken Net Atomic Charges

     Atom                 Charge (a.u.)    Spin (a.u.)
  --------------------------------------------------------
      1 Cl                   -0.053327       0.464250
      2 Cl                   -0.221468       0.755624
      3 C                    -0.164100      -0.062734
      4 C                    -0.143974       0.907029
      5 C                    -0.316540       0.005070
      6 H                     0.193247       0.008578
      7 H                     0.157422      -0.039531
      8 H                     0.132096      -0.039380
      9 H                     0.135874      -0.000960
     10 H                     0.143862       0.001799
     11 H                     0.136909       0.000255
  --------------------------------------------------------
  Sum of atomic charges =    -0.000000

                    Cartesian Multipole Moments
 -----------------------------------------------------------------
    Charge (ESU x 10^10)
                 0.0000
    Dipole Moment (Debye)
         X       0.2237      Y      -3.7347      Z      -2.9584
       Tot       4.7697
    Quadrupole Moments (Debye-Ang)
        XX     -45.5568     XY       1.7942     YY     -48.4816
        XZ       1.0310     YZ      -4.3618     ZZ     -46.4700

 Final energy is   -1038.23170509642
 **  OPTIMIZATION CONVERGED  **
 Total job time:  28.29s(wall), 328.33s(cpu)
        *  Thank you very much for using Q-Chem.  Have a nice day.  *
