 Q-Chem 5.1, Q-Chem, Inc., Pleasanton, CA (2018)
 Q-Chem 5.1.1 for Intel X86 EM64T Linux

User input:
--------------------------------------------------------------

$comment
potential surface scanner
$end

$rem
JOBTYPE  PES_SCAN
UNRESTRICTED TRUE
SYM_IGNORE  TRUE
GEOM_OPT_MAX_CYCLES 400
SCF_MAX_CYCLES 400
METHOD   B3LYP
BASIS   6-31G**
PDB_PRINT 2
SCF_CONVERGENCE 6
THRESH 14
SCF_PRINT 1
$end
$molecule
0 3
Cl 0.062925 0.421911 2.667904
Cl 0.160467 1.891166 0.344296
C -0.770181 -0.772177 -0.440170
C -0.570674 0.433233 -1.132140
C 0.289847 -1.783155 -0.207696
H -1.723284 -0.916132 0.063655
H -1.438022 1.016584 -1.420372
H 0.287912 0.515286 -1.791569
H 1.159159 -1.634924 -0.853432
H 0.619190 -1.706770 0.839219
H -0.097052 -2.799625 -0.344894
$end
$scan
stre 2 4 2.100000 2.101000 0.100000
$end
--------------------------------------------------------------

   11   -1038.2352192798      7.34e-07  Convergence criterion met
 Total energy in the final basis set =    -1038.2352192798
   11   -1038.2348397179      6.58e-07  Convergence criterion met
 Total energy in the final basis set =    -1038.2348397179
   11   -1038.2351868895      6.58e-07  Convergence criterion met
 Total energy in the final basis set =    -1038.2351868895
   11   -1038.2354034223      6.60e-07  Convergence criterion met
 Total energy in the final basis set =    -1038.2354034223
   11   -1038.2354083331      6.59e-07  Convergence criterion met
 Total energy in the final basis set =    -1038.2354083331
   11   -1038.2354115759      6.57e-07  Convergence criterion met
 Total energy in the final basis set =    -1038.2354115759

             Standard Nuclear Orientation (Angstroms)
    I     Atom           X                Y                Z
 ----------------------------------------------------------------
    1      Cl      0.0497582094     0.4424927289     2.6645303858
    2      Cl      0.1557808239     1.8643243198     0.3011862526
    3      C      -0.7728036838    -0.7747199749    -0.4336039528
    4      C      -0.5552681186     0.4633809559    -1.0922867798
    5      C       0.2896816452    -1.7866267817    -0.2090753460
    6      H      -1.7289291915    -0.9228400426     0.0625285676
    7      H      -1.4317008562     1.0188746788    -1.4105806077
    8      H       0.2834982727     0.5171808451    -1.7811074361
    9      H       1.1571803571    -1.6316099892    -0.8564325983
   10      H       0.6265891897    -1.7220374813     0.8363020095
   11      H      -0.0934996480    -2.8030222587    -0.3566594947
 ----------------------------------------------------------------

   11   -1038.2354125110      6.57e-07  Convergence criterion met
 Total energy in the final basis set =    -1038.2354125110

                    Orbital Energies (a.u.)
 --------------------------------------------------------------

 Alpha MOs
 -- Occupied --
*******-101.524 -10.269 -10.251 -10.208  -9.469  -9.437  -7.233
 -7.228  -7.222  -7.208  -7.190  -7.190  -0.857  -0.807  -0.774
 -0.721  -0.607  -0.512  -0.467  -0.451  -0.410  -0.401  -0.395
 -0.374  -0.322  -0.293  -0.288  -0.284  -0.246

 Beta MOs
 -- Occupied --
*******-101.519 -10.269 -10.241 -10.208  -9.465  -9.432  -7.224
 -7.220  -7.219  -7.191  -7.187  -7.187  -0.838  -0.783  -0.737
 -0.712  -0.594  -0.507  -0.462  -0.432  -0.405  -0.392  -0.377
 -0.324  -0.312  -0.280  -0.275

          Ground-State Mulliken Net Atomic Charges

     Atom                 Charge (a.u.)    Spin (a.u.)
  --------------------------------------------------------
      1 Cl                   -0.223905       0.750064
      2 Cl                   -0.088070       0.537316
      3 C                     0.022313       0.744584
      4 C                    -0.280047      -0.023664
      5 C                    -0.359558      -0.052971
      6 H                     0.140373      -0.032352
      7 H                     0.178846       0.003107
      8 H                     0.173445       0.003481
      9 H                     0.122997       0.003204
     10 H                     0.180609       0.046311
     11 H                     0.132997       0.020920
  --------------------------------------------------------
  Sum of atomic charges =    -0.000000

                    Cartesian Multipole Moments
 -----------------------------------------------------------------
    Charge (ESU x 10^10)
                -0.0000
    Dipole Moment (Debye)
         X      -1.0319      Y      -2.4290      Z      -4.2086
       Tot       4.9676
    Quadrupole Moments (Debye-Ang)
        XX     -43.5485     XY      -0.4833     YY     -45.0048
        XZ       0.2613     YZ      -3.4605     ZZ     -49.9504

 Final energy is   -1038.23541251105
 **  OPTIMIZATION CONVERGED  **
 Total job time:  25.90s(wall), 291.03s(cpu)
        *  Thank you very much for using Q-Chem.  Have a nice day.  *
