 Q-Chem 5.1, Q-Chem, Inc., Pleasanton, CA (2018)
 Q-Chem 5.1.1 for Intel X86 EM64T Linux

User input:
--------------------------------------------------------------

$comment
potential surface scanner
$end

$rem
JOBTYPE  PES_SCAN
UNRESTRICTED TRUE
SYM_IGNORE  TRUE
GEOM_OPT_MAX_CYCLES 400
SCF_MAX_CYCLES 400
METHOD   B3LYP
BASIS   6-31G**
PDB_PRINT 2
SCF_CONVERGENCE 6
THRESH 14
SCF_PRINT 1
$end
$molecule
0 3
Cl 0.793708 0.807929 0.888283
Cl -1.333929 1.801864 2.386573
C -0.363884 -0.367073 -0.262612
C -0.186764 0.100233 -1.618233
C 0.059930 -1.787265 0.044424
H -1.319337 -0.087835 0.179129
H -0.715195 0.977522 -1.972979
H 0.581657 -0.331412 -2.251687
H 1.079645 -1.978826 -0.299794
H -0.000446 -1.997080 1.113480
H -0.615087 -2.472658 -0.481781
$end
$scan
stre 2 4 4.400000 4.401000 0.100000
$end
--------------------------------------------------------------

   11   -1038.2307589651      8.38e-07  Convergence criterion met
 Total energy in the final basis set =    -1038.2307589651
   11   -1038.2300547683      8.65e-07  Convergence criterion met
 Total energy in the final basis set =    -1038.2300547683
   11   -1038.2306190427      8.07e-07  Convergence criterion met
 Total energy in the final basis set =    -1038.2306190427
   11   -1038.2308725802      7.73e-07  Convergence criterion met
 Total energy in the final basis set =    -1038.2308725802
   11   -1038.2309043933      7.74e-07  Convergence criterion met
 Total energy in the final basis set =    -1038.2309043933
   11   -1038.2309309238      7.88e-07  Convergence criterion met
 Total energy in the final basis set =    -1038.2309309238
   11   -1038.2309401249      8.02e-07  Convergence criterion met
 Total energy in the final basis set =    -1038.2309401249
   11   -1038.2309452871      8.15e-07  Convergence criterion met
 Total energy in the final basis set =    -1038.2309452871
   11   -1038.2309477345      8.21e-07  Convergence criterion met
 Total energy in the final basis set =    -1038.2309477345
   11   -1038.2309500266      8.24e-07  Convergence criterion met
 Total energy in the final basis set =    -1038.2309500266
   11   -1038.2309517832      8.22e-07  Convergence criterion met
 Total energy in the final basis set =    -1038.2309517832
   11   -1038.2309527881      8.17e-07  Convergence criterion met
 Total energy in the final basis set =    -1038.2309527881

             Standard Nuclear Orientation (Angstroms)
    I     Atom           X                Y                Z
 ----------------------------------------------------------------
    1      Cl      0.8111002510     0.7802925173     0.9215839012
    2      Cl     -1.3649748432     1.8788933894     2.2684878826
    3      C      -0.3608779688    -0.3817699451    -0.2439251437
    4      C      -0.1962752318     0.1141354273    -1.5889426916
    5      C       0.0686657062    -1.8056032329     0.0331777625
    6      H      -1.3071324755    -0.1061418468     0.2185992421
    7      H      -0.7221527560     1.0034824167    -1.9164370258
    8      H       0.5597025658    -0.3097945748    -2.2422816600
    9      H       1.0815625944    -1.9923632325    -0.3330973670
   10      H       0.0271567382    -2.0336518677     1.0993722705
   11      H      -0.6164765802    -2.4820800510    -0.4917341707
 ----------------------------------------------------------------

   11   -1038.2309531014      8.13e-07  Convergence criterion met
 Total energy in the final basis set =    -1038.2309531014

                    Orbital Energies (a.u.)
 --------------------------------------------------------------

 Alpha MOs
 -- Occupied --
*******-101.530 -10.280 -10.242 -10.213  -9.475  -9.443  -7.238
 -7.233  -7.228  -7.214  -7.196  -7.195  -0.871  -0.798  -0.776
 -0.724  -0.609  -0.507  -0.467  -0.461  -0.407  -0.403  -0.391
 -0.369  -0.329  -0.297  -0.293  -0.291  -0.257

 Beta MOs
 -- Occupied --
*******-101.524 -10.281 -10.230 -10.213  -9.471  -9.437  -7.231
 -7.226  -7.225  -7.196  -7.192  -7.192  -0.856  -0.776  -0.737
 -0.708  -0.599  -0.501  -0.461  -0.453  -0.401  -0.398  -0.372
 -0.325  -0.319  -0.284  -0.280

          Ground-State Mulliken Net Atomic Charges

     Atom                 Charge (a.u.)    Spin (a.u.)
  --------------------------------------------------------
      1 Cl                   -0.054845       0.436607
      2 Cl                   -0.207122       0.772865
      3 C                    -0.167577      -0.067520
      4 C                    -0.148313       0.922363
      5 C                    -0.312597       0.004639
      6 H                     0.195187       0.011172
      7 H                     0.145953      -0.040266
      8 H                     0.133229      -0.040260
      9 H                     0.133528      -0.000946
     10 H                     0.147891       0.002086
     11 H                     0.134668      -0.000738
  --------------------------------------------------------
  Sum of atomic charges =     0.000000

                    Cartesian Multipole Moments
 -----------------------------------------------------------------
    Charge (ESU x 10^10)
                 0.0000
    Dipole Moment (Debye)
         X       0.2532      Y      -3.1696      Z      -3.6703
       Tot       4.8561
    Quadrupole Moments (Debye-Ang)
        XX     -45.6532     XY       1.2512     YY     -46.9935
        XZ       1.7920     YZ      -4.7306     ZZ     -48.3237

 Final energy is   -1038.23095310138
 **  OPTIMIZATION CONVERGED  **
 Total job time:  44.96s(wall), 525.33s(cpu)
        *  Thank you very much for using Q-Chem.  Have a nice day.  *
