 Q-Chem 5.1, Q-Chem, Inc., Pleasanton, CA (2018)
 Q-Chem 5.1.1 for Intel X86 EM64T Linux

User input:
--------------------------------------------------------------

$comment
potential surface scanner
$end

$rem
JOBTYPE  PES_SCAN
UNRESTRICTED TRUE
SYM_IGNORE  TRUE
GEOM_OPT_MAX_CYCLES 400
SCF_MAX_CYCLES 400
METHOD   B3LYP
BASIS   6-31G**
PDB_PRINT 2
SCF_CONVERGENCE 6
THRESH 14
SCF_PRINT 1
$end
$molecule
0 3
Cl 0.100815 0.380965 2.714175
Cl 0.160922 1.913305 0.453556
C -0.766779 -0.762165 -0.459537
C -0.600265 0.376730 -1.225590
C 0.289982 -1.768848 -0.202938
H -1.712854 -0.890449 0.062665
H -1.448442 1.007655 -1.462192
H 0.288879 0.501205 -1.834963
H 1.160615 -1.639069 -0.849918
H 0.611446 -1.668033 0.844594
H -0.104031 -2.785898 -0.315050
$end
$scan
stre 2 4 2.300000 2.301000 0.100000
$end
--------------------------------------------------------------

   12   -1038.2343976946      5.75e-07  Convergence criterion met
 Total energy in the final basis set =    -1038.2343976946
   12   -1038.2344682027      5.31e-07  Convergence criterion met
 Total energy in the final basis set =    -1038.2344682027
   12   -1038.2346565905      5.30e-07  Convergence criterion met
 Total energy in the final basis set =    -1038.2346565905
   12   -1038.2348204692      5.27e-07  Convergence criterion met
 Total energy in the final basis set =    -1038.2348204692
   12   -1038.2348288401      5.26e-07  Convergence criterion met
 Total energy in the final basis set =    -1038.2348288401
   12   -1038.2348384018      5.23e-07  Convergence criterion met
 Total energy in the final basis set =    -1038.2348384018

             Standard Nuclear Orientation (Angstroms)
    I     Atom           X                Y                Z
 ----------------------------------------------------------------
    1      Cl      0.0807710085     0.4022085321     2.6857454305
    2      Cl      0.1642203894     1.9062883137     0.3947185219
    3      C      -0.7690438492    -0.7689929418    -0.4503391521
    4      C      -0.5863164632     0.4040984495    -1.1769436562
    5      C       0.2898273303    -1.7771076731    -0.2057346688
    6      H      -1.7188747936    -0.9067488244     0.0620451732
    7      H      -1.4437681942     1.0136944107    -1.4366270728
    8      H       0.2893537400     0.5107581050    -1.8090058507
    9      H       1.1605021517    -1.6369771374    -0.8508720001
   10      H       0.6130553940    -1.6874261332     0.8420944595
   11      H      -0.0994387136    -2.7943971010    -0.3302791846
 ----------------------------------------------------------------

   12   -1038.2348393367      5.23e-07  Convergence criterion met
 Total energy in the final basis set =    -1038.2348393367

                    Orbital Energies (a.u.)
 --------------------------------------------------------------

 Alpha MOs
 -- Occupied --
*******-101.519 -10.266 -10.264 -10.214  -9.464  -9.431  -7.228
 -7.224  -7.216  -7.202  -7.185  -7.184  -0.853  -0.807  -0.768
 -0.729  -0.610  -0.518  -0.472  -0.454  -0.414  -0.400  -0.387
 -0.372  -0.319  -0.289  -0.283  -0.277  -0.262

 Beta MOs
 -- Occupied --
*******-101.513 -10.265 -10.256 -10.214  -9.458  -9.426  -7.217
 -7.214  -7.213  -7.185  -7.181  -7.181  -0.835  -0.775  -0.733
 -0.717  -0.600  -0.513  -0.468  -0.439  -0.410  -0.397  -0.351
 -0.318  -0.306  -0.275  -0.270

          Ground-State Mulliken Net Atomic Charges

     Atom                 Charge (a.u.)    Spin (a.u.)
  --------------------------------------------------------
      1 Cl                   -0.243374       0.729357
      2 Cl                   -0.133413       0.683809
      3 C                     0.043832       0.574679
      4 C                    -0.251257       0.018223
      5 C                    -0.364749      -0.038335
      6 H                     0.147949      -0.025141
      7 H                     0.176478       0.000569
      8 H                     0.169767       0.000039
      9 H                     0.128111       0.001769
     10 H                     0.189487       0.036297
     11 H                     0.137169       0.018735
  --------------------------------------------------------
  Sum of atomic charges =    -0.000000

                    Cartesian Multipole Moments
 -----------------------------------------------------------------
    Charge (ESU x 10^10)
                -0.0000
    Dipole Moment (Debye)
         X      -1.1877      Y      -2.8570      Z      -4.6010
       Tot       5.5446
    Quadrupole Moments (Debye-Ang)
        XX     -43.3727     XY      -0.4411     YY     -44.9082
        XZ       0.1968     YZ      -3.5829     ZZ     -50.7217

 Final energy is   -1038.23483933666
 **  OPTIMIZATION CONVERGED  **
 Total job time:  36.63s(wall), 310.64s(cpu)
        *  Thank you very much for using Q-Chem.  Have a nice day.  *
