 Q-Chem 5.1, Q-Chem, Inc., Pleasanton, CA (2018)
 Q-Chem 5.1.1 for Intel X86 EM64T Linux

User input:
--------------------------------------------------------------

$comment
potential surface scanner
$end

$rem
JOBTYPE  PES_SCAN
UNRESTRICTED TRUE
SYM_IGNORE  TRUE
GEOM_OPT_MAX_CYCLES 400
SCF_MAX_CYCLES 400
METHOD   B3LYP
BASIS   6-31G**
PDB_PRINT 2
SCF_CONVERGENCE 6
THRESH 14
SCF_PRINT 1
$end
$molecule
0 3
Cl -0.019224 0.459505 2.680475
Cl 0.207000 1.799194 0.262161
C -0.776366 -0.780228 -0.437425
C -0.542174 0.494963 -1.056064
C 0.295151 -1.784440 -0.212974
H -1.734827 -0.935154 0.051243
H -1.429580 1.035931 -1.373588
H 0.255521 0.518626 -1.796077
H 1.147081 -1.641348 -0.884527
H 0.661944 -1.695869 0.821095
H -0.084240 -2.805781 -0.329517
$end
$scan
stre 2 4 1.900000 1.901000 0.100000
$end
--------------------------------------------------------------

   11   -1038.2352911883      7.27e-07  Convergence criterion met
 Total energy in the final basis set =    -1038.2352911883
   11   -1038.2336119873      6.28e-07  Convergence criterion met
 Total energy in the final basis set =    -1038.2336119873
   11   -1038.2339043632      6.31e-07  Convergence criterion met
 Total energy in the final basis set =    -1038.2339043632
   11   -1038.2342900851      6.47e-07  Convergence criterion met
 Total energy in the final basis set =    -1038.2342900851
   11   -1038.2342975437      6.49e-07  Convergence criterion met
 Total energy in the final basis set =    -1038.2342975437
   11   -1038.2343100500      6.53e-07  Convergence criterion met
 Total energy in the final basis set =    -1038.2343100500
   11   -1038.2343115313      6.52e-07  Convergence criterion met
 Total energy in the final basis set =    -1038.2343115313
   11   -1038.2343153860      6.46e-07  Convergence criterion met
 Total energy in the final basis set =    -1038.2343153860
   11   -1038.2343167491      6.43e-07  Convergence criterion met
 Total energy in the final basis set =    -1038.2343167491
   11   -1038.2343179923      6.41e-07  Convergence criterion met
 Total energy in the final basis set =    -1038.2343179923

             Standard Nuclear Orientation (Angstroms)
    I     Atom           X                Y                Z
 ----------------------------------------------------------------
    1      Cl     -0.0245933175     0.4993503306     2.7130182782
    2      Cl      0.1807813510     1.7589027083     0.2358014892
    3      C      -0.7772928418    -0.7819747545    -0.4380482284
    4      C      -0.5235226760     0.5247134282    -1.0254410166
    5      C       0.2950102336    -1.7886119565    -0.2186960411
    6      H      -1.7370965768    -0.9359839321     0.0479993965
    7      H      -1.4193281255     1.0344030557    -1.3757633452
    8      H       0.2547943920     0.5205260922    -1.7890692670
    9      H       1.1414196092    -1.6472739759    -0.8984485490
   10      H       0.6763873478    -1.7096193205     0.8112413204
   11      H      -0.0862733961    -2.8090326754    -0.3377920370
 ----------------------------------------------------------------

   11   -1038.2343187442      6.40e-07  Convergence criterion met
 Total energy in the final basis set =    -1038.2343187442

                    Orbital Energies (a.u.)
 --------------------------------------------------------------

 Alpha MOs
 -- Occupied --
*******-101.534 -10.267 -10.233 -10.200  -9.481  -9.447  -7.245
 -7.240  -7.234  -7.218  -7.200  -7.199  -0.877  -0.800  -0.784
 -0.709  -0.600  -0.504  -0.462  -0.451  -0.415  -0.403  -0.389
 -0.374  -0.326  -0.300  -0.296  -0.294  -0.230

 Beta MOs
 -- Occupied --
*******-101.528 -10.268 -10.221 -10.200  -9.478  -9.441  -7.239
 -7.233  -7.232  -7.200  -7.196  -7.196  -0.860  -0.779  -0.743
 -0.703  -0.584  -0.499  -0.454  -0.431  -0.405  -0.397  -0.382
 -0.330  -0.319  -0.287  -0.283

          Ground-State Mulliken Net Atomic Charges

     Atom                 Charge (a.u.)    Spin (a.u.)
  --------------------------------------------------------
      1 Cl                   -0.194051       0.783675
      2 Cl                   -0.009769       0.367882
      3 C                    -0.014327       0.899012
      4 C                    -0.313480      -0.042639
      5 C                    -0.352965      -0.066163
      6 H                     0.129286      -0.038511
      7 H                     0.174317       0.005114
      8 H                     0.170061       0.009833
      9 H                     0.115882       0.006114
     10 H                     0.167315       0.055523
     11 H                     0.127731       0.020161
  --------------------------------------------------------
  Sum of atomic charges =     0.000000

                    Cartesian Multipole Moments
 -----------------------------------------------------------------
    Charge (ESU x 10^10)
                -0.0000
    Dipole Moment (Debye)
         X      -0.7416      Y      -1.6499      Z      -3.6384
       Tot       4.0632
    Quadrupole Moments (Debye-Ang)
        XX     -43.8309     XY      -0.4939     YY     -44.7842
        XZ       0.2989     YZ      -3.2335     ZZ     -49.2407

 Final energy is   -1038.23431874419
 **  OPTIMIZATION CONVERGED  **
 Total job time:  39.59s(wall), 454.39s(cpu)
        *  Thank you very much for using Q-Chem.  Have a nice day.  *
