 Q-Chem 5.1, Q-Chem, Inc., Pleasanton, CA (2018)
 Q-Chem 5.1.1 for Intel X86 EM64T Linux

User input:
--------------------------------------------------------------

$comment
potential surface scanner
$end

$rem
JOBTYPE  PES_SCAN
UNRESTRICTED TRUE
SYM_IGNORE  TRUE
GEOM_OPT_MAX_CYCLES 400
SCF_MAX_CYCLES 400
METHOD   B3LYP
BASIS   6-31G**
PDB_PRINT 2
SCF_CONVERGENCE 6
THRESH 14
SCF_PRINT 1
$end
$molecule
0 1
Cl -1.273830 1.377838 0.217365
Cl 1.985572 0.120132 0.658223
C -0.624022 -0.179512 -0.482232
C 0.839636 -0.030539 -0.849799
C -0.945128 -1.347243 0.438935
H -1.158438 -0.290081 -1.432508
H 1.191596 -0.920824 -1.373277
H 1.032298 0.864729 -1.437115
H -0.458630 -1.221358 1.407681
H -2.023255 -1.428936 0.590537
H -0.585500 -2.278806 -0.013011
$end
$scan
stre 2 4 2.000000 2.001000 0.100000
$end
--------------------------------------------------------------

    9   -1038.3394302885      5.90e-07  Convergence criterion met
 Total energy in the final basis set =    -1038.3394302885
    9   -1038.3331603802      7.11e-07  Convergence criterion met
 Total energy in the final basis set =    -1038.3331603802
    9   -1038.3333170037      6.91e-07  Convergence criterion met
 Total energy in the final basis set =    -1038.3333170037
    9   -1038.3334013326      6.85e-07  Convergence criterion met
 Total energy in the final basis set =    -1038.3334013326
    9   -1038.3334035891      6.85e-07  Convergence criterion met
 Total energy in the final basis set =    -1038.3334035891

             Standard Nuclear Orientation (Angstroms)
    I     Atom           X                Y                Z
 ----------------------------------------------------------------
    1      Cl     -1.2779935200     1.3790867979     0.2080421247
    2      Cl      2.0219555334     0.1164683818     0.7103396652
    3      C      -0.6339588618    -0.1793780158    -0.4883671998
    4      C       0.8166340762    -0.0334095317    -0.8786022083
    5      C      -0.9443709392    -1.3465513878     0.4375300985
    6      H      -1.1770247675    -0.2951474952    -1.4346813966
    7      H       1.1940903091    -0.9254910671    -1.3771371329
    8      H       1.0361165450     0.8733296627    -1.4352384660
    9      H      -0.4463293321    -1.2167019577     1.3996605882
   10      H      -2.0208359153    -1.4286809008     0.5998843568
   11      H      -0.5879841279    -2.2781244864    -0.0166314298
 ----------------------------------------------------------------

    9   -1038.3334043118      6.85e-07  Convergence criterion met
 Total energy in the final basis set =    -1038.3334043118

                    Orbital Energies (a.u.)
 --------------------------------------------------------------

 Alpha MOs
 -- Occupied --
*******-101.532 -10.278 -10.276 -10.202  -9.456  -9.447  -7.220
 -7.211  -7.210  -7.210  -7.201  -7.201  -0.882  -0.813  -0.762
 -0.710  -0.598  -0.497  -0.490  -0.455  -0.410  -0.392  -0.386
 -0.367  -0.307  -0.305  -0.298  -0.294

 Beta MOs
 -- Occupied --
*******-101.532 -10.278 -10.276 -10.202  -9.456  -9.447  -7.220
 -7.211  -7.210  -7.210  -7.201  -7.201  -0.882  -0.813  -0.762
 -0.710  -0.598  -0.497  -0.490  -0.455  -0.410  -0.392  -0.386
 -0.367  -0.307  -0.305  -0.298  -0.294

          Ground-State Mulliken Net Atomic Charges

     Atom                 Charge (a.u.)    Spin (a.u.)
  --------------------------------------------------------
      1 Cl                   -0.065858       0.000000
      2 Cl                   -0.155473      -0.000000
      3 C                    -0.176200       0.000000
      4 C                    -0.227323       0.000000
      5 C                    -0.303069       0.000000
      6 H                     0.166066      -0.000000
      7 H                     0.170745       0.000000
      8 H                     0.183147      -0.000000
      9 H                     0.159872      -0.000000
     10 H                     0.131849      -0.000000
     11 H                     0.116243       0.000000
  --------------------------------------------------------
  Sum of atomic charges =    -0.000000

                    Cartesian Multipole Moments
 -----------------------------------------------------------------
    Charge (ESU x 10^10)
                -0.0000
    Dipole Moment (Debye)
         X      -1.0561      Y      -2.0833      Z      -2.5200
       Tot       3.4360
    Quadrupole Moments (Debye-Ang)
        XX     -49.1244     XY       1.8326     YY     -45.0880
        XZ      -1.8966     YZ      -0.1342     ZZ     -42.4880

 Final energy is   -1038.33340431184
 **  OPTIMIZATION CONVERGED  **
 Total job time:  19.85s(wall), 227.29s(cpu)
        *  Thank you very much for using Q-Chem.  Have a nice day.  *
