 Q-Chem 5.1, Q-Chem, Inc., Pleasanton, CA (2018)
 Q-Chem 5.1.1 for Intel X86 EM64T Linux

User input:
--------------------------------------------------------------

$comment
potential surface scanner
$end

$rem
JOBTYPE  PES_SCAN
UNRESTRICTED TRUE
SYM_IGNORE  TRUE
GEOM_OPT_MAX_CYCLES 400
SCF_MAX_CYCLES 400
METHOD   B3LYP
BASIS   6-31G**
PDB_PRINT 2
SCF_CONVERGENCE 6
THRESH 14
SCF_PRINT 1
$end
$molecule
0 1
Cl -1.408369 1.390476 0.034405
Cl 2.382111 -0.131908 1.300227
C -0.735191 -0.171224 -0.585488
C 0.617987 -0.016321 -1.123511
C -0.899035 -1.307216 0.432097
H -1.349108 -0.410466 -1.476506
H 1.132116 -0.898738 -1.491928
H 1.028587 0.955600 -1.370026
H -0.278650 -1.093894 1.304556
H -1.948187 -1.402897 0.715792
H -0.561963 -2.248014 -0.014818
$end
$scan
stre 2 4 3.100000 3.101000 0.100000
$end
--------------------------------------------------------------

   11   -1038.2497344447      5.88e-07  Convergence criterion met
 Total energy in the final basis set =    -1038.2497344447
   11   -1038.2435341147      7.66e-07  Convergence criterion met
 Total energy in the final basis set =    -1038.2435341147
   11   -1038.2434729024      7.63e-07  Convergence criterion met
 Total energy in the final basis set =    -1038.2434729024
   11   -1038.2434821118      7.66e-07  Convergence criterion met
 Total energy in the final basis set =    -1038.2434821118
   11   -1038.2434911945      7.69e-07  Convergence criterion met
 Total energy in the final basis set =    -1038.2434911945
   11   -1038.2434935711      7.69e-07  Convergence criterion met
 Total energy in the final basis set =    -1038.2434935711
   11   -1038.2434977307      7.68e-07  Convergence criterion met
 Total energy in the final basis set =    -1038.2434977307
   11   -1038.2435005589      7.67e-07  Convergence criterion met
 Total energy in the final basis set =    -1038.2435005589
   11   -1038.2435036181      7.66e-07  Convergence criterion met
 Total energy in the final basis set =    -1038.2435036181
   11   -1038.2435051202      7.65e-07  Convergence criterion met
 Total energy in the final basis set =    -1038.2435051202

             Standard Nuclear Orientation (Angstroms)
    I     Atom           X                Y                Z
 ----------------------------------------------------------------
    1      Cl     -1.4349562346     1.3897253005     0.0058243884
    2      Cl      2.4250657331    -0.1866971297     1.3585391110
    3      C      -0.7463080448    -0.1705478844    -0.5988463784
    4      C       0.6015558182    -0.0082828173    -1.1420563329
    5      C      -0.8916891705    -1.2981994355     0.4346619545
    6      H      -1.3630297306    -0.4326307190    -1.4815060209
    7      H       1.1208704823    -0.8864153160    -1.5141627031
    8      H       1.0234020993     0.9664669082    -1.3576159703
    9      H      -0.2679775907    -1.0678976954     1.3005723300
   10      H      -1.9389606097    -1.3999222891     0.7233091384
   11      H      -0.5476747522    -2.2402009224    -0.0039195167
 ----------------------------------------------------------------

   11   -1038.2435056851      7.65e-07  Convergence criterion met
 Total energy in the final basis set =    -1038.2435056851

                    Orbital Energies (a.u.)
 --------------------------------------------------------------

 Alpha MOs
 -- Occupied --
*******-101.483 -10.322 -10.311 -10.222  -9.482  -9.394  -7.246
 -7.236  -7.236  -7.158  -7.149  -7.149  -0.911  -0.805  -0.742
 -0.718  -0.631  -0.530  -0.516  -0.483  -0.431  -0.415  -0.404
 -0.331  -0.328  -0.270  -0.252  -0.251

 Beta MOs
 -- Occupied --
*******-101.483 -10.322 -10.311 -10.222  -9.482  -9.394  -7.246
 -7.236  -7.236  -7.158  -7.149  -7.149  -0.911  -0.805  -0.742
 -0.718  -0.631  -0.530  -0.516  -0.483  -0.431  -0.415  -0.404
 -0.331  -0.328  -0.270  -0.252  -0.251

          Ground-State Mulliken Net Atomic Charges

     Atom                 Charge (a.u.)    Spin (a.u.)
  --------------------------------------------------------
      1 Cl                   -0.019673      -0.000000
      2 Cl                   -0.454760       0.000000
      3 C                    -0.230051       0.000000
      4 C                    -0.063361      -0.000000
      5 C                    -0.303865      -0.000000
      6 H                     0.198973      -0.000000
      7 H                     0.196539       0.000000
      8 H                     0.212000       0.000000
      9 H                     0.197851       0.000000
     10 H                     0.138585      -0.000000
     11 H                     0.127760       0.000000
  --------------------------------------------------------
  Sum of atomic charges =    -0.000000

                    Cartesian Multipole Moments
 -----------------------------------------------------------------
    Charge (ESU x 10^10)
                -0.0000
    Dipole Moment (Debye)
         X      -3.9484      Y      -1.5732      Z      -5.1882
       Tot       6.7069
    Quadrupole Moments (Debye-Ang)
        XX     -55.7797     XY       3.0900     YY     -44.1635
        XZ      -7.3436     YZ       0.6637     ZZ     -44.0110

 Final energy is   -1038.24350568515
 **  OPTIMIZATION CONVERGED  **
 Total job time:  41.61s(wall), 468.66s(cpu)
        *  Thank you very much for using Q-Chem.  Have a nice day.  *
