 Q-Chem 5.1, Q-Chem, Inc., Pleasanton, CA (2018)
 Q-Chem 5.1.1 for Intel X86 EM64T Linux

User input:
--------------------------------------------------------------

$comment
potential surface scanner
$end

$rem
JOBTYPE  PES_SCAN
UNRESTRICTED TRUE
SYM_IGNORE  TRUE
GEOM_OPT_MAX_CYCLES 400
SCF_MAX_CYCLES 400
METHOD   B3LYP
BASIS   6-31G**
PDB_PRINT 2
SCF_CONVERGENCE 6
THRESH 14
SCF_PRINT 1
$end
$molecule
0 3
Cl 0.765769 0.551634 1.201128
Cl -1.242202 2.431631 1.329681
C -0.389519 -0.500833 -0.105926
C -0.290729 0.218762 -1.345747
C 0.128647 -1.919823 -0.052124
H -1.329948 -0.343817 0.418464
H -0.865405 1.125025 -1.494185
H 0.466334 -0.046117 -2.077209
H 1.141897 -1.992731 -0.455968
H 0.124506 -2.307222 0.968270
H -0.529054 -2.551110 -0.661581
$end
$scan
stre 2 4 3.500000 3.501000 0.100000
$end
--------------------------------------------------------------

   11   -1038.2316020773      7.81e-07  Convergence criterion met
 Total energy in the final basis set =    -1038.2316020773
   11   -1038.2311223355      7.71e-07  Convergence criterion met
 Total energy in the final basis set =    -1038.2311223355
   11   -1038.2312954482      7.75e-07  Convergence criterion met
 Total energy in the final basis set =    -1038.2312954482
   11   -1038.2313817193      7.78e-07  Convergence criterion met
 Total energy in the final basis set =    -1038.2313817193
   11   -1038.2313912460      7.84e-07  Convergence criterion met
 Total energy in the final basis set =    -1038.2313912460
   11   -1038.2314024806      7.97e-07  Convergence criterion met
 Total energy in the final basis set =    -1038.2314024806
   11   -1038.2314091740      8.05e-07  Convergence criterion met
 Total energy in the final basis set =    -1038.2314091740
   11   -1038.2314207011      8.17e-07  Convergence criterion met
   11   -1038.2314605375      8.04e-07  Convergence criterion met
 Total energy in the final basis set =    -1038.2314605375
   11   -1038.2314670472      7.80e-07  Convergence criterion met
 Total energy in the final basis set =    -1038.2314670472
   11   -1038.2314680944      7.77e-07  Convergence criterion met
 Total energy in the final basis set =    -1038.2314680944
   11   -1038.2314700350      7.74e-07  Convergence criterion met
 Total energy in the final basis set =    -1038.2314700350
   11   -1038.2314710790      7.75e-07  Convergence criterion met
 Total energy in the final basis set =    -1038.2314710790
   11   -1038.2314721345      7.81e-07  Convergence criterion met
 Total energy in the final basis set =    -1038.2314721345

             Standard Nuclear Orientation (Angstroms)
    I     Atom           X                Y                Z
 ----------------------------------------------------------------
    1      Cl      0.6920672508     0.4999296978     1.2714889493
    2      Cl     -1.1092015203     2.5880685581     1.1621804249
    3      C      -0.4137215841    -0.5291059642    -0.0779255153
    4      C      -0.3264693218     0.2267478585    -1.2998303079
    5      C       0.1488782360    -1.9338236068    -0.0691450934
    6      H      -1.3697261354    -0.4303421006     0.4332658905
    7      H      -0.9312439014     1.1146003072    -1.4381303351
    8      H       0.4551247621     0.0090548849    -2.0210222179
    9      H       1.1677089744    -1.9579393789    -0.4645403067
   10      H       0.1487403420    -2.3584270676     0.9364385334
   11      H      -0.4818611023    -2.5633641884    -0.7079770218
 ----------------------------------------------------------------

   11   -1038.2314724427      7.84e-07  Convergence criterion met
 Total energy in the final basis set =    -1038.2314724427

                    Orbital Energies (a.u.)
 --------------------------------------------------------------

 Alpha MOs
 -- Occupied --
*******-101.528 -10.281 -10.238 -10.216  -9.475  -9.441  -7.239
 -7.234  -7.228  -7.212  -7.194  -7.194  -0.871  -0.798  -0.775
 -0.724  -0.608  -0.506  -0.469  -0.460  -0.408  -0.402  -0.390
 -0.374  -0.329  -0.296  -0.292  -0.287  -0.255

 Beta MOs
 -- Occupied --
*******-101.522 -10.281 -10.226 -10.215  -9.471  -9.436  -7.232
 -7.227  -7.226  -7.194  -7.191  -7.190  -0.856  -0.777  -0.736
 -0.708  -0.598  -0.500  -0.462  -0.453  -0.401  -0.397  -0.373
 -0.328  -0.319  -0.283  -0.279

          Ground-State Mulliken Net Atomic Charges

     Atom                 Charge (a.u.)    Spin (a.u.)
  --------------------------------------------------------
      1 Cl                   -0.052069       0.457607
      2 Cl                   -0.220269       0.757459
      3 C                    -0.164249      -0.060942
      4 C                    -0.143161       0.910286
      5 C                    -0.316517       0.005549
      6 H                     0.188401       0.007474
      7 H                     0.160776      -0.039641
      8 H                     0.131281      -0.039539
      9 H                     0.136906      -0.001003
     10 H                     0.142205       0.002018
     11 H                     0.136696       0.000732
  --------------------------------------------------------
  Sum of atomic charges =    -0.000000

                    Cartesian Multipole Moments
 -----------------------------------------------------------------
    Charge (ESU x 10^10)
                -0.0000
    Dipole Moment (Debye)
         X       0.0622      Y      -3.9019      Z      -2.6780
       Tot       4.7329
    Quadrupole Moments (Debye-Ang)
        XX     -45.1797     XY       1.6696     YY     -49.1212
        XZ       0.6325     YZ      -4.0467     ZZ     -46.0296

 Final energy is   -1038.23147244275
 **  OPTIMIZATION CONVERGED  **
 Total job time:  60.12s(wall), 699.12s(cpu)
        *  Thank you very much for using Q-Chem.  Have a nice day.  *
