 Q-Chem 5.1, Q-Chem, Inc., Pleasanton, CA (2018)
 Q-Chem 5.1.1 for Intel X86 EM64T Linux

User input:
--------------------------------------------------------------

$comment
potential surface scanner
$end

$rem
JOBTYPE  PES_SCAN
UNRESTRICTED TRUE
SYM_IGNORE  TRUE
GEOM_OPT_MAX_CYCLES 400
SCF_MAX_CYCLES 400
METHOD   B3LYP
BASIS   6-31G**
PDB_PRINT 2
SCF_CONVERGENCE 6
THRESH 14
SCF_PRINT 1
$end
$molecule
0 3
Cl 0.688305 0.472955 1.319205
Cl -1.051832 2.568648 0.983667
C -0.425275 -0.537696 -0.056431
C -0.340285 0.250631 -1.254748
C 0.150859 -1.936183 -0.078996
H -1.378264 -0.454418 0.462479
H -0.971146 1.118187 -1.393896
H 0.458301 0.065836 -1.966882
H 1.166620 -1.942513 -0.482560
H 0.161924 -2.380638 0.918004
H -0.478915 -2.559408 -0.725037
$end
$scan
stre 2 4 3.200000 3.201000 0.100000
$end
--------------------------------------------------------------

   11   -1038.2305515894      7.92e-07  Convergence criterion met
 Total energy in the final basis set =    -1038.2305515894
   11   -1038.2290508698      7.89e-07  Convergence criterion met
 Total energy in the final basis set =    -1038.2290508698
   11   -1038.2294383795      7.93e-07  Convergence criterion met
 Total energy in the final basis set =    -1038.2294383795
   11   -1038.2295525007      7.95e-07  Convergence criterion met
 Total energy in the final basis set =    -1038.2295525007
   11   -1038.2295707537      7.97e-07  Convergence criterion met
 Total energy in the final basis set =    -1038.2295707537
   11   -1038.2295907379      8.03e-07  Convergence criterion met
 Total energy in the final basis set =    -1038.2295907379
   11   -1038.2296025859      8.08e-07  Convergence criterion met
 Total energy in the final basis set =    -1038.2296025859
   11   -1038.2296162657      8.10e-07  Convergence criterion met
   11   -1038.2299566477      6.69e-07  Convergence criterion met
 Total energy in the final basis set =    -1038.2299566477
   11   -1038.2299635400      6.74e-07  Convergence criterion met
 Total energy in the final basis set =    -1038.2299635400
   11   -1038.2299720268      6.81e-07  Convergence criterion met
 Total energy in the final basis set =    -1038.2299720268
   11   -1038.2299774991      6.86e-07  Convergence criterion met
 Total energy in the final basis set =    -1038.2299774991
   11   -1038.2299813409      6.88e-07  Convergence criterion met
 Total energy in the final basis set =    -1038.2299813409
   11   -1038.2299827264      6.87e-07  Convergence criterion met
 Total energy in the final basis set =    -1038.2299827264

             Standard Nuclear Orientation (Angstroms)
    I     Atom           X                Y                Z
 ----------------------------------------------------------------
    1      Cl      0.4279544527     0.3896613056     1.4727724868
    2      Cl     -0.5387045547     2.8512869507     0.6868809797
    3      C      -0.5138128807    -0.6117108682    -0.0246583930
    4      C      -0.4496013202     0.2499281318    -1.1745685112
    5      C       0.2034810264    -1.9426524902    -0.1031288717
    6      H      -1.4999705112    -0.6683570005     0.4326327758
    7      H      -1.1882819360     1.0226331654    -1.3332734938
    8      H       0.4203974684     0.2224963118    -1.8229379065
    9      H       1.2265818117    -1.8178755008    -0.4666294432
   10      H       0.2287663655    -2.4444635318     0.8660566415
   11      H      -0.3365179218    -2.5855454737    -0.8083412643
 ----------------------------------------------------------------

   11   -1038.2299830374      6.85e-07  Convergence criterion met
 Total energy in the final basis set =    -1038.2299830374

                    Orbital Energies (a.u.)
 --------------------------------------------------------------

 Alpha MOs
 -- Occupied --
*******-101.527 -10.281 -10.237 -10.216  -9.474  -9.440  -7.237
 -7.233  -7.227  -7.211  -7.193  -7.193  -0.870  -0.797  -0.775
 -0.724  -0.608  -0.506  -0.469  -0.458  -0.409  -0.401  -0.389
 -0.375  -0.327  -0.295  -0.291  -0.286  -0.252

 Beta MOs
 -- Occupied --
*******-101.521 -10.282 -10.225 -10.215  -9.470  -9.434  -7.230
 -7.225  -7.224  -7.193  -7.189  -7.189  -0.855  -0.776  -0.736
 -0.707  -0.598  -0.501  -0.462  -0.450  -0.402  -0.396  -0.371
 -0.328  -0.318  -0.281  -0.278

          Ground-State Mulliken Net Atomic Charges

     Atom                 Charge (a.u.)    Spin (a.u.)
  --------------------------------------------------------
      1 Cl                   -0.056449       0.462271
      2 Cl                   -0.217910       0.759941
      3 C                    -0.161333      -0.051762
      4 C                    -0.138278       0.893795
      5 C                    -0.313019       0.006659
      6 H                     0.177404       0.003400
      7 H                     0.160748      -0.038643
      8 H                     0.134202      -0.039320
      9 H                     0.138911      -0.001108
     10 H                     0.140153       0.003976
     11 H                     0.135571       0.000792
  --------------------------------------------------------
  Sum of atomic charges =    -0.000000

                    Cartesian Multipole Moments
 -----------------------------------------------------------------
    Charge (ESU x 10^10)
                -0.0000
    Dipole Moment (Debye)
         X      -0.4954      Y      -4.1426      Z      -2.3322
       Tot       4.7797
    Quadrupole Moments (Debye-Ang)
        XX     -44.1143     XY       0.7606     YY     -50.1471
        XZ       0.0502     YZ      -3.4393     ZZ     -45.6452

 Final energy is   -1038.22998303739
 **  OPTIMIZATION CONVERGED  **
 Total job time:  85.33s(wall), 942.94s(cpu)
        *  Thank you very much for using Q-Chem.  Have a nice day.  *
