 Q-Chem 5.1, Q-Chem, Inc., Pleasanton, CA (2018)
 Q-Chem 5.1.1 for Intel X86 EM64T Linux

User input:
--------------------------------------------------------------

$comment
potential surface scanner
$end

$rem
JOBTYPE  PES_SCAN
UNRESTRICTED TRUE
SYM_IGNORE  TRUE
GEOM_OPT_MAX_CYCLES 400
SCF_MAX_CYCLES 400
METHOD   B3LYP
BASIS   6-31G**
PDB_PRINT 2
SCF_CONVERGENCE 6
THRESH 14
SCF_PRINT 1
$end
$molecule
0 3
S 0.546243 -1.602087 -0.068540
S -2.069297 -0.438344 0.291489
C 0.595562 0.270064 -0.276369
C -0.570376 0.873535 0.470961
C 1.966214 0.833377 0.094688
H 0.426895 0.368048 -1.354055
H -0.391200 0.955512 1.547540
H -0.899029 1.830225 0.060688
H 1.994355 1.908992 -0.112391
H 2.173025 0.694510 1.161177
H 2.765462 0.351633 -0.476635
H 0.767716 -1.612483 1.262646
H -3.065870 -1.307987 -0.412202
$end
$scan
stre 2 4 1.900000 1.901000 0.100000
$end
--------------------------------------------------------------

   11    -915.3869525981      5.56e-07  Convergence criterion met
 Total energy in the final basis set =     -915.3869525981
   11    -915.3812384252      5.41e-07  Convergence criterion met
 Total energy in the final basis set =     -915.3812384252
   11    -915.3818179271      5.41e-07  Convergence criterion met
 Total energy in the final basis set =     -915.3818179271
   11    -915.3825839543      5.42e-07  Convergence criterion met
 Total energy in the final basis set =     -915.3825839543
   11    -915.3827071446      8.63e-07  Convergence criterion met
 Total energy in the final basis set =     -915.3827071446
   11    -915.3827793925      7.89e-07  Convergence criterion met
 Total energy in the final basis set =     -915.3827793925
   11    -915.3828082495      7.63e-07  Convergence criterion met
 Total energy in the final basis set =     -915.3828082495
   11    -915.3828210456      7.54e-07  Convergence criterion met
 Total energy in the final basis set =     -915.3828210456
   11    -915.3828299772      7.51e-07  Convergence criterion met
 Total energy in the final basis set =     -915.3828299772
   11    -915.3828384934      7.50e-07  Convergence criterion met
 Total energy in the final basis set =     -915.3828384934
   11    -915.3828455500      7.50e-07  Convergence criterion met
 Total energy in the final basis set =     -915.3828455500
   11    -915.3828506359      7.49e-07  Convergence criterion met
 Total energy in the final basis set =     -915.3828506359
   11    -915.3828524011      7.49e-07  Convergence criterion met
 Total energy in the final basis set =     -915.3828524011

             Standard Nuclear Orientation (Angstroms)
    I     Atom           X                Y                Z
 ----------------------------------------------------------------
    1      S       0.6090536832    -1.6312311274     0.0026433845
    2      S      -2.0600687419    -0.3529723845     0.2811564144
    3      C       0.6029423434     0.2218646006    -0.2590925056
    4      C      -0.5729547004     0.8078472467     0.5069677168
    5      C       1.9527209815     0.8574854053     0.0657663857
    6      H       0.4007918586     0.2921640379    -1.3331670458
    7      H      -0.3578496485     0.8718967124     1.5802240083
    8      H      -0.8440630711     1.8027176662     0.1391039369
    9      H       1.9283869579     1.9275536732    -0.1702358332
   10      H       2.1916480354     0.7552773570     1.1294125959
   11      H       2.7583774026     0.3966090333    -0.5126115433
   12      H       0.8111079882    -1.5932912741     1.3368519367
   13      H      -3.1803930891    -1.2309259467    -0.5780224514
 ----------------------------------------------------------------

   11    -915.3828528422      7.48e-07  Convergence criterion met
 Total energy in the final basis set =     -915.3828528422

                    Orbital Energies (a.u.)
 --------------------------------------------------------------

 Alpha MOs
 -- Occupied --
-88.903 -88.893 -10.247 -10.216 -10.201  -7.965  -7.951  -5.929
 -5.926  -5.922  -5.919  -5.913  -5.905  -0.845  -0.750  -0.729
 -0.659  -0.593  -0.481  -0.458  -0.442  -0.418  -0.412  -0.386
 -0.365  -0.338  -0.300  -0.263  -0.245  -0.174

 Beta MOs
 -- Occupied --
-88.902 -88.887 -10.247 -10.211 -10.201  -7.964  -7.944  -5.928
 -5.925  -5.919  -5.910  -5.902  -5.899  -0.839  -0.727  -0.724
 -0.632  -0.584  -0.477  -0.451  -0.434  -0.414  -0.404  -0.366
 -0.360  -0.332  -0.264  -0.237

          Ground-State Mulliken Net Atomic Charges

     Atom                 Charge (a.u.)    Spin (a.u.)
  --------------------------------------------------------
      1 S                     0.026390       0.183854
      2 S                     0.038830       0.943168
      3 C                    -0.214946      -0.010588
      4 C                    -0.335917       0.283654
      5 C                    -0.304206       0.001676
      6 H                     0.155402       0.001835
      7 H                     0.130109       0.007380
      8 H                     0.138268      -0.006141
      9 H                     0.119665       0.000848
     10 H                     0.113130       0.000295
     11 H                     0.127829       0.005369
     12 H                     0.077608      -0.005283
     13 H                    -0.072162       0.593932
  --------------------------------------------------------
  Sum of atomic charges =     0.000000

                    Cartesian Multipole Moments
 -----------------------------------------------------------------
    Charge (ESU x 10^10)
                -0.0000
    Dipole Moment (Debye)
         X       2.8629      Y       1.9338      Z       0.5456
       Tot       3.4976
    Quadrupole Moments (Debye-Ang)
        XX     -53.4910     XY      -1.9622     YY     -47.7964
        XZ       1.2116     YZ      -1.7328     ZZ     -46.0386

 Final energy is   -915.382852842182
 **  OPTIMIZATION CONVERGED  **
 Total job time:  63.61s(wall), 732.91s(cpu)
        *  Thank you very much for using Q-Chem.  Have a nice day.  *
