 Q-Chem 5.1, Q-Chem, Inc., Pleasanton, CA (2018)
 Q-Chem 5.1.1 for Intel X86 EM64T Linux

User input:
--------------------------------------------------------------

$comment
potential surface scanner
$end

$rem
JOBTYPE  PES_SCAN
UNRESTRICTED TRUE
SYM_IGNORE  TRUE
GEOM_OPT_MAX_CYCLES 400
SCF_MAX_CYCLES 400
METHOD   B3LYP
BASIS   6-31G**
PDB_PRINT 2
SCF_CONVERGENCE 6
THRESH 14
SCF_PRINT 1
$end
$molecule
0 3
S 0.071139 -1.135595 -0.139096
S -3.896314 -2.146266 -0.330010
C 0.710778 0.667094 -0.202502
C -0.060112 1.502916 0.731606
C 2.222801 0.707996 0.016975
H 0.469707 0.921089 -1.240252
H 0.281802 1.631580 1.754543
H -1.068678 1.816939 0.487920
H 2.590463 1.727293 -0.145215
H 2.476422 0.418891 1.042351
H 2.743507 0.033971 -0.667002
H 0.316929 -1.331563 1.171985
H -2.618745 -1.689345 -0.292304
$end
$scan
stre 2 4 5.300000 5.301000 0.100000
$end
--------------------------------------------------------------

   38    -915.4173690049      6.00e-07  Convergence criterion met
 Total energy in the final basis set =     -915.4173690049
   34    -915.4174074651      5.26e-07  Convergence criterion met
 Total energy in the final basis set =     -915.4174074651
   37    -915.4174303115      1.87e-08  Convergence criterion met
 Total energy in the final basis set =     -915.4174303115
   38    -915.4174422446      1.83e-07  Convergence criterion met
 Total energy in the final basis set =     -915.4174422446

             Standard Nuclear Orientation (Angstroms)
    I     Atom           X                Y                Z
 ----------------------------------------------------------------
    1      S       0.1009079863    -1.1648233225    -0.1343735202
    2      S      -3.8868736487    -2.0606710312    -0.3208427100
    3      C       0.7083701493     0.6478423502    -0.2039210242
    4      C      -0.0793223958     1.4747911251     0.7246529635
    5      C       2.2192560877     0.7175857255     0.0170123674
    6      H       0.4642624364     0.8927448042    -1.2432596855
    7      H       0.2599406691     1.6173222421     1.7465609942
    8      H      -1.0936502786     1.7678100619     0.4785732655
    9      H       2.5690490115     1.7431946714    -0.1452482469
   10      H       2.4779370122     0.4332589424     1.0423512581
   11      H       2.7527128542     0.0531297493    -0.6664316522
   12      H       0.3415270674    -1.3513844641     1.1792318159
   13      H      -2.5944179511    -1.6458008543    -0.2853068256
 ----------------------------------------------------------------

   38    -915.4174430002      1.83e-07  Convergence criterion met
 Total energy in the final basis set =     -915.4174430002

                    Orbital Energies (a.u.)
 --------------------------------------------------------------

 Alpha MOs
 -- Occupied --
-88.893 -88.885 -10.243 -10.208 -10.195  -7.954  -7.947  -5.926
 -5.915  -5.912  -5.909  -5.907  -5.902  -0.827  -0.721  -0.715
 -0.696  -0.588  -0.481  -0.446  -0.432  -0.406  -0.394  -0.381
 -0.363  -0.345  -0.305  -0.259  -0.258  -0.213

 Beta MOs
 -- Occupied --
-88.887 -88.884 -10.244 -10.195 -10.194  -7.949  -7.946  -5.912
 -5.911  -5.908  -5.907  -5.903  -5.901  -0.820  -0.711  -0.680
 -0.675  -0.579  -0.476  -0.442  -0.426  -0.403  -0.382  -0.376
 -0.360  -0.333  -0.251  -0.243

          Ground-State Mulliken Net Atomic Charges

     Atom                 Charge (a.u.)    Spin (a.u.)
  --------------------------------------------------------
      1 S                    -0.064052       0.150752
      2 S                    -0.106850       1.027374
      3 C                    -0.219109      -0.086465
      4 C                    -0.194745       1.007138
      5 C                    -0.300999       0.006012
      6 H                     0.147953       0.013566
      7 H                     0.110601      -0.044370
      8 H                     0.119312      -0.043905
      9 H                     0.119140      -0.000560
     10 H                     0.111287      -0.000646
     11 H                     0.126627       0.001205
     12 H                     0.068893      -0.002862
     13 H                     0.081942      -0.027240
  --------------------------------------------------------
  Sum of atomic charges =     0.000000

                    Cartesian Multipole Moments
 -----------------------------------------------------------------
    Charge (ESU x 10^10)
                 0.0000
    Dipole Moment (Debye)
         X       2.4514      Y       1.9220      Z       0.8293
       Tot       3.2236
    Quadrupole Moments (Debye-Ang)
        XX     -55.5997     XY      -3.7324     YY     -51.1751
        XZ      -0.4467     YZ      -0.7351     ZZ     -44.9235

 Final energy is   -915.417443000174
 **  OPTIMIZATION CONVERGED  **
 Total job time:  52.91s(wall), 608.44s(cpu)
        *  Thank you very much for using Q-Chem.  Have a nice day.  *
