 Q-Chem 5.1, Q-Chem, Inc., Pleasanton, CA (2018)
 Q-Chem 5.1.1 for Intel X86 EM64T Linux

User input:
--------------------------------------------------------------

$comment
potential surface scanner
$end

$rem
JOBTYPE  PES_SCAN
UNRESTRICTED TRUE
SYM_IGNORE  TRUE
GEOM_OPT_MAX_CYCLES 400
SCF_MAX_CYCLES 400
METHOD   B3LYP
BASIS   6-31G**
PDB_PRINT 2
SCF_CONVERGENCE 6
THRESH 14
SCF_PRINT 1
$end
$molecule
0 1
S 0.653000 -1.655100 0.136100
S -2.273700 -0.042700 -0.103500
C 0.513800 0.101500 -0.361300
C -0.697000 0.778900 0.292500
C 1.803900 0.817400 0.036300
H 0.414100 0.130900 -1.452400
H -0.592400 0.804400 1.383200
H -0.770600 1.816900 -0.049700
H 1.768400 1.866200 -0.278900
H 1.962400 0.805000 1.120700
H 2.677400 0.363600 -0.445400
H 0.755100 -1.437500 1.455700
H -1.974700 -1.224500 0.455700
$end
$scan
stre 2 4 2.500000 2.501000 0.100000
$end
--------------------------------------------------------------

    9    -915.5220086792      2.35e-07  Convergence criterion met
 Total energy in the final basis set =     -915.5220086792
    9    -915.5193020331      7.05e-07  Convergence criterion met
 Total energy in the final basis set =     -915.5193020331
    9    -915.5075705301      8.40e-07  Convergence criterion met
 Total energy in the final basis set =     -915.5075705301
    9    -915.4933918765      9.09e-07  Convergence criterion met
 Total energy in the final basis set =     -915.4933918765
    9    -915.4792395820      9.69e-07  Convergence criterion met
 Total energy in the final basis set =     -915.4792395820
   10    -915.4712535377      1.72e-07  Convergence criterion met
 Total energy in the final basis set =     -915.4712535377
   10    -915.4718189662      1.66e-07  Convergence criterion met
 Total energy in the final basis set =     -915.4718189662
   10    -915.4720067821      1.66e-07  Convergence criterion met
   10    -915.4727437076      1.58e-07  Convergence criterion met
 Total energy in the final basis set =     -915.4727437076
   10    -915.4727492054      1.58e-07  Convergence criterion met
 Total energy in the final basis set =     -915.4727492054
   10    -915.4727526794      1.59e-07  Convergence criterion met
 Total energy in the final basis set =     -915.4727526794
   10    -915.4727550773      1.59e-07  Convergence criterion met
 Total energy in the final basis set =     -915.4727550773
   10    -915.4727569271      1.59e-07  Convergence criterion met
 Total energy in the final basis set =     -915.4727569271
   10    -915.4727579873      1.59e-07  Convergence criterion met
 Total energy in the final basis set =     -915.4727579873

             Standard Nuclear Orientation (Angstroms)
    I     Atom           X                Y                Z
 ----------------------------------------------------------------
    1      S       0.6802093397    -1.6649368075     0.2951322434
    2      S      -2.7460138387    -0.0758496531    -0.2931559137
    3      C       0.5571250290     0.1045476468    -0.2282708053
    4      C      -0.5496720214     0.8609114086     0.4474933167
    5      C       1.8922564427     0.8535452444    -0.0267154632
    6      H       0.3469035486     0.0412590289    -1.2995509265
    7      H      -0.6779297790     0.7339125723     1.5181848463
    8      H      -0.7228112500     1.8731415881     0.0904429331
    9      H       1.8282151231     1.8686161204    -0.4327428248
   10      H       2.1491534186     0.9273038826     1.0350674335
   11      H       2.6991022743     0.3229088149    -0.5379447739
   12      H       1.1122433370    -1.4147488140     1.5481723339
   13      H      -2.3290816237    -1.3056110325     0.0728876006
 ----------------------------------------------------------------

   10    -915.4727584482      1.58e-07  Convergence criterion met
 Total energy in the final basis set =     -915.4727584482

                    Orbital Energies (a.u.)
 --------------------------------------------------------------

 Alpha MOs
 -- Occupied --
-88.888 -88.864 -10.261 -10.253 -10.209  -7.950  -7.923  -5.915
 -5.911  -5.904  -5.887  -5.886  -5.878  -0.841  -0.725  -0.712
 -0.671  -0.600  -0.487  -0.467  -0.436  -0.423  -0.402  -0.374
 -0.366  -0.337  -0.274  -0.252  -0.227

 Beta MOs
 -- Occupied --
-88.888 -88.864 -10.261 -10.253 -10.209  -7.950  -7.923  -5.915
 -5.911  -5.904  -5.887  -5.886  -5.878  -0.841  -0.725  -0.712
 -0.671  -0.600  -0.487  -0.467  -0.436  -0.423  -0.402  -0.374
 -0.366  -0.337  -0.274  -0.252  -0.227

          Ground-State Mulliken Net Atomic Charges

     Atom                 Charge (a.u.)    Spin (a.u.)
  --------------------------------------------------------
      1 S                    -0.020991       0.000000
      2 S                    -0.252565       0.000000
      3 C                    -0.224708       0.000000
      4 C                    -0.186120      -0.000000
      5 C                    -0.317858      -0.000000
      6 H                     0.173497      -0.000000
      7 H                     0.158686       0.000000
      8 H                     0.155902       0.000000
      9 H                     0.120295       0.000000
     10 H                     0.116095      -0.000000
     11 H                     0.141942      -0.000000
     12 H                     0.057412       0.000000
     13 H                     0.078412       0.000000
  --------------------------------------------------------
  Sum of atomic charges =    -0.000000

                    Cartesian Multipole Moments
 -----------------------------------------------------------------
    Charge (ESU x 10^10)
                -0.0000
    Dipole Moment (Debye)
         X       3.3659      Y       1.5810      Z       1.2115
       Tot       3.9111
    Quadrupole Moments (Debye-Ang)
        XX     -56.0672     XY       2.4474     YY     -46.5448
        XZ      -0.0166     YZ      -1.1232     ZZ     -45.5170

 Final energy is   -915.472758448224
 **  OPTIMIZATION CONVERGED  **
 Total job time:  123.41s(wall), 1428.27s(cpu)
        *  Thank you very much for using Q-Chem.  Have a nice day.  *
