 Q-Chem 5.1, Q-Chem, Inc., Pleasanton, CA (2018)
 Q-Chem 5.1.1 for Intel X86 EM64T Linux

User input:
--------------------------------------------------------------

$comment
potential surface scanner
$end

$rem
JOBTYPE  PES_SCAN
UNRESTRICTED TRUE
SYM_IGNORE  TRUE
GEOM_OPT_MAX_CYCLES 400
SCF_MAX_CYCLES 400
METHOD   B3LYP
BASIS   6-31G**
PDB_PRINT 2
SCF_CONVERGENCE 6
THRESH 14
SCF_PRINT 1
$end
$molecule
0 3
S 0.333657 -1.366069 -0.206711
S -3.708248 -1.240458 -0.082456
C 0.694898 0.514483 -0.253364
C -0.253978 1.221770 0.621431
C 2.166416 0.785686 0.055033
H 0.481815 0.723457 -1.307295
H 0.006059 1.417949 1.657551
H -1.286057 1.359274 0.319311
H 2.382859 1.851008 -0.082853
H 2.403355 0.527542 1.092547
H 2.822734 0.207635 -0.599319
H 0.551188 -1.522023 1.115237
H -2.354999 -1.355258 -0.140115
$end
$scan
stre 2 4 4.200000 4.201000 0.100000
$end
--------------------------------------------------------------

   30    -915.4178777589      3.07e-07  Convergence criterion met
 Total energy in the final basis set =     -915.4178777589
   29    -915.4178672274      2.15e-07  Convergence criterion met
 Total energy in the final basis set =     -915.4178672274
   32    -915.4178780121      9.57e-08  Convergence criterion met
 Total energy in the final basis set =     -915.4178780121
   33    -915.4178834497      6.29e-07  Convergence criterion met
 Total energy in the final basis set =     -915.4178834497
   35    -915.4178849291      2.30e-07  Convergence criterion met
 Total energy in the final basis set =     -915.4178849291
   33    -915.4178912571      4.37e-07  Convergence criterion met
 Total energy in the final basis set =     -915.4178912571
   33    -915.4178966027      7.99e-07  Convergence criterion met
 Total energy in the final basis set =     -915.4178966027
   38    -915.4179019932      1.89e-07  Convergence criterion met
 Total energy in the final basis set =     -915.4179019932
   36    -915.4179046591      6.16e-07  Convergence criterion met
 Total energy in the final basis set =     -915.4179046591
   36    -915.4179060375      3.22e-07  Convergence criterion met
 Total energy in the final basis set =     -915.4179060375

             Standard Nuclear Orientation (Angstroms)
    I     Atom           X                Y                Z
 ----------------------------------------------------------------
    1      S       0.3527537882    -1.3847016222    -0.1899137732
    2      S      -3.6783841001    -1.1410493073    -0.0898748768
    3      C       0.6898406619     0.5000023194    -0.2490313517
    4      C      -0.2648583435     1.1987127373     0.6266135974
    5      C       2.1590297903     0.7925327450     0.0496338028
    6      H       0.4679504522     0.7002846447    -1.3028996622
    7      H       0.0001391036     1.4103913607     1.6584179697
    8      H      -1.3010021661     1.3160808417     0.3301038010
    9      H       2.3593757580     1.8604345227    -0.0924577370
   10      H       2.4064494940     0.5404942834     1.0862865960
   11      H       2.8194196743     0.2221530127    -0.6073840906
   12      H       0.5685363689    -1.5280893130     1.1336532809
   13      H      -2.3395514816    -1.3622502251    -0.1641505562
 ----------------------------------------------------------------

   35    -915.4179069810      2.84e-07  Convergence criterion met
 Total energy in the final basis set =     -915.4179069810

                    Orbital Energies (a.u.)
 --------------------------------------------------------------

 Alpha MOs
 -- Occupied --
-88.894 -88.885 -10.242 -10.207 -10.194  -7.955  -7.948  -5.927
 -5.916  -5.913  -5.909  -5.908  -5.903  -0.827  -0.722  -0.715
 -0.696  -0.587  -0.480  -0.445  -0.432  -0.406  -0.395  -0.381
 -0.363  -0.345  -0.307  -0.261  -0.258  -0.212

 Beta MOs
 -- Occupied --
-88.888 -88.884 -10.243 -10.194 -10.193  -7.950  -7.946  -5.913
 -5.911  -5.909  -5.907  -5.905  -5.901  -0.819  -0.711  -0.681
 -0.675  -0.578  -0.475  -0.441  -0.426  -0.403  -0.383  -0.375
 -0.360  -0.333  -0.252  -0.245

          Ground-State Mulliken Net Atomic Charges

     Atom                 Charge (a.u.)    Spin (a.u.)
  --------------------------------------------------------
      1 S                    -0.064136       0.150913
      2 S                    -0.109593       1.027704
      3 C                    -0.218462      -0.086085
      4 C                    -0.202688       1.006289
      5 C                    -0.301668       0.005781
      6 H                     0.148582       0.014241
      7 H                     0.109955      -0.044390
      8 H                     0.129469      -0.044336
      9 H                     0.119868      -0.000556
     10 H                     0.111143      -0.000636
     11 H                     0.126296       0.000952
     12 H                     0.069412      -0.002665
     13 H                     0.081820      -0.027212
  --------------------------------------------------------
  Sum of atomic charges =    -0.000000

                    Cartesian Multipole Moments
 -----------------------------------------------------------------
    Charge (ESU x 10^10)
                 0.0000
    Dipole Moment (Debye)
         X       2.2692      Y       1.3550      Z       0.7093
       Tot       2.7365
    Quadrupole Moments (Debye-Ang)
        XX     -55.1863     XY      -1.2894     YY     -50.5247
        XZ       0.8674     YZ      -1.2634     ZZ     -44.1160

 Final energy is   -915.417906980975
 **  OPTIMIZATION CONVERGED  **
 Total job time:  114.32s(wall), 1275.30s(cpu)
        *  Thank you very much for using Q-Chem.  Have a nice day.  *
