 Q-Chem 5.1, Q-Chem, Inc., Pleasanton, CA (2018)
 Q-Chem 5.1.1 for Intel X86 EM64T Linux

User input:
--------------------------------------------------------------

$comment
potential surface scanner
$end

$rem
JOBTYPE  PES_SCAN
UNRESTRICTED TRUE
SYM_IGNORE  TRUE
GEOM_OPT_MAX_CYCLES 400
SCF_MAX_CYCLES 400
METHOD   B3LYP
BASIS   6-31G**
PDB_PRINT 2
SCF_CONVERGENCE 6
THRESH 14
SCF_PRINT 1
$end
$molecule
0 1
S 0.653000 -1.655100 0.136100
S -2.273700 -0.042700 -0.103500
C 0.513800 0.101500 -0.361300
C -0.697000 0.778900 0.292500
C 1.803900 0.817400 0.036300
H 0.414100 0.130900 -1.452400
H -0.592400 0.804400 1.383200
H -0.770600 1.816900 -0.049700
H 1.768400 1.866200 -0.278900
H 1.962400 0.805000 1.120700
H 2.677400 0.363600 -0.445400
H 0.755100 -1.437500 1.455700
H -1.974700 -1.224500 0.455700
$end
$scan
stre 2 4 1.700000 1.701000 0.100000
$end
--------------------------------------------------------------

    9    -915.5220086792      2.35e-07  Convergence criterion met
 Total energy in the final basis set =     -915.5220086792
    9    -915.5173457759      4.56e-07  Convergence criterion met
 Total energy in the final basis set =     -915.5173457759
    9    -915.5182771279      4.72e-07  Convergence criterion met
 Total energy in the final basis set =     -915.5182771279
    9    -915.5186091811      4.79e-07  Convergence criterion met
 Total energy in the final basis set =     -915.5186091811
    9    -915.5187502640      4.82e-07  Convergence criterion met
 Total energy in the final basis set =     -915.5187502640
    9    -915.5188639377      4.82e-07  Convergence criterion met
 Total energy in the final basis set =     -915.5188639377
    9    -915.5189107635      4.83e-07  Convergence criterion met
 Total energy in the final basis set =     -915.5189107635
    9    -915.5189244284      4.84e-07  Convergence criterion met
 Total energy in the final basis set =     -915.5189244284
    9    -915.5189303258      4.85e-07  Convergence criterion met
 Total energy in the final basis set =     -915.5189303258
    9    -915.5189358824      4.85e-07  Convergence criterion met
 Total energy in the final basis set =     -915.5189358824
    9    -915.5189395763      4.84e-07  Convergence criterion met
 Total energy in the final basis set =     -915.5189395763
    9    -915.5189408036      4.83e-07  Convergence criterion met
 Total energy in the final basis set =     -915.5189408036

             Standard Nuclear Orientation (Angstroms)
    I     Atom           X                Y                Z
 ----------------------------------------------------------------
    1      S       0.6748788316    -1.7211768673     0.2054618559
    2      S      -2.2588562677     0.1588609677    -0.1664570198
    3      C       0.5120103484     0.0590343287    -0.2903433535
    4      C      -0.7360285497     0.7250059173     0.3340191114
    5      C       1.7871284037     0.8485702641     0.0137088893
    6      H       0.3641120070    -0.0042144610    -1.3735878566
    7      H      -0.6228475964     0.7157616983     1.4269751777
    8      H      -0.7109626715     1.7855797312     0.0501911138
    9      H       1.6985832448     1.8729539507    -0.3666241233
   10      H       1.9675110466     0.9080927431     1.0928748161
   11      H       2.6592849691     0.3821804399    -0.4499404286
   12      H       1.0229146154    -1.4808267978     1.4869677198
   13      H      -2.1180283812    -1.1248219150     0.2257540981
 ----------------------------------------------------------------

    9    -915.5189410297      4.82e-07  Convergence criterion met
 Total energy in the final basis set =     -915.5189410297

                    Orbital Energies (a.u.)
 --------------------------------------------------------------

 Alpha MOs
 -- Occupied --
-88.880 -88.870 -10.238 -10.222 -10.195  -7.943  -7.935  -5.908
 -5.904  -5.900  -5.897  -5.896  -5.889  -0.845  -0.776  -0.714
 -0.651  -0.589  -0.488  -0.452  -0.433  -0.425  -0.400  -0.383
 -0.359  -0.333  -0.319  -0.248  -0.235

 Beta MOs
 -- Occupied --
-88.880 -88.870 -10.238 -10.222 -10.195  -7.943  -7.935  -5.908
 -5.904  -5.900  -5.897  -5.896  -5.889  -0.845  -0.776  -0.714
 -0.651  -0.589  -0.488  -0.452  -0.433  -0.425  -0.400  -0.383
 -0.359  -0.333  -0.319  -0.248  -0.235

          Ground-State Mulliken Net Atomic Charges

     Atom                 Charge (a.u.)    Spin (a.u.)
  --------------------------------------------------------
      1 S                    -0.048728       0.000000
      2 S                    -0.027558       0.000000
      3 C                    -0.213707       0.000000
      4 C                    -0.313770      -0.000000
      5 C                    -0.311345      -0.000000
      6 H                     0.152144      -0.000000
      7 H                     0.130401      -0.000000
      8 H                     0.140817       0.000000
      9 H                     0.112819      -0.000000
     10 H                     0.110096       0.000000
     11 H                     0.131614       0.000000
     12 H                     0.058181      -0.000000
     13 H                     0.079035       0.000000
  --------------------------------------------------------
  Sum of atomic charges =    -0.000000

                    Cartesian Multipole Moments
 -----------------------------------------------------------------
    Charge (ESU x 10^10)
                 0.0000
    Dipole Moment (Debye)
         X       1.6556      Y       1.2530      Z       0.9883
       Tot       2.2995
    Quadrupole Moments (Debye-Ang)
        XX     -51.8869     XY       3.0128     YY     -47.7845
        XZ       0.1808     YZ      -1.5462     ZZ     -45.4466

 Final energy is   -915.518941029673
 **  OPTIMIZATION CONVERGED  **
 Total job time:  51.82s(wall), 599.09s(cpu)
        *  Thank you very much for using Q-Chem.  Have a nice day.  *
