 Q-Chem 5.1, Q-Chem, Inc., Pleasanton, CA (2018)
 Q-Chem 5.1.1 for Intel X86 EM64T Linux

User input:
--------------------------------------------------------------

$comment
potential surface scanner
$end

$rem
JOBTYPE  PES_SCAN
UNRESTRICTED TRUE
SYM_IGNORE  TRUE
GEOM_OPT_MAX_CYCLES 400
SCF_MAX_CYCLES 400
METHOD   B3LYP
BASIS   6-31G**
PDB_PRINT 2
SCF_CONVERGENCE 6
THRESH 14
SCF_PRINT 1
$end
$molecule
0 3
S 0.396844 -1.432895 -0.172310
S -3.552701 -0.912056 -0.048413
C 0.670097 0.461853 -0.248927
C -0.304255 1.139621 0.621079
C 2.130143 0.803142 0.046594
H 0.442100 0.645957 -1.304271
H -0.049849 1.353764 1.655134
H -1.336061 1.258285 0.310751
H 2.295773 1.875995 -0.101958
H 2.385665 0.565556 1.084869
H 2.808032 0.249775 -0.607232
H 0.621598 -1.556450 1.151576
H -2.267686 -1.327550 -0.197895
$end
$scan
stre 2 4 3.800000 3.801000 0.100000
$end
--------------------------------------------------------------

   27    -915.4176999037      7.52e-07  Convergence criterion met
 Total energy in the final basis set =     -915.4176999037
   24    -915.4174833501      5.12e-07  Convergence criterion met
 Total energy in the final basis set =     -915.4174833501
   24    -915.4174917764      8.67e-07  Convergence criterion met
 Total energy in the final basis set =     -915.4174917764
   25    -915.4174998705      3.38e-07  Convergence criterion met
 Total energy in the final basis set =     -915.4174998705
   25    -915.4175034033      3.16e-07  Convergence criterion met
 Total energy in the final basis set =     -915.4175034033
   24    -915.4175109677      3.09e-07  Convergence criterion met
 Total energy in the final basis set =     -915.4175109677
   25    -915.4175155806      2.69e-07  Convergence criterion met
 Total energy in the final basis set =     -915.4175155806
   26    -915.4175200301      5.65e-07  Convergence criterion met
   23    -915.4175318374      2.36e-07  Convergence criterion met
 Total energy in the final basis set =     -915.4175318374
   23    -915.4175338044      1.59e-07  Convergence criterion met
 Total energy in the final basis set =     -915.4175338044
   22    -915.4175371116      6.73e-07  Convergence criterion met
 Total energy in the final basis set =     -915.4175371116
   21    -915.4175423467      8.63e-07  Convergence criterion met
 Total energy in the final basis set =     -915.4175423467
   21    -915.4175448312      5.32e-07  Convergence criterion met
 Total energy in the final basis set =     -915.4175448312
   21    -915.4175475539      7.29e-07  Convergence criterion met
 Total energy in the final basis set =     -915.4175475539

             Standard Nuclear Orientation (Angstroms)
    I     Atom           X                Y                Z
 ----------------------------------------------------------------
    1      S       0.3999795198    -1.4168869721    -0.2402221484
    2      S      -3.5122158758    -0.8727903418     0.1733917244
    3      C       0.6883962379     0.4760037002    -0.2778765655
    4      C      -0.3162527738     1.1453961057     0.5642159228
    5      C       2.1369064519     0.8039171188     0.0817090042
    6      H       0.5037206052     0.6777079141    -1.3383894433
    7      H      -0.1002735365     1.3473920922     1.6093069849
    8      H      -1.3362877488     1.2671392677     0.2174014765
    9      H       2.3152849204     1.8771023215    -0.0487253918
   10      H       2.3459400061     0.5544503390     1.1272929258
   11      H       2.8383236942     0.2528762421    -0.5488368369
   12      H       0.6093189213    -1.5683317804     1.0835017645
   13      H      -2.3331404221    -1.4189790070    -0.2137724173
 ----------------------------------------------------------------

   21    -915.4175485406      4.07e-07  Convergence criterion met
 Total energy in the final basis set =     -915.4175485406

                    Orbital Energies (a.u.)
 --------------------------------------------------------------

 Alpha MOs
 -- Occupied --
-88.893 -88.886 -10.242 -10.206 -10.195  -7.955  -7.948  -5.926
 -5.916  -5.913  -5.910  -5.908  -5.903  -0.827  -0.722  -0.716
 -0.696  -0.587  -0.480  -0.445  -0.432  -0.407  -0.395  -0.381
 -0.363  -0.345  -0.306  -0.261  -0.257  -0.212

 Beta MOs
 -- Occupied --
-88.888 -88.885 -10.244 -10.195 -10.193  -7.950  -7.947  -5.913
 -5.911  -5.909  -5.908  -5.904  -5.902  -0.819  -0.711  -0.682
 -0.675  -0.578  -0.475  -0.441  -0.426  -0.403  -0.383  -0.376
 -0.360  -0.333  -0.252  -0.245

          Ground-State Mulliken Net Atomic Charges

     Atom                 Charge (a.u.)    Spin (a.u.)
  --------------------------------------------------------
      1 S                    -0.062678       0.161740
      2 S                    -0.119621       1.015666
      3 C                    -0.218546      -0.085530
      4 C                    -0.203395       1.008295
      5 C                    -0.302204       0.006600
      6 H                     0.149092       0.013367
      7 H                     0.110619      -0.044438
      8 H                     0.130506      -0.045880
      9 H                     0.120365      -0.000518
     10 H                     0.111253      -0.000706
     11 H                     0.126382       0.001342
     12 H                     0.070181      -0.003148
     13 H                     0.088048      -0.026789
  --------------------------------------------------------
  Sum of atomic charges =    -0.000000

                    Cartesian Multipole Moments
 -----------------------------------------------------------------
    Charge (ESU x 10^10)
                 0.0000
    Dipole Moment (Debye)
         X       2.1587      Y       1.0684      Z       0.4068
       Tot       2.4427
    Quadrupole Moments (Debye-Ang)
        XX     -54.1067     XY       0.1322     YY     -48.8747
        XZ       2.2264     YZ      -0.3619     ZZ     -45.4046

 Final energy is   -915.417548540573
 **  OPTIMIZATION CONVERGED  **
 Total job time:  132.19s(wall), 1550.79s(cpu)
        *  Thank you very much for using Q-Chem.  Have a nice day.  *
