 Q-Chem 5.1, Q-Chem, Inc., Pleasanton, CA (2018)
 Q-Chem 5.1.1 for Intel X86 EM64T Linux

User input:
--------------------------------------------------------------

$comment
potential surface scanner
$end

$rem
JOBTYPE  PES_SCAN
UNRESTRICTED TRUE
SYM_IGNORE  TRUE
GEOM_OPT_MAX_CYCLES 400
SCF_MAX_CYCLES 400
METHOD   B3LYP
BASIS   6-31G**
PDB_PRINT 2
SCF_CONVERGENCE 6
THRESH 14
SCF_PRINT 1
$end
$molecule
0 3
S 0.224066 -1.335310 -0.016174
S -2.713698 -0.986918 0.211152
C 0.658799 0.524359 -0.248081
C -0.272401 1.359188 0.520758
C 2.135575 0.743349 0.082121
H 0.480837 0.626730 -1.323207
H -0.039627 1.619427 1.549360
H -1.265557 1.570316 0.145915
H 2.414503 1.775828 -0.155486
H 2.327114 0.581405 1.147866
H 2.778458 0.069074 -0.488519
H 0.292731 -1.334589 1.329191
H -2.781097 -2.087861 -0.565896
$end
$scan
stre 2 4 3.300000 3.301000 0.100000
$end
--------------------------------------------------------------

   11    -915.4232880586      3.65e-07  Convergence criterion met
 Total energy in the final basis set =     -915.4232880586
   11    -915.4220829610      3.53e-07  Convergence criterion met
 Total energy in the final basis set =     -915.4220829610
   11    -915.4225960071      3.55e-07  Convergence criterion met
 Total energy in the final basis set =     -915.4225960071
   11    -915.4227618168      3.62e-07  Convergence criterion met
 Total energy in the final basis set =     -915.4227618168
   11    -915.4227717046      3.63e-07  Convergence criterion met
 Total energy in the final basis set =     -915.4227717046
   11    -915.4227783066      3.65e-07  Convergence criterion met
 Total energy in the final basis set =     -915.4227783066
   11    -915.4227804808      3.66e-07  Convergence criterion met
 Total energy in the final basis set =     -915.4227804808
   11    -915.4227823514      3.66e-07  Convergence criterion met
 Total energy in the final basis set =     -915.4227823514
   11    -915.4227840257      3.67e-07  Convergence criterion met
 Total energy in the final basis set =     -915.4227840257
   11    -915.4227857278      3.67e-07  Convergence criterion met
 Total energy in the final basis set =     -915.4227857278
   11    -915.4227869898      3.68e-07  Convergence criterion met
 Total energy in the final basis set =     -915.4227869898

             Standard Nuclear Orientation (Angstroms)
    I     Atom           X                Y                Z
 ----------------------------------------------------------------
    1      S       0.2427914753    -1.3524506957    -0.0195608057
    2      S      -2.6717037149    -0.9255556689     0.2077482087
    3      C       0.6560984160     0.5119346201    -0.2514524836
    4      C      -0.2875726656     1.3353803933     0.5144897924
    5      C       2.1289775799     0.7478139921     0.0846732833
    6      H       0.4809341854     0.6130437552    -1.3269940425
    7      H      -0.0739205165     1.5746148392     1.5523894718
    8      H      -1.2692700303     1.5654570126     0.1224242698
    9      H       2.3978215950     1.7824199156    -0.1550141792
   10      H       2.3174139111     0.5917552034     1.1518962751
   11      H       2.7815080952     0.0784167680    -0.4808563725
   12      H       0.3270511915    -1.3523317098     1.3250061730
   13      H      -2.7904265222    -2.0455004252    -0.5357495905
 ----------------------------------------------------------------

   11    -915.4227878432      3.68e-07  Convergence criterion met
 Total energy in the final basis set =     -915.4227878432

                    Orbital Energies (a.u.)
 --------------------------------------------------------------

 Alpha MOs
 -- Occupied --
-88.908 -88.858 -10.249 -10.209 -10.201  -7.969  -7.919  -5.933
 -5.930  -5.927  -5.887  -5.881  -5.872  -0.835  -0.733  -0.701
 -0.687  -0.593  -0.485  -0.454  -0.435  -0.414  -0.388  -0.376
 -0.367  -0.353  -0.311  -0.231  -0.222  -0.219

 Beta MOs
 -- Occupied --
-88.905 -88.853 -10.250 -10.201 -10.196  -7.966  -7.914  -5.930
 -5.926  -5.921  -5.878  -5.872  -5.869  -0.826  -0.720  -0.680
 -0.657  -0.583  -0.480  -0.449  -0.429  -0.409  -0.382  -0.367
 -0.360  -0.339  -0.271  -0.219

          Ground-State Mulliken Net Atomic Charges

     Atom                 Charge (a.u.)    Spin (a.u.)
  --------------------------------------------------------
      1 S                     0.028648       0.375674
      2 S                    -0.246797       0.810949
      3 C                    -0.223713      -0.093482
      4 C                    -0.188758       0.997630
      5 C                    -0.304730       0.010215
      6 H                     0.156214       0.010599
      7 H                     0.112527      -0.044094
      8 H                     0.148527      -0.044022
      9 H                     0.125331       0.001988
     10 H                     0.114617      -0.001080
     11 H                     0.126534       0.002556
     12 H                     0.091551      -0.010072
     13 H                     0.060049      -0.016861
  --------------------------------------------------------
  Sum of atomic charges =    -0.000000

                    Cartesian Multipole Moments
 -----------------------------------------------------------------
    Charge (ESU x 10^10)
                 0.0000
    Dipole Moment (Debye)
         X       3.0136      Y       0.9633      Z       0.0201
       Tot       3.1639
    Quadrupole Moments (Debye-Ang)
        XX     -52.9140     XY       0.2638     YY     -46.5805
        XZ       2.4089     YZ       0.6611     ZZ     -45.3819

 Final energy is   -915.422787843232
 **  OPTIMIZATION CONVERGED  **
 Total job time:  57.19s(wall), 599.25s(cpu)
        *  Thank you very much for using Q-Chem.  Have a nice day.  *
