 Q-Chem 5.1, Q-Chem, Inc., Pleasanton, CA (2018)
 Q-Chem 5.1.1 for Intel X86 EM64T Linux

User input:
--------------------------------------------------------------

$comment
potential surface scanner
$end

$rem
JOBTYPE  PES_SCAN
UNRESTRICTED TRUE
SYM_IGNORE  TRUE
GEOM_OPT_MAX_CYCLES 400
SCF_MAX_CYCLES 400
METHOD   B3LYP
BASIS   6-31G**
PDB_PRINT 2
SCF_CONVERGENCE 6
THRESH 14
SCF_PRINT 1
$end
$molecule
0 1
S 0.653000 -1.655100 0.136100
S -2.273700 -0.042700 -0.103500
C 0.513800 0.101500 -0.361300
C -0.697000 0.778900 0.292500
C 1.803900 0.817400 0.036300
H 0.414100 0.130900 -1.452400
H -0.592400 0.804400 1.383200
H -0.770600 1.816900 -0.049700
H 1.768400 1.866200 -0.278900
H 1.962400 0.805000 1.120700
H 2.677400 0.363600 -0.445400
H 0.755100 -1.437500 1.455700
H -1.974700 -1.224500 0.455700
$end
$scan
stre 2 4 1.300000 1.301000 0.100000
$end
--------------------------------------------------------------

    9    -915.5220086792      2.35e-07  Convergence criterion met
 Total energy in the final basis set =     -915.5220086792
    9    -915.5114253112      4.32e-07  Convergence criterion met
 Total energy in the final basis set =     -915.5114253112
    9    -915.4733460872      5.12e-07  Convergence criterion met
 Total energy in the final basis set =     -915.4733460872
    9    -915.4002476731      5.87e-07  Convergence criterion met
 Total energy in the final basis set =     -915.4002476731
    9    -915.2942158001      6.92e-07  Convergence criterion met
 Total energy in the final basis set =     -915.2942158001
    9    -915.2801291037      7.14e-07  Convergence criterion met
 Total energy in the final basis set =     -915.2801291037
    9    -915.2794579288      7.25e-07  Convergence criterion met
 Total energy in the final basis set =     -915.2794579288
    9    -915.2796074443      7.33e-07  Convergence criterion met
    9    -915.2796855823      7.37e-07  Convergence criterion met
 Total energy in the final basis set =     -915.2796855823
    9    -915.2796923116      7.37e-07  Convergence criterion met
 Total energy in the final basis set =     -915.2796923116
    9    -915.2796970420      7.37e-07  Convergence criterion met
 Total energy in the final basis set =     -915.2796970420
    9    -915.2797004328      7.36e-07  Convergence criterion met
 Total energy in the final basis set =     -915.2797004328
    9    -915.2797023952      7.36e-07  Convergence criterion met
 Total energy in the final basis set =     -915.2797023952
    9    -915.2797035303      7.35e-07  Convergence criterion met
 Total energy in the final basis set =     -915.2797035303

             Standard Nuclear Orientation (Angstroms)
    I     Atom           X                Y                Z
 ----------------------------------------------------------------
    1      S       0.6845001541    -1.7474401876     0.1394401707
    2      S      -2.0293639665     0.2533994668    -0.0746385644
    3      C       0.5165158559     0.0293783375    -0.3319549501
    4      C      -0.8444238199     0.6542770423     0.2792189181
    5      C       1.7463822230     0.8511952188     0.0389186807
    6      H       0.3879658401    -0.0115042389    -1.4202247746
    7      H      -0.5528409020     0.7385909155     1.3669933744
    8      H      -0.7096238796     1.7133060656    -0.0106485246
    9      H       1.6394435435     1.8809819970    -0.3246987016
   10      H       1.8768651501     0.8960568694     1.1263460411
   11      H       2.6566025562     0.4285881284    -0.3924550940
   12      H       0.9719005917    -1.5215368030     1.4395575956
   13      H      -2.1042233468    -1.0402928119     0.3531458287
 ----------------------------------------------------------------

    9    -915.2797042534      7.34e-07  Convergence criterion met
 Total energy in the final basis set =     -915.2797042534

                    Orbital Energies (a.u.)
 --------------------------------------------------------------

 Alpha MOs
 -- Occupied --
-88.878 -88.847 -10.230 -10.207 -10.193  -7.940  -7.934  -5.905
 -5.902  -5.899  -5.895  -5.892  -5.886  -0.927  -0.801  -0.712
 -0.634  -0.590  -0.522  -0.462  -0.455  -0.434  -0.410  -0.394
 -0.361  -0.333  -0.292  -0.249  -0.210

 Beta MOs
 -- Occupied --
-88.878 -88.847 -10.230 -10.207 -10.193  -7.940  -7.934  -5.905
 -5.902  -5.899  -5.895  -5.892  -5.886  -0.927  -0.801  -0.712
 -0.634  -0.590  -0.522  -0.462  -0.455  -0.434  -0.410  -0.394
 -0.361  -0.333  -0.292  -0.249  -0.210

          Ground-State Mulliken Net Atomic Charges

     Atom                 Charge (a.u.)    Spin (a.u.)
  --------------------------------------------------------
      1 S                    -0.053936       0.000000
      2 S                     0.007488       0.000000
      3 C                    -0.238907      -0.000000
      4 C                    -0.240277      -0.000000
      5 C                    -0.312966      -0.000000
      6 H                     0.141430       0.000000
      7 H                     0.086249      -0.000000
      8 H                     0.153868       0.000000
      9 H                     0.108090      -0.000000
     10 H                     0.111127      -0.000000
     11 H                     0.131164      -0.000000
     12 H                     0.057019      -0.000000
     13 H                     0.049651      -0.000000
  --------------------------------------------------------
  Sum of atomic charges =    -0.000000

                    Cartesian Multipole Moments
 -----------------------------------------------------------------
    Charge (ESU x 10^10)
                -0.0000
    Dipole Moment (Debye)
         X       1.2791      Y       1.5396      Z       0.9277
       Tot       2.2061
    Quadrupole Moments (Debye-Ang)
        XX     -51.1825     XY       2.5788     YY     -47.7259
        XZ      -0.1292     YZ      -1.8679     ZZ     -45.1720

 Final energy is   -915.279704253423
 **  OPTIMIZATION CONVERGED  **
 Total job time:  76.52s(wall), 880.64s(cpu)
        *  Thank you very much for using Q-Chem.  Have a nice day.  *
