 Q-Chem 5.1, Q-Chem, Inc., Pleasanton, CA (2018)
 Q-Chem 5.1.1 for Intel X86 EM64T Linux

User input:
--------------------------------------------------------------

$comment
potential surface scanner
$end

$rem
JOBTYPE  PES_SCAN
UNRESTRICTED TRUE
SYM_IGNORE  TRUE
GEOM_OPT_MAX_CYCLES 400
SCF_MAX_CYCLES 400
METHOD   B3LYP
BASIS   6-31G**
PDB_PRINT 2
SCF_CONVERGENCE 6
THRESH 14
SCF_PRINT 1
$end
$molecule
0 1
S 0.653000 -1.655100 0.136100
S -2.273700 -0.042700 -0.103500
C 0.513800 0.101500 -0.361300
C -0.697000 0.778900 0.292500
C 1.803900 0.817400 0.036300
H 0.414100 0.130900 -1.452400
H -0.592400 0.804400 1.383200
H -0.770600 1.816900 -0.049700
H 1.768400 1.866200 -0.278900
H 1.962400 0.805000 1.120700
H 2.677400 0.363600 -0.445400
H 0.755100 -1.437500 1.455700
H -1.974700 -1.224500 0.455700
$end
$scan
stre 2 4 1.100000 1.101000 0.100000
$end
--------------------------------------------------------------

    9    -915.5220086792      2.35e-07  Convergence criterion met
 Total energy in the final basis set =     -915.5220086792
    9    -915.5114253112      4.32e-07  Convergence criterion met
 Total energy in the final basis set =     -915.5114253112
    9    -915.4733460872      5.12e-07  Convergence criterion met
 Total energy in the final basis set =     -915.4733460872
    9    -915.4002476731      5.87e-07  Convergence criterion met
 Total energy in the final basis set =     -915.4002476731
    9    -915.2764909308      7.01e-07  Convergence criterion met
 Total energy in the final basis set =     -915.2764909308
    9    -915.0674853978      8.85e-07  Convergence criterion met
 Total energy in the final basis set =     -915.0674853978
   10    -914.8743480981      2.33e-07  Convergence criterion met
 Total energy in the final basis set =     -914.8743480981
   10    -914.8043866350      2.51e-07  Convergence criterion met
   10    -914.7918135172      2.86e-07  Convergence criterion met
 Total energy in the final basis set =     -914.7918135172
   10    -914.7918178400      2.86e-07  Convergence criterion met
 Total energy in the final basis set =     -914.7918178400
   10    -914.7918219136      2.86e-07  Convergence criterion met
 Total energy in the final basis set =     -914.7918219136
   10    -914.7918249791      2.85e-07  Convergence criterion met
 Total energy in the final basis set =     -914.7918249791
   10    -914.7918270155      2.85e-07  Convergence criterion met
 Total energy in the final basis set =     -914.7918270155
   10    -914.7918283599      2.85e-07  Convergence criterion met
 Total energy in the final basis set =     -914.7918283599

             Standard Nuclear Orientation (Angstroms)
    I     Atom           X                Y                Z
 ----------------------------------------------------------------
    1      S       0.7003353746    -1.7567482474     0.0666421458
    2      S      -1.9469225950     0.2639991242     0.0003801963
    3      C       0.5664696534     0.0088733303    -0.3817621060
    4      C      -0.9491318861     0.6357391789     0.2764665319
    5      C       1.7508506848     0.8549612526     0.0458500611
    6      H       0.4187625730     0.0066182783    -1.4683778110
    7      H      -0.5215815141     0.7778596348     1.3426484369
    8      H      -0.7173841055     1.6640775002    -0.0551016975
    9      H       1.6508070201     1.8761809063    -0.3448859704
   10      H       1.8019858172     0.9243182881     1.1402076292
   11      H       2.7037898177     0.4501341940    -0.3060732768
   12      H       0.8876789104    -1.5542360501     1.3908213423
   13      H      -2.1059597505    -1.0267773903     0.4821845183
 ----------------------------------------------------------------

   10    -914.7918291606      2.85e-07  Convergence criterion met
 Total energy in the final basis set =     -914.7918291606

                    Orbital Energies (a.u.)
 --------------------------------------------------------------

 Alpha MOs
 -- Occupied --
-88.875 -88.836 -10.220 -10.217 -10.189  -7.954  -7.937  -5.922
 -5.906  -5.902  -5.900  -5.898  -5.892  -0.968  -0.795  -0.707
 -0.625  -0.591  -0.542  -0.478  -0.466  -0.434  -0.413  -0.394
 -0.359  -0.330  -0.272  -0.249  -0.185

 Beta MOs
 -- Occupied --
-88.875 -88.836 -10.220 -10.217 -10.189  -7.954  -7.937  -5.922
 -5.906  -5.902  -5.900  -5.898  -5.892  -0.968  -0.795  -0.707
 -0.625  -0.591  -0.542  -0.478  -0.466  -0.434  -0.413  -0.394
 -0.359  -0.330  -0.272  -0.249  -0.185

          Ground-State Mulliken Net Atomic Charges

     Atom                 Charge (a.u.)    Spin (a.u.)
  --------------------------------------------------------
      1 S                    -0.056315       0.000000
      2 S                     0.202639       0.000000
      3 C                    -0.279236       0.000000
      4 C                    -0.321935      -0.000000
      5 C                    -0.310757      -0.000000
      6 H                     0.129507       0.000000
      7 H                     0.048345      -0.000000
      8 H                     0.171455      -0.000000
      9 H                     0.102540       0.000000
     10 H                     0.108703       0.000000
     11 H                     0.129968      -0.000000
     12 H                     0.053601      -0.000000
     13 H                     0.021485       0.000000
  --------------------------------------------------------
  Sum of atomic charges =    -0.000000

                    Cartesian Multipole Moments
 -----------------------------------------------------------------
    Charge (ESU x 10^10)
                -0.0000
    Dipole Moment (Debye)
         X       0.6641      Y       1.9436      Z       0.8432
       Tot       2.2203
    Quadrupole Moments (Debye-Ang)
        XX     -50.5683     XY       1.7781     YY     -47.4728
        XZ      -0.3519     YZ      -2.1596     ZZ     -44.8671

 Final energy is   -914.791829160589
 **  OPTIMIZATION CONVERGED  **
 Total job time:  149.07s(wall), 1714.84s(cpu)
        *  Thank you very much for using Q-Chem.  Have a nice day.  *
