 Q-Chem 5.1, Q-Chem, Inc., Pleasanton, CA (2018)
 Q-Chem 5.1.1 for Intel X86 EM64T Linux

User input:
--------------------------------------------------------------

$comment
potential surface scanner
$end

$rem
JOBTYPE  PES_SCAN
UNRESTRICTED TRUE
SYM_IGNORE  TRUE
GEOM_OPT_MAX_CYCLES 400
SCF_MAX_CYCLES 400
METHOD   B3LYP
BASIS   6-31G**
PDB_PRINT 2
SCF_CONVERGENCE 6
THRESH 14
SCF_PRINT 1
$end
$molecule
0 3
S 0.398667 -1.473449 -0.248783
S -2.259095 -0.598363 0.254878
C 0.626151 0.422113 -0.319523
C -0.454791 1.125404 0.406921
C 2.037731 0.773278 0.164049
H 0.540954 0.599825 -1.395319
H -0.424283 1.166117 1.490912
H -1.081923 1.843312 -0.104879
H 2.222156 1.842537 0.015710
H 2.149123 0.561255 1.232316
H 2.798404 0.208691 -0.382708
H 0.644518 -1.603149 1.070868
H -2.957911 -1.742574 0.004553
$end
$scan
stre 2 4 2.400000 2.401000 0.100000
$end
--------------------------------------------------------------

   11    -915.4080069237      4.23e-07  Convergence criterion met
 Total energy in the final basis set =     -915.4080069237
   11    -915.4035053169      4.31e-07  Convergence criterion met
 Total energy in the final basis set =     -915.4035053169
   11    -915.4037633905      4.61e-07  Convergence criterion met
 Total energy in the final basis set =     -915.4037633905
   11    -915.4039121191      4.50e-07  Convergence criterion met
 Total energy in the final basis set =     -915.4039121191
   11    -915.4039787326      4.39e-07  Convergence criterion met
 Total energy in the final basis set =     -915.4039787326
   11    -915.4040254487      4.32e-07  Convergence criterion met
 Total energy in the final basis set =     -915.4040254487
   11    -915.4040607026      4.27e-07  Convergence criterion met
 Total energy in the final basis set =     -915.4040607026
   11    -915.4040860589      4.24e-07  Convergence criterion met
   11    -915.4046295758      7.47e-07  Convergence criterion met
 Total energy in the final basis set =     -915.4046295758
   11    -915.4046465410      7.50e-07  Convergence criterion met
 Total energy in the final basis set =     -915.4046465410
   11    -915.4046594232      7.61e-07  Convergence criterion met
 Total energy in the final basis set =     -915.4046594232
   11    -915.4046669637      7.60e-07  Convergence criterion met
 Total energy in the final basis set =     -915.4046669637
   11    -915.4046703095      7.70e-07  Convergence criterion met
 Total energy in the final basis set =     -915.4046703095
   11    -915.4046714434      7.69e-07  Convergence criterion met
 Total energy in the final basis set =     -915.4046714434

             Standard Nuclear Orientation (Angstroms)
    I     Atom           X                Y                Z
 ----------------------------------------------------------------
    1      S       0.3936306071    -1.5027218314    -0.2817739746
    2      S      -2.1474064207    -0.6392640201     0.5146383070
    3      C       0.6024863909     0.4192853505    -0.3303439556
    4      C      -0.5048537934     1.1045625769     0.3694160091
    5      C       2.0027286724     0.7636126511     0.1828535057
    6      H       0.5426126373     0.5916747646    -1.4086944940
    7      H      -0.4415001230     1.2226654631     1.4478867422
    8      H      -1.0942024358     1.8398787143    -0.1632387634
    9      H       2.1966184855     1.8308060626     0.0317389066
   10      H       2.0870888947     0.5602666248     1.2555936508
   11      H       2.7755721652     0.1924266480    -0.3402158515
   12      H       0.7400196386    -1.6646692291     1.0107866605
   13      H      -2.9130937188    -1.5935267752    -0.0996517427
 ----------------------------------------------------------------

   11    -915.4046716842      7.69e-07  Convergence criterion met
 Total energy in the final basis set =     -915.4046716842

                    Orbital Energies (a.u.)
 --------------------------------------------------------------

 Alpha MOs
 -- Occupied --
-88.906 -88.862 -10.243 -10.199 -10.198  -7.967  -7.923  -5.931
 -5.928  -5.926  -5.890  -5.885  -5.878  -0.830  -0.731  -0.710
 -0.679  -0.587  -0.478  -0.451  -0.431  -0.416  -0.401  -0.378
 -0.361  -0.337  -0.311  -0.250  -0.219  -0.177

 Beta MOs
 -- Occupied --
-88.903 -88.857 -10.244 -10.198 -10.186  -7.964  -7.918  -5.928
 -5.925  -5.919  -5.882  -5.876  -5.873  -0.821  -0.718  -0.684
 -0.652  -0.577  -0.473  -0.444  -0.424  -0.410  -0.389  -0.366
 -0.356  -0.326  -0.270  -0.225

          Ground-State Mulliken Net Atomic Charges

     Atom                 Charge (a.u.)    Spin (a.u.)
  --------------------------------------------------------
      1 S                     0.024048       0.389783
      2 S                    -0.180268       0.814116
      3 C                    -0.202930      -0.048734
      4 C                    -0.236200       0.828529
      5 C                    -0.308473       0.012448
      6 H                     0.148490       0.000386
      7 H                     0.126301      -0.032560
      8 H                     0.135570      -0.036471
      9 H                     0.124866       0.000254
     10 H                     0.114415      -0.000677
     11 H                     0.123583       0.011408
     12 H                     0.092230      -0.011708
     13 H                     0.038367       0.073227
  --------------------------------------------------------
  Sum of atomic charges =    -0.000000

                    Cartesian Multipole Moments
 -----------------------------------------------------------------
    Charge (ESU x 10^10)
                -0.0000
    Dipole Moment (Debye)
         X       2.3038      Y       0.9781      Z      -0.2520
       Tot       2.5155
    Quadrupole Moments (Debye-Ang)
        XX     -49.2129     XY       0.1834     YY     -46.5080
        XZ       3.2283     YZ      -0.8898     ZZ     -46.8619

 Final energy is   -915.404671684183
 **  OPTIMIZATION CONVERGED  **
 Total job time:  163.70s(wall), 1903.99s(cpu)
        *  Thank you very much for using Q-Chem.  Have a nice day.  *
