 Q-Chem 5.1, Q-Chem, Inc., Pleasanton, CA (2018)
 Q-Chem 5.1.1 for Intel X86 EM64T Linux

User input:
--------------------------------------------------------------

$comment
potential surface scanner
$end

$rem
JOBTYPE  PES_SCAN
UNRESTRICTED TRUE
SYM_IGNORE  TRUE
GEOM_OPT_MAX_CYCLES 400
SCF_MAX_CYCLES 400
METHOD   B3LYP
BASIS   6-31G**
PDB_PRINT 2
SCF_CONVERGENCE 6
THRESH 14
SCF_PRINT 1
$end
$molecule
0 3
S 0.267944 -1.351096 -0.283883
S -2.529203 -0.768799 0.360638
C 0.673700 0.530857 -0.329548
C -0.353197 1.296197 0.388775
C 2.100548 0.742977 0.178023
H 0.617053 0.714679 -1.406491
H -0.293911 1.405742 1.466986
H -1.234669 1.662585 -0.119102
H 2.386913 1.790591 0.036442
H 2.172963 0.519427 1.247601
H 2.814429 0.111178 -0.356306
H 0.469607 -1.509069 1.039404
H -2.852475 -2.020271 -0.033542
$end
$scan
stre 2 4 2.900000 2.901000 0.100000
$end
--------------------------------------------------------------

   11    -915.4201320760      4.98e-07  Convergence criterion met
 Total energy in the final basis set =     -915.4201320760
   11    -915.4175894296      4.63e-07  Convergence criterion met
 Total energy in the final basis set =     -915.4175894296
   11    -915.4185279645      6.01e-07  Convergence criterion met
 Total energy in the final basis set =     -915.4185279645
   11    -915.4186287545      5.56e-07  Convergence criterion met
 Total energy in the final basis set =     -915.4186287545
   11    -915.4186609727      5.26e-07  Convergence criterion met
 Total energy in the final basis set =     -915.4186609727
   11    -915.4186730844      5.16e-07  Convergence criterion met
 Total energy in the final basis set =     -915.4186730844
   11    -915.4186794486      5.18e-07  Convergence criterion met
 Total energy in the final basis set =     -915.4186794486
   11    -915.4186816688      5.26e-07  Convergence criterion met
 Total energy in the final basis set =     -915.4186816688
   11    -915.4186827014      5.32e-07  Convergence criterion met
 Total energy in the final basis set =     -915.4186827014

             Standard Nuclear Orientation (Angstroms)
    I     Atom           X                Y                Z
 ----------------------------------------------------------------
    1      S       0.2826914401    -1.3604574794    -0.3347709998
    2      S      -2.4682939026    -0.7266335381     0.3873072128
    3      C       0.6717828825     0.5286480130    -0.3433643690
    4      C      -0.3727506574     1.2779180789     0.3656041398
    5      C       2.0873102889     0.7409518836     0.1952156096
    6      H       0.6358491182     0.7278924468    -1.4183068426
    7      H      -0.3383700339     1.3693991869     1.4462508094
    8      H      -1.2292157884     1.6781028709    -0.1589700362
    9      H       2.3707011493     1.7920478210     0.0753473313
   10      H       2.1404045656     0.5014858916     1.2626181858
   11      H       2.8148750193     0.1211790900    -0.3348558998
   12      H       0.5038054154    -1.5450580582     0.9818730989
   13      H      -2.8590874970    -1.9804782070     0.0650487598
 ----------------------------------------------------------------

   11    -915.4186833394      5.37e-07  Convergence criterion met
 Total energy in the final basis set =     -915.4186833394

                    Orbital Energies (a.u.)
 --------------------------------------------------------------

 Alpha MOs
 -- Occupied --
-88.907 -88.855 -10.249 -10.208 -10.202  -7.969  -7.916  -5.933
 -5.929  -5.927  -5.884  -5.878  -5.869  -0.835  -0.733  -0.704
 -0.684  -0.592  -0.486  -0.453  -0.435  -0.418  -0.391  -0.378
 -0.366  -0.346  -0.311  -0.229  -0.223  -0.212

 Beta MOs
 -- Occupied --
-88.905 -88.850 -10.250 -10.202 -10.195  -7.966  -7.911  -5.930
 -5.926  -5.921  -5.875  -5.869  -5.866  -0.826  -0.720  -0.682
 -0.654  -0.582  -0.481  -0.448  -0.428  -0.412  -0.385  -0.367
 -0.360  -0.335  -0.270  -0.216

          Ground-State Mulliken Net Atomic Charges

     Atom                 Charge (a.u.)    Spin (a.u.)
  --------------------------------------------------------
      1 S                     0.029527       0.390056
      2 S                    -0.250733       0.792759
      3 C                    -0.220399      -0.087732
      4 C                    -0.187966       0.980381
      5 C                    -0.308970       0.011797
      6 H                     0.153445       0.005900
      7 H                     0.123286      -0.043460
      8 H                     0.147360      -0.042888
      9 H                     0.126679       0.000818
     10 H                     0.115824      -0.001170
     11 H                     0.127009       0.004843
     12 H                     0.093001      -0.011044
     13 H                     0.051937      -0.000260
  --------------------------------------------------------
  Sum of atomic charges =     0.000000

                    Cartesian Multipole Moments
 -----------------------------------------------------------------
    Charge (ESU x 10^10)
                 0.0000
    Dipole Moment (Debye)
         X       2.9285      Y       0.7697      Z       0.0943
       Tot       3.0295
    Quadrupole Moments (Debye-Ang)
        XX     -51.5367     XY       0.8898     YY     -45.1925
        XZ       1.8417     YZ      -1.1361     ZZ     -46.8792

 Final energy is   -915.418683339374
 **  OPTIMIZATION CONVERGED  **
 Total job time:  49.66s(wall), 513.18s(cpu)
        *  Thank you very much for using Q-Chem.  Have a nice day.  *
