 Q-Chem 5.1, Q-Chem, Inc., Pleasanton, CA (2018)
 Q-Chem 5.1.1 for Intel X86 EM64T Linux

User input:
--------------------------------------------------------------

$comment
potential surface scanner
$end

$rem
JOBTYPE  PES_SCAN
UNRESTRICTED TRUE
SYM_IGNORE  TRUE
GEOM_OPT_MAX_CYCLES 400
SCF_MAX_CYCLES 400
METHOD   B3LYP
BASIS   6-31G**
PDB_PRINT 2
SCF_CONVERGENCE 6
THRESH 14
SCF_PRINT 1
$end
$molecule
0 3
S 0.100908 -1.164823 -0.134374
S -3.886874 -2.060671 -0.320843
C 0.708370 0.647842 -0.203921
C -0.079322 1.474791 0.724653
C 2.219256 0.717586 0.017012
H 0.464262 0.892745 -1.243260
H 0.259941 1.617322 1.746561
H -1.093650 1.767810 0.478573
H 2.569049 1.743195 -0.145248
H 2.477937 0.433259 1.042351
H 2.752713 0.053130 -0.666432
H 0.341527 -1.351384 1.179232
H -2.594418 -1.645801 -0.285307
$end
$scan
stre 2 4 5.200000 5.201000 0.100000
$end
--------------------------------------------------------------

   38    -915.4174429999      1.83e-07  Convergence criterion met
 Total energy in the final basis set =     -915.4174429999
   37    -915.4174771249      4.92e-07  Convergence criterion met
 Total energy in the final basis set =     -915.4174771249
   37    -915.4174974801      7.45e-07  Convergence criterion met
 Total energy in the final basis set =     -915.4174974801
   37    -915.4175078005      7.66e-07  Convergence criterion met
 Total energy in the final basis set =     -915.4175078005

             Standard Nuclear Orientation (Angstroms)
    I     Atom           X                Y                Z
 ----------------------------------------------------------------
    1      S       0.1294616001    -1.1919622925    -0.1325369115
    2      S      -3.8755516468    -1.9768495466    -0.3078917878
    3      C       0.7064242117     0.6301957432    -0.2065941763
    4      C      -0.0980327038     1.4466089849     0.7169412154
    5      C       2.2153161850     0.7262124171     0.0177707419
    6      H       0.4607303004     0.8675321274    -1.2473287944
    7      H       0.2366020562     1.6004147740     1.7387161762
    8      H      -1.1169299683     1.7202614146     0.4673949989
    9      H       2.5478513649     1.7577142646    -0.1436331330
   10      H       2.4768650001     0.4462598332     1.0435922311
   11      H       2.7618500373     0.0712843685    -0.6645401037
   12      H       0.3651930114    -1.3686236224     1.1833588394
   13      H      -2.5700804482    -1.6040474661    -0.2762522963
 ----------------------------------------------------------------

   37    -915.4175084515      6.17e-07  Convergence criterion met
 Total energy in the final basis set =     -915.4175084515

                    Orbital Energies (a.u.)
 --------------------------------------------------------------

 Alpha MOs
 -- Occupied --
-88.892 -88.885 -10.243 -10.209 -10.195  -7.954  -7.947  -5.926
 -5.915  -5.912  -5.909  -5.907  -5.902  -0.827  -0.721  -0.715
 -0.697  -0.588  -0.481  -0.446  -0.432  -0.406  -0.394  -0.381
 -0.363  -0.345  -0.305  -0.259  -0.258  -0.213

 Beta MOs
 -- Occupied --
-88.887 -88.884 -10.244 -10.195 -10.194  -7.949  -7.946  -5.912
 -5.911  -5.908  -5.907  -5.903  -5.901  -0.820  -0.711  -0.680
 -0.675  -0.579  -0.476  -0.442  -0.426  -0.403  -0.382  -0.376
 -0.360  -0.333  -0.251  -0.243

          Ground-State Mulliken Net Atomic Charges

     Atom                 Charge (a.u.)    Spin (a.u.)
  --------------------------------------------------------
      1 S                    -0.063472       0.150403
      2 S                    -0.107485       1.027351
      3 C                    -0.219167      -0.086423
      4 C                    -0.195220       1.007376
      5 C                    -0.300977       0.006004
      6 H                     0.148077       0.013657
      7 H                     0.110696      -0.044391
      8 H                     0.119678      -0.043932
      9 H                     0.119153      -0.000557
     10 H                     0.111329      -0.000646
     11 H                     0.126573       0.001182
     12 H                     0.069068      -0.002826
     13 H                     0.081746      -0.027199
  --------------------------------------------------------
  Sum of atomic charges =    -0.000000

                    Cartesian Multipole Moments
 -----------------------------------------------------------------
    Charge (ESU x 10^10)
                -0.0000
    Dipole Moment (Debye)
         X       2.4509      Y       1.8914      Z       0.8238
       Tot       3.2036
    Quadrupole Moments (Debye-Ang)
        XX     -55.6686     XY      -3.5148     YY     -51.1831
        XZ      -0.3548     YZ      -0.7447     ZZ     -44.7802

 Final energy is   -915.417508451489
 **  OPTIMIZATION CONVERGED  **
 Total job time:  53.93s(wall), 618.64s(cpu)
        *  Thank you very much for using Q-Chem.  Have a nice day.  *
