 Q-Chem 5.1, Q-Chem, Inc., Pleasanton, CA (2018)
 Q-Chem 5.1.1 for Intel X86 EM64T Linux

User input:
--------------------------------------------------------------

$comment
potential surface scanner
$end

$rem
JOBTYPE  PES_SCAN
UNRESTRICTED TRUE
SYM_IGNORE  TRUE
GEOM_OPT_MAX_CYCLES 400
SCF_MAX_CYCLES 400
METHOD   B3LYP
BASIS   6-31G**
PDB_PRINT 2
SCF_CONVERGENCE 6
THRESH 14
SCF_PRINT 1
$end
$molecule
0 1
S 0.653000 -1.655100 0.136100
S -2.273700 -0.042700 -0.103500
C 0.513800 0.101500 -0.361300
C -0.697000 0.778900 0.292500
C 1.803900 0.817400 0.036300
H 0.414100 0.130900 -1.452400
H -0.592400 0.804400 1.383200
H -0.770600 1.816900 -0.049700
H 1.768400 1.866200 -0.278900
H 1.962400 0.805000 1.120700
H 2.677400 0.363600 -0.445400
H 0.755100 -1.437500 1.455700
H -1.974700 -1.224500 0.455700
$end
$scan
stre 2 4 2.600000 2.601000 0.100000
$end
--------------------------------------------------------------

    9    -915.5220086792      2.35e-07  Convergence criterion met
 Total energy in the final basis set =     -915.5220086792
    9    -915.5193020331      7.05e-07  Convergence criterion met
 Total energy in the final basis set =     -915.5193020331
    9    -915.5075705301      8.40e-07  Convergence criterion met
 Total energy in the final basis set =     -915.5075705301
    9    -915.4933918765      9.09e-07  Convergence criterion met
 Total energy in the final basis set =     -915.4933918765
    9    -915.4792395820      9.69e-07  Convergence criterion met
 Total energy in the final basis set =     -915.4792395820
   10    -915.4660422158      1.73e-07  Convergence criterion met
 Total energy in the final basis set =     -915.4660422158
   10    -915.4651740034      1.69e-07  Convergence criterion met
 Total energy in the final basis set =     -915.4651740034
   10    -915.4626237014      1.74e-07  Convergence criterion met
   10    -915.4633168794      1.65e-07  Convergence criterion met
 Total energy in the final basis set =     -915.4633168794
   10    -915.4633198555      1.65e-07  Convergence criterion met
 Total energy in the final basis set =     -915.4633198555
   10    -915.4633228201      1.65e-07  Convergence criterion met
 Total energy in the final basis set =     -915.4633228201
   10    -915.4633256522      1.65e-07  Convergence criterion met
 Total energy in the final basis set =     -915.4633256522
   10    -915.4633280998      1.65e-07  Convergence criterion met
 Total energy in the final basis set =     -915.4633280998
   10    -915.4633299238      1.65e-07  Convergence criterion met
 Total energy in the final basis set =     -915.4633299238

             Standard Nuclear Orientation (Angstroms)
    I     Atom           X                Y                Z
 ----------------------------------------------------------------
    1      S       0.6854774892    -1.6582084732     0.3072553653
    2      S      -2.8104880142    -0.1003274130    -0.3157093896
    3      C       0.5664586365     0.1098728027    -0.2198816424
    4      C      -0.5278640588     0.8733081384     0.4599585348
    5      C       1.9066483541     0.8557383584    -0.0301007641
    6      H       0.3489524914     0.0469044049    -1.2897347015
    7      H      -0.6813409775     0.7332374745     1.5251752713
    8      H      -0.7223212642     1.8779665913     0.0944480757
    9      H       1.8435074745     1.8701090225    -0.4377229597
   10      H       2.1727500246     0.9299479860     1.0292930137
   11      H       2.7059396628     0.3196631880    -0.5476169470
   12      H       1.1401613525    -1.4080888931     1.5522687221
   13      H      -2.3881811709    -1.3251231875     0.0613674213
 ----------------------------------------------------------------

   10    -915.4633309191      1.65e-07  Convergence criterion met
 Total energy in the final basis set =     -915.4633309191

                    Orbital Energies (a.u.)
 --------------------------------------------------------------

 Alpha MOs
 -- Occupied --
-88.889 -88.862 -10.264 -10.255 -10.211  -7.951  -7.921  -5.916
 -5.912  -5.906  -5.885  -5.883  -5.875  -0.843  -0.726  -0.711
 -0.670  -0.601  -0.489  -0.469  -0.438  -0.424  -0.403  -0.376
 -0.364  -0.339  -0.267  -0.252  -0.224

 Beta MOs
 -- Occupied --
-88.889 -88.862 -10.264 -10.255 -10.211  -7.951  -7.921  -5.916
 -5.912  -5.906  -5.885  -5.883  -5.875  -0.843  -0.726  -0.711
 -0.670  -0.601  -0.489  -0.469  -0.438  -0.424  -0.403  -0.376
 -0.364  -0.339  -0.267  -0.252  -0.224

          Ground-State Mulliken Net Atomic Charges

     Atom                 Charge (a.u.)    Spin (a.u.)
  --------------------------------------------------------
      1 S                    -0.017104      -0.000000
      2 S                    -0.277164       0.000000
      3 C                    -0.229264      -0.000000
      4 C                    -0.168045      -0.000000
      5 C                    -0.319135       0.000000
      6 H                     0.176393       0.000000
      7 H                     0.160982       0.000000
      8 H                     0.158182       0.000000
      9 H                     0.121401      -0.000000
     10 H                     0.117158      -0.000000
     11 H                     0.143462       0.000000
     12 H                     0.057174       0.000000
     13 H                     0.075960      -0.000000
  --------------------------------------------------------
  Sum of atomic charges =    -0.000000

                    Cartesian Multipole Moments
 -----------------------------------------------------------------
    Charge (ESU x 10^10)
                -0.0000
    Dipole Moment (Debye)
         X       3.6484      Y       1.6487      Z       1.2738
       Tot       4.2013
    Quadrupole Moments (Debye-Ang)
        XX     -56.7811     XY       2.3739     YY     -46.3879
        XZ      -0.1346     YZ      -1.1057     ZZ     -45.5131

 Final energy is   -915.463330919062
 **  OPTIMIZATION CONVERGED  **
 Total job time:  101.94s(wall), 1177.73s(cpu)
        *  Thank you very much for using Q-Chem.  Have a nice day.  *
