 Q-Chem 5.1, Q-Chem, Inc., Pleasanton, CA (2018)
 Q-Chem 5.1.1 for Intel X86 EM64T Linux

User input:
--------------------------------------------------------------

$comment
potential surface scanner
$end

$rem
JOBTYPE  PES_SCAN
UNRESTRICTED TRUE
SYM_IGNORE  TRUE
GEOM_OPT_MAX_CYCLES 400
SCF_MAX_CYCLES 400
METHOD   B3LYP
BASIS   6-31G**
PDB_PRINT 2
SCF_CONVERGENCE 6
THRESH 14
SCF_PRINT 1
$end
$molecule
0 3
S 0.387649 -1.420187 -0.172030
S -3.602699 -0.976438 -0.067882
C 0.677106 0.471863 -0.246482
C -0.290469 1.155986 0.626309
C 2.140187 0.801759 0.045849
H 0.448270 0.659108 -1.301193
H -0.029906 1.373668 1.658055
H -1.325187 1.269215 0.323598
H 2.314026 1.873187 -0.103771
H 2.396255 0.562781 1.083655
H 2.812320 0.242753 -0.609093
H 0.612804 -1.547625 1.151446
H -2.300656 -1.341074 -0.199465
$end
$scan
stre 2 4 3.900000 3.901000 0.100000
$end
--------------------------------------------------------------

   30    -915.4178223366      4.57e-07  Convergence criterion met
 Total energy in the final basis set =     -915.4178223366
   27    -915.4176809530      4.67e-07  Convergence criterion met
 Total energy in the final basis set =     -915.4176809530
   27    -915.4176901742      5.24e-07  Convergence criterion met
 Total energy in the final basis set =     -915.4176901742
   27    -915.4176955161      5.23e-07  Convergence criterion met
 Total energy in the final basis set =     -915.4176955161
   24    -915.4176965540      8.47e-07  Convergence criterion met
 Total energy in the final basis set =     -915.4176965540
   24    -915.4176989866      8.71e-07  Convergence criterion met
 Total energy in the final basis set =     -915.4176989866

             Standard Nuclear Orientation (Angstroms)
    I     Atom           X                Y                Z
 ----------------------------------------------------------------
    1      S       0.3968439800    -1.4328954351    -0.1723096068
    2      S      -3.5527011232    -0.9120558999    -0.0484129242
    3      C       0.6700974960     0.4618528524    -0.2489269786
    4      C      -0.3042548487     1.1396209799     0.6210786917
    5      C       2.1301429547     0.8031415526     0.0465939068
    6      H       0.4421002520     0.6459566447    -1.3042712607
    7      H      -0.0498488219     1.3537639521     1.6551337728
    8      H      -1.3360609817     1.2582850106     0.3107508974
    9      H       2.2957725090     1.8759949864    -0.1019578273
   10      H       2.3856652520     0.5655560449     1.0848685722
   11      H       2.8080315078     0.2497752206    -0.6072322153
   12      H       0.6215975865    -1.5564499006     1.1515759611
   13      H      -2.2676857625    -1.3275500086    -0.1978949893
 ----------------------------------------------------------------

   27    -915.4176999040      7.52e-07  Convergence criterion met
 Total energy in the final basis set =     -915.4176999040

                    Orbital Energies (a.u.)
 --------------------------------------------------------------

 Alpha MOs
 -- Occupied --
-88.894 -88.886 -10.242 -10.206 -10.194  -7.955  -7.948  -5.927
 -5.916  -5.913  -5.909  -5.908  -5.903  -0.827  -0.723  -0.715
 -0.695  -0.587  -0.480  -0.445  -0.431  -0.407  -0.395  -0.381
 -0.362  -0.345  -0.307  -0.262  -0.257  -0.212

 Beta MOs
 -- Occupied --
-88.888 -88.884 -10.243 -10.194 -10.193  -7.950  -7.947  -5.913
 -5.911  -5.909  -5.907  -5.905  -5.902  -0.819  -0.711  -0.682
 -0.674  -0.578  -0.475  -0.441  -0.425  -0.403  -0.383  -0.376
 -0.359  -0.333  -0.252  -0.245

          Ground-State Mulliken Net Atomic Charges

     Atom                 Charge (a.u.)    Spin (a.u.)
  --------------------------------------------------------
      1 S                    -0.064263       0.153261
      2 S                    -0.112232       1.025046
      3 C                    -0.218728      -0.085938
      4 C                    -0.204383       1.007806
      5 C                    -0.301263       0.006525
      6 H                     0.148876       0.013137
      7 H                     0.109661      -0.044505
      8 H                     0.131541      -0.045522
      9 H                     0.119988      -0.000539
     10 H                     0.111016      -0.000711
     11 H                     0.126111       0.001392
     12 H                     0.070080      -0.002819
     13 H                     0.083596      -0.027134
  --------------------------------------------------------
  Sum of atomic charges =     0.000000

                    Cartesian Multipole Moments
 -----------------------------------------------------------------
    Charge (ESU x 10^10)
                -0.0000
    Dipole Moment (Debye)
         X       2.1832      Y       1.1964      Z       0.6119
       Tot       2.5636
    Quadrupole Moments (Debye-Ang)
        XX     -54.7350     XY      -0.6161     YY     -49.8563
        XZ       1.4055     YZ      -0.7428     ZZ     -44.4481

 Final energy is   -915.417699903986
 **  OPTIMIZATION CONVERGED  **
 Total job time:  57.57s(wall), 670.75s(cpu)
        *  Thank you very much for using Q-Chem.  Have a nice day.  *
