 Q-Chem 5.1, Q-Chem, Inc., Pleasanton, CA (2018)
 Q-Chem 5.1.1 for Intel X86 EM64T Linux

User input:
--------------------------------------------------------------

$comment
potential surface scanner
$end

$rem
JOBTYPE  PES_SCAN
UNRESTRICTED TRUE
SYM_IGNORE  TRUE
GEOM_OPT_MAX_CYCLES 400
SCF_MAX_CYCLES 400
METHOD   B3LYP
BASIS   6-31G**
PDB_PRINT 2
SCF_CONVERGENCE 6
THRESH 14
SCF_PRINT 1
$end
$molecule
0 1
S 0.673685 -1.714186 0.217557
S -2.318579 0.128539 -0.181326
C 0.515279 0.065213 -0.282647
C -0.712275 0.744017 0.348743
C 1.799042 0.848616 0.007735
H 0.359644 0.000366 -1.364366
H -0.632541 0.718345 1.441241
H -0.712716 1.800918 0.057914
H 1.714494 1.871550 -0.376812
H 1.988778 0.911259 1.085018
H 2.663260 0.372963 -0.461415
H 1.025052 -1.472113 1.497704
H -2.123423 -1.150488 0.199653
$end
$scan
stre 2 4 1.900000 1.901000 0.100000
$end
--------------------------------------------------------------

    9    -915.5257685665      3.33e-07  Convergence criterion met
 Total energy in the final basis set =     -915.5257685665
    9    -915.5247791614      4.06e-07  Convergence criterion met
 Total energy in the final basis set =     -915.5247791614
    9    -915.5250232409      4.11e-07  Convergence criterion met
 Total energy in the final basis set =     -915.5250232409
    9    -915.5250705110      4.04e-07  Convergence criterion met
 Total energy in the final basis set =     -915.5250705110
    9    -915.5250736038      4.03e-07  Convergence criterion met
 Total energy in the final basis set =     -915.5250736038

             Standard Nuclear Orientation (Angstroms)
    I     Atom           X                Y                Z
 ----------------------------------------------------------------
    1      S       0.6715878924    -1.7078546034     0.2230003001
    2      S      -2.3789489259     0.0989160643    -0.1975095401
    3      C       0.5195871952     0.0722017505    -0.2765172855
    4      C      -0.6888031969     0.7631769237     0.3612075478
    5      C       1.8117081319     0.8477244452     0.0051808039
    6      H       0.3581160093     0.0089025928    -1.3571684364
    7      H      -0.6419609885     0.7220991099     1.4526951262
    8      H      -0.7151551392     1.8154859607     0.0618748147
    9      H       1.7331625410     1.8705064856    -0.3807181978
   10      H       2.0085018705     0.9103806061     1.0811240094
   11      H       2.6685794325     0.3635988428    -0.4688014185
   12      H       1.0331814356    -1.4681851674     1.5006565021
   13      H      -2.1398562579    -1.1719540106     0.1839747740
 ----------------------------------------------------------------

    9    -915.5250744200      4.02e-07  Convergence criterion met
 Total energy in the final basis set =     -915.5250744200

                    Orbital Energies (a.u.)
 --------------------------------------------------------------

 Alpha MOs
 -- Occupied --
-88.882 -88.873 -10.241 -10.232 -10.198  -7.944  -7.934  -5.909
 -5.905  -5.899  -5.899  -5.896  -5.889  -0.836  -0.752  -0.715
 -0.659  -0.590  -0.480  -0.452  -0.431  -0.420  -0.398  -0.381
 -0.361  -0.326  -0.323  -0.248  -0.238

 Beta MOs
 -- Occupied --
-88.882 -88.873 -10.241 -10.232 -10.198  -7.944  -7.934  -5.909
 -5.905  -5.899  -5.899  -5.896  -5.889  -0.836  -0.752  -0.715
 -0.659  -0.590  -0.480  -0.452  -0.431  -0.420  -0.398  -0.381
 -0.361  -0.326  -0.323  -0.248  -0.238

          Ground-State Mulliken Net Atomic Charges

     Atom                 Charge (a.u.)    Spin (a.u.)
  --------------------------------------------------------
      1 S                    -0.043839      -0.000000
      2 S                    -0.066608       0.000000
      3 C                    -0.208956      -0.000000
      4 C                    -0.307591       0.000000
      5 C                    -0.311587      -0.000000
      6 H                     0.156600       0.000000
      7 H                     0.139486      -0.000000
      8 H                     0.141976      -0.000000
      9 H                     0.114367       0.000000
     10 H                     0.110786       0.000000
     11 H                     0.133185      -0.000000
     12 H                     0.058349       0.000000
     13 H                     0.083833      -0.000000
  --------------------------------------------------------
  Sum of atomic charges =     0.000000

                    Cartesian Multipole Moments
 -----------------------------------------------------------------
    Charge (ESU x 10^10)
                 0.0000
    Dipole Moment (Debye)
         X       1.9219      Y       1.2615      Z       1.0025
       Tot       2.5080
    Quadrupole Moments (Debye-Ang)
        XX     -52.5150     XY       2.9411     YY     -47.5624
        XZ       0.2560     YZ      -1.4588     ZZ     -45.5266

 Final energy is   -915.525074420024
 **  OPTIMIZATION CONVERGED  **
 Total job time:  24.32s(wall), 277.17s(cpu)
        *  Thank you very much for using Q-Chem.  Have a nice day.  *
