 Q-Chem 5.1, Q-Chem, Inc., Pleasanton, CA (2018)
 Q-Chem 5.1.1 for Intel X86 EM64T Linux

User input:
--------------------------------------------------------------

$comment
potential surface scanner
$end

$rem
JOBTYPE  PES_SCAN
UNRESTRICTED TRUE
SYM_IGNORE  TRUE
GEOM_OPT_MAX_CYCLES 400
SCF_MAX_CYCLES 400
METHOD   B3LYP
BASIS   6-31G**
PDB_PRINT 2
SCF_CONVERGENCE 6
THRESH 14
SCF_PRINT 1
$end
$molecule
0 3
S 0.468341 -1.556298 -0.172208
S -2.108886 -0.552706 0.377566
C 0.592941 0.342463 -0.300304
C -0.541617 0.990501 0.424264
C 1.986880 0.797176 0.137686
H 0.475483 0.480286 -1.379745
H -0.422182 1.095128 1.502770
H -0.986713 1.858263 -0.054557
H 2.094586 1.872838 -0.038176
H 2.138502 0.618983 1.207557
H 2.774078 0.275015 -0.415069
H 0.751273 -1.640804 1.143739
H -2.982985 -1.455849 -0.244526
$end
$scan
stre 2 4 2.100000 2.101000 0.100000
$end
--------------------------------------------------------------

   11    -915.3962423218      6.67e-07  Convergence criterion met
 Total energy in the final basis set =     -915.3962423218
   11    -915.3910516873      6.13e-07  Convergence criterion met
 Total energy in the final basis set =     -915.3910516873
   11    -915.3912539363      6.15e-07  Convergence criterion met
 Total energy in the final basis set =     -915.3912539363
   11    -915.3914713525      6.04e-07  Convergence criterion met
 Total energy in the final basis set =     -915.3914713525
   11    -915.3915145626      6.05e-07  Convergence criterion met
 Total energy in the final basis set =     -915.3915145626
   11    -915.3915284561      6.03e-07  Convergence criterion met
 Total energy in the final basis set =     -915.3915284561
   11    -915.3915418321      6.01e-07  Convergence criterion met
 Total energy in the final basis set =     -915.3915418321
   11    -915.3915488900      6.00e-07  Convergence criterion met
   11    -915.3915623572      6.00e-07  Convergence criterion met
 Total energy in the final basis set =     -915.3915623572
   11    -915.3915700092      6.01e-07  Convergence criterion met
 Total energy in the final basis set =     -915.3915700092
   11    -915.3915743003      6.02e-07  Convergence criterion met
 Total energy in the final basis set =     -915.3915743003
   11    -915.3915764171      6.02e-07  Convergence criterion met
 Total energy in the final basis set =     -915.3915764171
   11    -915.3915783102      6.01e-07  Convergence criterion met
 Total energy in the final basis set =     -915.3915783102
   11    -915.3915797853      5.99e-07  Convergence criterion met
 Total energy in the final basis set =     -915.3915797853

             Standard Nuclear Orientation (Angstroms)
    I     Atom           X                Y                Z
 ----------------------------------------------------------------
    1      S       0.5075278010    -1.5801465728    -0.1135619595
    2      S      -2.0903637436    -0.4983378309     0.3211117215
    3      C       0.5927628113     0.3048913185    -0.2864159492
    4      C      -0.5563109478     0.9297892808     0.4520128180
    5      C       1.9775020988     0.8162381028     0.1124594586
    6      H       0.4451152387     0.4207360309    -1.3651086171
    7      H      -0.4064191585     1.0198275951     1.5302640747
    8      H      -0.9373872127     1.8495359152     0.0107086805
    9      H       2.0427000474     1.8930711100    -0.0781069977
   10      H       2.1620821673     0.6560395923     1.1800797494
   11      H       2.7697847254     0.3166856396    -0.4536941789
   12      H       0.7490198805    -1.6226346306     1.2130756393
   13      H      -3.0163127079    -1.3806995508    -0.3338274397
 ----------------------------------------------------------------

   11    -915.3915807522      5.97e-07  Convergence criterion met
 Total energy in the final basis set =     -915.3915807522

                    Orbital Energies (a.u.)
 --------------------------------------------------------------

 Alpha MOs
 -- Occupied --
-88.906 -88.879 -10.243 -10.199 -10.198  -7.967  -7.938  -5.931
 -5.928  -5.925  -5.905  -5.900  -5.892  -0.835  -0.729  -0.726
 -0.670  -0.588  -0.476  -0.455  -0.436  -0.412  -0.409  -0.382
 -0.360  -0.336  -0.307  -0.256  -0.231  -0.165

 Beta MOs
 -- Occupied --
-88.904 -88.873 -10.243 -10.198 -10.189  -7.965  -7.931  -5.930
 -5.926  -5.920  -5.897  -5.889  -5.887  -0.828  -0.721  -0.699
 -0.642  -0.580  -0.471  -0.447  -0.427  -0.407  -0.399  -0.364
 -0.355  -0.328  -0.267  -0.232

          Ground-State Mulliken Net Atomic Charges

     Atom                 Charge (a.u.)    Spin (a.u.)
  --------------------------------------------------------
      1 S                     0.031450       0.286536
      2 S                    -0.057725       0.887333
      3 C                    -0.205068      -0.029410
      4 C                    -0.304321       0.611167
      5 C                    -0.302963       0.007473
      6 H                     0.150801       0.001646
      7 H                     0.124559      -0.012547
      8 H                     0.130940      -0.025061
      9 H                     0.121554       0.000830
     10 H                     0.112237       0.000052
     11 H                     0.122986       0.011147
     12 H                     0.086026      -0.008357
     13 H                    -0.010476       0.269192
  --------------------------------------------------------
  Sum of atomic charges =     0.000000

                    Cartesian Multipole Moments
 -----------------------------------------------------------------
    Charge (ESU x 10^10)
                -0.0000
    Dipole Moment (Debye)
         X       2.3173      Y       1.2345      Z       0.0836
       Tot       2.6269
    Quadrupole Moments (Debye-Ang)
        XX     -50.3796     XY      -0.5272     YY     -47.2041
        XZ       2.4435     YZ      -1.3240     ZZ     -46.2317

 Final energy is   -915.391580752194
 **  OPTIMIZATION CONVERGED  **
 Total job time:  68.04s(wall), 785.47s(cpu)
        *  Thank you very much for using Q-Chem.  Have a nice day.  *
