 Q-Chem 5.1, Q-Chem, Inc., Pleasanton, CA (2018)
 Q-Chem 5.1.1 for Intel X86 EM64T Linux

User input:
--------------------------------------------------------------

$comment
potential surface scanner
$end

$rem
JOBTYPE  PES_SCAN
UNRESTRICTED TRUE
SYM_IGNORE  TRUE
GEOM_OPT_MAX_CYCLES 400
SCF_MAX_CYCLES 400
METHOD   B3LYP
BASIS   6-31G**
PDB_PRINT 2
SCF_CONVERGENCE 6
THRESH 14
SCF_PRINT 1
$end
$molecule
0 3
S 0.268353 -1.315575 -0.174796
S -3.769934 -1.491374 -0.168415
C 0.696785 0.549402 -0.235929
C -0.204734 1.295951 0.656309
C 2.183943 0.766146 0.039450
H 0.468341 0.764126 -1.285428
H 0.080563 1.479650 1.687995
H -1.233125 1.485473 0.369930
H 2.437066 1.822654 -0.103955
H 2.434997 0.498783 1.071259
H 2.803472 0.164285 -0.629163
H 0.486046 -1.472047 1.146927
H -2.412074 -1.422477 -0.185187
$end
$scan
stre 2 4 4.500000 4.501000 0.100000
$end
--------------------------------------------------------------

   11    -915.4177594045      7.75e-07  Convergence criterion met
 Total energy in the final basis set =     -915.4177594045
   11    -915.4177637081      8.82e-07  Convergence criterion met
 Total energy in the final basis set =     -915.4177637081
   11    -915.4177734789      9.19e-07  Convergence criterion met
 Total energy in the final basis set =     -915.4177734789
   12    -915.4177770947      9.56e-07  Convergence criterion met
 Total energy in the final basis set =     -915.4177770947
   15    -915.4177790472      9.74e-07  Convergence criterion met
 Total energy in the final basis set =     -915.4177790472
   27    -915.4178114311      4.77e-07  Convergence criterion met
 Total energy in the final basis set =     -915.4178114311
   32    -915.4178181015      1.06e-07  Convergence criterion met
 Total energy in the final basis set =     -915.4178181015
   38    -915.4178234190      8.84e-07  Convergence criterion met
 Total energy in the final basis set =     -915.4178234190
   35    -915.4178251964      5.68e-07  Convergence criterion met
 Total energy in the final basis set =     -915.4178251964

             Standard Nuclear Orientation (Angstroms)
    I     Atom           X                Y                Z
 ----------------------------------------------------------------
    1      S       0.2889005862    -1.3239332940    -0.2097463839
    2      S      -3.7634597845    -1.4033824398    -0.1028011711
    3      C       0.7022458893     0.5456190150    -0.2495637216
    4      C      -0.2229859601     1.2753299791     0.6317361736
    5      C       2.1822334186     0.7727548598     0.0545006855
    6      H       0.4917767173     0.7650663620    -1.3018318418
    7      H       0.0445471177     1.4578940440     1.6683964588
    8      H      -1.2503867211     1.4486421976     0.3320483650
    9      H       2.4293802770     1.8319392799    -0.0792384414
   10      H       2.4153774906     0.5028222948     1.0897667782
   11      H       2.8190347673     0.1789351665    -0.6049727835
   12      H       0.5086606665    -1.4931454864     1.1101914126
   13      H      -2.4056254648    -1.4335449783    -0.1494885305
 ----------------------------------------------------------------

   35    -915.4178254850      2.64e-07  Convergence criterion met
 Total energy in the final basis set =     -915.4178254850

                    Orbital Energies (a.u.)
 --------------------------------------------------------------

 Alpha MOs
 -- Occupied --
-88.893 -88.886 -10.243 -10.208 -10.195  -7.954  -7.948  -5.926
 -5.915  -5.913  -5.910  -5.907  -5.903  -0.827  -0.721  -0.716
 -0.696  -0.588  -0.481  -0.445  -0.432  -0.407  -0.395  -0.381
 -0.363  -0.345  -0.306  -0.260  -0.258  -0.213

 Beta MOs
 -- Occupied --
-88.887 -88.885 -10.244 -10.195 -10.195  -7.949  -7.947  -5.912
 -5.911  -5.908  -5.908  -5.904  -5.902  -0.820  -0.711  -0.680
 -0.676  -0.579  -0.476  -0.442  -0.426  -0.403  -0.382  -0.376
 -0.360  -0.333  -0.252  -0.244

          Ground-State Mulliken Net Atomic Charges

     Atom                 Charge (a.u.)    Spin (a.u.)
  --------------------------------------------------------
      1 S                    -0.063035       0.151205
      2 S                    -0.109792       1.027539
      3 C                    -0.218576      -0.086273
      4 C                    -0.199355       1.006175
      5 C                    -0.301840       0.005901
      6 H                     0.148629       0.013854
      7 H                     0.110463      -0.044374
      8 H                     0.125962      -0.043960
      9 H                     0.119817      -0.000556
     10 H                     0.111196      -0.000645
     11 H                     0.126685       0.001038
     12 H                     0.069200      -0.002741
     13 H                     0.080646      -0.027163
  --------------------------------------------------------
  Sum of atomic charges =    -0.000000

                    Cartesian Multipole Moments
 -----------------------------------------------------------------
    Charge (ESU x 10^10)
                -0.0000
    Dipole Moment (Debye)
         X       2.3905      Y       1.5357      Z       0.7485
       Tot       2.9382
    Quadrupole Moments (Debye-Ang)
        XX     -55.5853     XY      -2.0040     YY     -50.8070
        XZ       0.6219     YZ      -1.2422     ZZ     -44.2051

 Final energy is   -915.417825484953
 **  OPTIMIZATION CONVERGED  **
 Total job time:  71.03s(wall), 827.33s(cpu)
        *  Thank you very much for using Q-Chem.  Have a nice day.  *
