 Q-Chem 5.1, Q-Chem, Inc., Pleasanton, CA (2018)
 Q-Chem 5.1.1 for Intel X86 EM64T Linux

User input:
--------------------------------------------------------------

$comment
potential surface scanner
$end

$rem
JOBTYPE  PES_SCAN
UNRESTRICTED TRUE
SYM_IGNORE  TRUE
GEOM_OPT_MAX_CYCLES 400
SCF_MAX_CYCLES 400
METHOD   B3LYP
BASIS   6-31G**
PDB_PRINT 2
SCF_CONVERGENCE 6
THRESH 14
SCF_PRINT 1
$end
$molecule
0 1
S 0.653000 -1.655100 0.136100
S -2.273700 -0.042700 -0.103500
C 0.513800 0.101500 -0.361300
C -0.697000 0.778900 0.292500
C 1.803900 0.817400 0.036300
H 0.414100 0.130900 -1.452400
H -0.592400 0.804400 1.383200
H -0.770600 1.816900 -0.049700
H 1.768400 1.866200 -0.278900
H 1.962400 0.805000 1.120700
H 2.677400 0.363600 -0.445400
H 0.755100 -1.437500 1.455700
H -1.974700 -1.224500 0.455700
$end
$scan
stre 2 4 1.200000 1.201000 0.100000
$end
--------------------------------------------------------------

    9    -915.5220086792      2.35e-07  Convergence criterion met
 Total energy in the final basis set =     -915.5220086792
    9    -915.5114253112      4.32e-07  Convergence criterion met
 Total energy in the final basis set =     -915.5114253112
    9    -915.4733460872      5.12e-07  Convergence criterion met
 Total energy in the final basis set =     -915.4733460872
    9    -915.4002476731      5.87e-07  Convergence criterion met
 Total energy in the final basis set =     -915.4002476731
    9    -915.2764909308      7.01e-07  Convergence criterion met
 Total energy in the final basis set =     -915.2764909308
    9    -915.1049310693      8.54e-07  Convergence criterion met
 Total energy in the final basis set =     -915.1049310693
    9    -915.0931035752      8.69e-07  Convergence criterion met
 Total energy in the final basis set =     -915.0931035752
    9    -915.0916658522      8.82e-07  Convergence criterion met
    9    -915.0925287749      9.37e-07  Convergence criterion met
 Total energy in the final basis set =     -915.0925287749
    9    -915.0925309849      9.36e-07  Convergence criterion met
 Total energy in the final basis set =     -915.0925309849
    9    -915.0925329747      9.35e-07  Convergence criterion met
 Total energy in the final basis set =     -915.0925329747
    9    -915.0925345546      9.34e-07  Convergence criterion met
 Total energy in the final basis set =     -915.0925345546
    9    -915.0925359044      9.33e-07  Convergence criterion met
 Total energy in the final basis set =     -915.0925359044
    9    -915.0925370047      9.33e-07  Convergence criterion met
 Total energy in the final basis set =     -915.0925370047

             Standard Nuclear Orientation (Angstroms)
    I     Atom           X                Y                Z
 ----------------------------------------------------------------
    1      S       0.6931292092    -1.7525141449     0.1189269828
    2      S      -1.9789381689     0.2711145391    -0.0494779524
    3      C       0.5308907327     0.0190283613    -0.3481308741
    4      C      -0.8833309344     0.6383744683     0.2741962198
    5      C       1.7422956524     0.8548762357     0.0395503938
    6      H       0.3951114484    -0.0116764598    -1.4361499143
    7      H      -0.5350171126     0.7363842416     1.3599832098
    8      H      -0.7030156768     1.6923653597    -0.0122244107
    9      H       1.6335402174     1.8803434953    -0.3366079569
   10      H       1.8461361092     0.9116832483     1.1296729980
   11      H       2.6687795016     0.4403212465    -0.3649610852
   12      H       0.9427468174    -1.5302085214     1.4281548828
   13      H      -2.1126277955    -1.0250920696     0.3860675067
 ----------------------------------------------------------------

    9    -915.0925376427      9.33e-07  Convergence criterion met
 Total energy in the final basis set =     -915.0925376427

                    Orbital Energies (a.u.)
 --------------------------------------------------------------

 Alpha MOs
 -- Occupied --
-88.877 -88.840 -10.226 -10.209 -10.192  -7.940  -7.939  -5.905
 -5.904  -5.900  -5.895  -5.894  -5.890  -0.952  -0.800  -0.710
 -0.630  -0.591  -0.532  -0.467  -0.463  -0.434  -0.412  -0.395
 -0.361  -0.332  -0.283  -0.249  -0.199

 Beta MOs
 -- Occupied --
-88.877 -88.840 -10.226 -10.209 -10.192  -7.940  -7.939  -5.905
 -5.904  -5.900  -5.895  -5.894  -5.890  -0.952  -0.800  -0.710
 -0.630  -0.591  -0.532  -0.467  -0.463  -0.434  -0.412  -0.395
 -0.361  -0.332  -0.283  -0.249  -0.199

          Ground-State Mulliken Net Atomic Charges

     Atom                 Charge (a.u.)    Spin (a.u.)
  --------------------------------------------------------
      1 S                    -0.055329      -0.000000
      2 S                     0.069665      -0.000000
      3 C                    -0.252563      -0.000000
      4 C                    -0.253691       0.000000
      5 C                    -0.312740      -0.000000
      6 H                     0.136769       0.000000
      7 H                     0.065404       0.000000
      8 H                     0.161156       0.000000
      9 H                     0.105934      -0.000000
     10 H                     0.111091       0.000000
     11 H                     0.131131       0.000000
     12 H                     0.056143       0.000000
     13 H                     0.037030       0.000000
  --------------------------------------------------------
  Sum of atomic charges =     0.000000

                    Cartesian Multipole Moments
 -----------------------------------------------------------------
    Charge (ESU x 10^10)
                 0.0000
    Dipole Moment (Debye)
         X       1.0702      Y       1.7004      Z       0.8784
       Tot       2.1928
    Quadrupole Moments (Debye-Ang)
        XX     -50.9318     XY       2.3104     YY     -47.6249
        XZ      -0.2347     YZ      -1.9389     ZZ     -45.0803

 Final energy is   -915.092537642729
 **  OPTIMIZATION CONVERGED  **
 Total job time:  116.94s(wall), 1349.21s(cpu)
        *  Thank you very much for using Q-Chem.  Have a nice day.  *
