 Q-Chem 5.1, Q-Chem, Inc., Pleasanton, CA (2018)
 Q-Chem 5.1.1 for Intel X86 EM64T Linux

User input:
--------------------------------------------------------------

$comment
potential surface scanner
$end

$rem
JOBTYPE  PES_SCAN
UNRESTRICTED TRUE
SYM_IGNORE  TRUE
GEOM_OPT_MAX_CYCLES 400
SCF_MAX_CYCLES 400
METHOD   B3LYP
BASIS   6-31G**
PDB_PRINT 2
SCF_CONVERGENCE 6
THRESH 14
SCF_PRINT 1
$end
$molecule
0 3
S 0.352754 -1.384702 -0.189914
S -3.678384 -1.141049 -0.089875
C 0.689841 0.500002 -0.249031
C -0.264858 1.198713 0.626614
C 2.159030 0.792533 0.049634
H 0.467950 0.700285 -1.302900
H 0.000139 1.410391 1.658418
H -1.301002 1.316081 0.330104
H 2.359376 1.860435 -0.092458
H 2.406449 0.540494 1.086287
H 2.819420 0.222153 -0.607384
H 0.568536 -1.528089 1.133653
H -2.339551 -1.362250 -0.164151
$end
$scan
stre 2 4 4.100000 4.101000 0.100000
$end
--------------------------------------------------------------

   35    -915.4179069811      2.79e-07  Convergence criterion met
 Total energy in the final basis set =     -915.4179069811
   35    -915.4178662920      2.03e-07  Convergence criterion met
 Total energy in the final basis set =     -915.4178662920
   35    -915.4178777304      3.43e-07  Convergence criterion met
 Total energy in the final basis set =     -915.4178777304
   36    -915.4178817682      1.66e-07  Convergence criterion met
 Total energy in the final basis set =     -915.4178817682

             Standard Nuclear Orientation (Angstroms)
    I     Atom           X                Y                Z
 ----------------------------------------------------------------
    1      S       0.3716975789    -1.4041815717    -0.1881455422
    2      S      -3.6403043889    -1.0663093283    -0.0802443230
    3      C       0.6833433790     0.4850733333    -0.2505701970
    4      C      -0.2799756492     1.1753029206     0.6221555209
    5      C       2.1486385039     0.7965991656     0.0496701688
    6      H       0.4608334227     0.6803667913    -1.3052405354
    7      H      -0.0179316679     1.3917873737     1.6537815273
    8      H      -1.3163399285     1.2849982916     0.3236077352
    9      H       2.3358247422     1.8665983997    -0.0943294254
   10      H       2.3971681823     0.5499036682     1.0874071301
   11      H       2.8171915884     0.2329335123    -0.6048908912
   12      H       0.5882306489    -1.5416728401     1.1358918219
   13      H      -2.3086764119    -1.3264027163    -0.1600959900
 ----------------------------------------------------------------

   35    -915.4178822632      9.89e-07  Convergence criterion met
 Total energy in the final basis set =     -915.4178822632

                    Orbital Energies (a.u.)
 --------------------------------------------------------------

 Alpha MOs
 -- Occupied --
-88.894 -88.885 -10.242 -10.206 -10.194  -7.956  -7.948  -5.927
 -5.916  -5.913  -5.909  -5.908  -5.903  -0.827  -0.722  -0.715
 -0.696  -0.587  -0.480  -0.445  -0.432  -0.406  -0.395  -0.381
 -0.363  -0.345  -0.307  -0.261  -0.258  -0.212

 Beta MOs
 -- Occupied --
-88.889 -88.884 -10.243 -10.194 -10.193  -7.950  -7.946  -5.913
 -5.911  -5.909  -5.907  -5.905  -5.901  -0.819  -0.711  -0.682
 -0.675  -0.578  -0.475  -0.441  -0.426  -0.403  -0.383  -0.375
 -0.360  -0.333  -0.252  -0.245

          Ground-State Mulliken Net Atomic Charges

     Atom                 Charge (a.u.)    Spin (a.u.)
  --------------------------------------------------------
      1 S                    -0.064033       0.150796
      2 S                    -0.109289       1.027813
      3 C                    -0.218673      -0.086055
      4 C                    -0.203394       1.006546
      5 C                    -0.301642       0.005892
      6 H                     0.148584       0.014133
      7 H                     0.109845      -0.044414
      8 H                     0.130187      -0.044628
      9 H                     0.119885      -0.000553
     10 H                     0.111083      -0.000648
     11 H                     0.126230       0.001023
     12 H                     0.069623      -0.002653
     13 H                     0.081593      -0.027252
  --------------------------------------------------------
  Sum of atomic charges =    -0.000000

                    Cartesian Multipole Moments
 -----------------------------------------------------------------
    Charge (ESU x 10^10)
                 0.0000
    Dipole Moment (Debye)
         X       2.2367      Y       1.3182      Z       0.6991
       Tot       2.6887
    Quadrupole Moments (Debye-Ang)
        XX     -55.0591     XY      -1.1178     YY     -50.4526
        XZ       0.9460     YZ      -1.2226     ZZ     -44.1335

 Final energy is   -915.417882263221
 **  OPTIMIZATION CONVERGED  **
 Total job time:  51.66s(wall), 604.16s(cpu)
        *  Thank you very much for using Q-Chem.  Have a nice day.  *
