 Q-Chem 5.1, Q-Chem, Inc., Pleasanton, CA (2018)
 Q-Chem 5.1.1 for Intel X86 EM64T Linux

User input:
--------------------------------------------------------------

$comment
potential surface scanner
$end

$rem
JOBTYPE  PES_SCAN
UNRESTRICTED TRUE
SYM_IGNORE  TRUE
GEOM_OPT_MAX_CYCLES 400
SCF_MAX_CYCLES 400
METHOD   B3LYP
BASIS   6-31G**
PDB_PRINT 2
SCF_CONVERGENCE 6
THRESH 14
SCF_PRINT 1
$end
$molecule
0 3
S 0.183200 -1.309133 0.100186
S -2.799367 -1.220304 0.201741
C 0.648208 0.531190 -0.208024
C -0.228393 1.414700 0.571672
C 2.142947 0.730644 0.042502
H 0.420823 0.601975 -1.276933
H 0.084582 1.757978 1.553498
H -1.259159 1.566174 0.274946
H 2.427147 1.752377 -0.232913
H 2.386612 0.587750 1.100427
H 2.745027 0.032927 -0.544085
H 0.198782 -1.248299 1.445703
H -2.710707 -2.072982 -0.839721
$end
$scan
stre 2 4 3.600000 3.601000 0.100000
$end
--------------------------------------------------------------

   11    -915.4238202411      3.52e-07  Convergence criterion met
 Total energy in the final basis set =     -915.4238202411
   11    -915.4229859521      3.53e-07  Convergence criterion met
 Total energy in the final basis set =     -915.4229859521
   11    -915.4235477382      3.53e-07  Convergence criterion met
 Total energy in the final basis set =     -915.4235477382
   11    -915.4237465699      3.59e-07  Convergence criterion met
 Total energy in the final basis set =     -915.4237465699
   11    -915.4237586654      3.60e-07  Convergence criterion met
 Total energy in the final basis set =     -915.4237586654
   11    -915.4237658619      3.61e-07  Convergence criterion met
 Total energy in the final basis set =     -915.4237658619
   11    -915.4237681532      3.62e-07  Convergence criterion met
 Total energy in the final basis set =     -915.4237681532
   11    -915.4237696750      3.63e-07  Convergence criterion met
 Total energy in the final basis set =     -915.4237696750

             Standard Nuclear Orientation (Angstroms)
    I     Atom           X                Y                Z
 ----------------------------------------------------------------
    1      S       0.2027509632    -1.3284343767     0.1043641668
    2      S      -2.7631241385    -1.1562152706     0.2048251713
    3      C       0.6450158785     0.5180236106    -0.2089885546
    4      C      -0.2444946621     1.3903578112     0.5674146322
    5      C       2.1370265071     0.7345906722     0.0423896961
    6      H       0.4172408873     0.5820699055    -1.2781232124
    7      H       0.0559429337     1.7269305618     1.5555453675
    8      H      -1.2697581145     1.5467921946     0.2565720744
    9      H       2.4114856895     1.7570342323    -0.2400837648
   10      H       2.3806626021     0.6022474547     1.1017242888
   11      H       2.7467954619     0.0385551270    -0.5382216609
   12      H       0.2247806180    -1.2651624152     1.4497052046
   13      H      -2.7046226263    -2.0217925075    -0.8281244089
 ----------------------------------------------------------------

   11    -915.4237706321      3.63e-07  Convergence criterion met
 Total energy in the final basis set =     -915.4237706321

                    Orbital Energies (a.u.)
 --------------------------------------------------------------

 Alpha MOs
 -- Occupied --
-88.907 -88.859 -10.249 -10.210 -10.201  -7.968  -7.920  -5.932
 -5.929  -5.926  -5.889  -5.883  -5.874  -0.835  -0.733  -0.701
 -0.689  -0.593  -0.485  -0.454  -0.437  -0.413  -0.386  -0.374
 -0.369  -0.356  -0.311  -0.232  -0.225  -0.220

 Beta MOs
 -- Occupied --
-88.904 -88.855 -10.250 -10.200 -10.197  -7.966  -7.916  -5.930
 -5.926  -5.920  -5.880  -5.874  -5.871  -0.826  -0.721  -0.680
 -0.658  -0.583  -0.479  -0.450  -0.431  -0.408  -0.380  -0.366
 -0.361  -0.341  -0.270  -0.220

          Ground-State Mulliken Net Atomic Charges

     Atom                 Charge (a.u.)    Spin (a.u.)
  --------------------------------------------------------
      1 S                     0.027104       0.365331
      2 S                    -0.240128       0.817587
      3 C                    -0.224733      -0.094250
      4 C                    -0.193840       1.001603
      5 C                    -0.304134       0.009615
      6 H                     0.156099       0.014585
      7 H                     0.112207      -0.044217
      8 H                     0.148356      -0.043672
      9 H                     0.124371       0.002812
     10 H                     0.115401      -0.000996
     11 H                     0.126263       0.001266
     12 H                     0.091033      -0.009519
     13 H                     0.062002      -0.020145
  --------------------------------------------------------
  Sum of atomic charges =    -0.000000

                    Cartesian Multipole Moments
 -----------------------------------------------------------------
    Charge (ESU x 10^10)
                -0.0000
    Dipole Moment (Debye)
         X       3.0672      Y       1.3221      Z      -0.1373
       Tot       3.3429
    Quadrupole Moments (Debye-Ang)
        XX     -53.6822     XY      -0.8345     YY     -48.1786
        XZ       2.7483     YZ       1.5906     ZZ     -44.2214

 Final energy is   -915.423770632052
 **  OPTIMIZATION CONVERGED  **
 Total job time:  40.12s(wall), 453.60s(cpu)
        *  Thank you very much for using Q-Chem.  Have a nice day.  *
