 Q-Chem 5.1, Q-Chem, Inc., Pleasanton, CA (2018)
 Q-Chem 5.1.1 for Intel X86 EM64T Linux

User input:
--------------------------------------------------------------

$comment
potential surface scanner
$end

$rem
JOBTYPE  PES_SCAN
UNRESTRICTED TRUE
SYM_IGNORE  TRUE
GEOM_OPT_MAX_CYCLES 400
SCF_MAX_CYCLES 400
METHOD   B3LYP
BASIS   6-31G**
PDB_PRINT 2
SCF_CONVERGENCE 6
THRESH 14
SCF_PRINT 1
$end
$molecule
0 1
S 0.653000 -1.655100 0.136100
S -2.273700 -0.042700 -0.103500
C 0.513800 0.101500 -0.361300
C -0.697000 0.778900 0.292500
C 1.803900 0.817400 0.036300
H 0.414100 0.130900 -1.452400
H -0.592400 0.804400 1.383200
H -0.770600 1.816900 -0.049700
H 1.768400 1.866200 -0.278900
H 1.962400 0.805000 1.120700
H 2.677400 0.363600 -0.445400
H 0.755100 -1.437500 1.455700
H -1.974700 -1.224500 0.455700
$end
$scan
stre 2 4 2.400000 2.401000 0.100000
$end
--------------------------------------------------------------

    9    -915.5220086792      2.35e-07  Convergence criterion met
 Total energy in the final basis set =     -915.5220086792
    9    -915.5193020331      7.05e-07  Convergence criterion met
 Total energy in the final basis set =     -915.5193020331
    9    -915.5075705301      8.40e-07  Convergence criterion met
 Total energy in the final basis set =     -915.5075705301
    9    -915.4933918765      9.09e-07  Convergence criterion met
 Total energy in the final basis set =     -915.4933918765
    9    -915.4809454093      9.62e-07  Convergence criterion met
 Total energy in the final basis set =     -915.4809454093
    9    -915.4811213676      9.64e-07  Convergence criterion met
 Total energy in the final basis set =     -915.4811213676
    9    -915.4821385324      9.66e-07  Convergence criterion met
 Total energy in the final basis set =     -915.4821385324
    9    -915.4822189846      9.67e-07  Convergence criterion met
    9    -915.4823971437      9.65e-07  Convergence criterion met
 Total energy in the final basis set =     -915.4823971437
    9    -915.4824749641      9.62e-07  Convergence criterion met
 Total energy in the final basis set =     -915.4824749641
    9    -915.4825278552      9.58e-07  Convergence criterion met
 Total energy in the final basis set =     -915.4825278552
    9    -915.4825521159      9.56e-07  Convergence criterion met
 Total energy in the final basis set =     -915.4825521159
    9    -915.4825583670      9.56e-07  Convergence criterion met
 Total energy in the final basis set =     -915.4825583670
    9    -915.4825599427      9.56e-07  Convergence criterion met
 Total energy in the final basis set =     -915.4825599427

             Standard Nuclear Orientation (Angstroms)
    I     Atom           X                Y                Z
 ----------------------------------------------------------------
    1      S       0.6729327859    -1.6714894358     0.2839524589
    2      S      -2.6849975859    -0.0513904951    -0.2670240408
    3      C       0.5483415046     0.0996811559    -0.2366986731
    4      C      -0.5728371472     0.8494736093     0.4309888639
    5      C       1.8776639652     0.8503864671    -0.0199074857
    6      H       0.3476675335     0.0355207137    -1.3098109400
    7      H      -0.6713742471     0.7443340691     1.5079810027
    8      H      -0.7266670042     1.8662539400     0.0758507591
    9      H       1.8115795425     1.8697625711    -0.4150644452
   10      H       2.1273875569     0.9149957036     1.0443231141
   11      H       2.6915664468     0.3303789145    -0.5308875231
   12      H       1.0955969032    -1.4247591408     1.5408489322
   13      H      -2.2771602542    -1.2881480726     0.0844479769
 ----------------------------------------------------------------

    9    -915.4825606437      9.56e-07  Convergence criterion met
 Total energy in the final basis set =     -915.4825606437

                    Orbital Energies (a.u.)
 --------------------------------------------------------------

 Alpha MOs
 -- Occupied --
-88.887 -88.866 -10.256 -10.251 -10.207  -7.949  -7.925  -5.914
 -5.910  -5.903  -5.890  -5.888  -5.880  -0.839  -0.724  -0.713
 -0.671  -0.598  -0.484  -0.464  -0.435  -0.421  -0.401  -0.374
 -0.368  -0.335  -0.283  -0.251  -0.229

 Beta MOs
 -- Occupied --
-88.887 -88.866 -10.256 -10.251 -10.207  -7.949  -7.925  -5.914
 -5.910  -5.903  -5.890  -5.888  -5.880  -0.839  -0.724  -0.713
 -0.671  -0.598  -0.484  -0.464  -0.435  -0.421  -0.401  -0.374
 -0.368  -0.335  -0.283  -0.251  -0.229

          Ground-State Mulliken Net Atomic Charges

     Atom                 Charge (a.u.)    Spin (a.u.)
  --------------------------------------------------------
      1 S                    -0.025100      -0.000000
      2 S                    -0.224750      -0.000000
      3 C                    -0.220226       0.000000
      4 C                    -0.206486       0.000000
      5 C                    -0.316485       0.000000
      6 H                     0.170338       0.000000
      7 H                     0.156088      -0.000000
      8 H                     0.153607       0.000000
      9 H                     0.119155      -0.000000
     10 H                     0.115133       0.000000
     11 H                     0.140311      -0.000000
     12 H                     0.057770       0.000000
     13 H                     0.080646      -0.000000
  --------------------------------------------------------
  Sum of atomic charges =    -0.000000

                    Cartesian Multipole Moments
 -----------------------------------------------------------------
    Charge (ESU x 10^10)
                -0.0000
    Dipole Moment (Debye)
         X       3.1006      Y       1.5167      Z       1.1422
       Tot       3.6358
    Quadrupole Moments (Debye-Ang)
        XX     -55.3599     XY       2.5066     YY     -46.6981
        XZ       0.1272     YZ      -1.1502     ZZ     -45.5462

 Final energy is   -915.482560643675
 **  OPTIMIZATION CONVERGED  **
 Total job time:  63.86s(wall), 725.12s(cpu)
        *  Thank you very much for using Q-Chem.  Have a nice day.  *
