 Q-Chem 5.1, Q-Chem, Inc., Pleasanton, CA (2018)
 Q-Chem 5.1.1 for Intel X86 EM64T Linux

User input:
--------------------------------------------------------------

$comment
potential surface scanner
$end

$rem
JOBTYPE  PES_SCAN
UNRESTRICTED TRUE
SYM_IGNORE  TRUE
GEOM_OPT_MAX_CYCLES 400
SCF_MAX_CYCLES 400
METHOD   B3LYP
BASIS   6-31G**
PDB_PRINT 2
SCF_CONVERGENCE 6
THRESH 14
SCF_PRINT 1
$end
$molecule
0 3
S 0.393631 -1.502722 -0.281774
S -2.147406 -0.639264 0.514638
C 0.602486 0.419285 -0.330344
C -0.504854 1.104563 0.369416
C 2.002729 0.763613 0.182854
H 0.542613 0.591675 -1.408694
H -0.441500 1.222665 1.447887
H -1.094202 1.839879 -0.163239
H 2.196618 1.830806 0.031739
H 2.087089 0.560267 1.255594
H 2.775572 0.192427 -0.340216
H 0.740020 -1.664669 1.010787
H -2.913094 -1.593527 -0.099652
$end
$scan
stre 2 4 2.300000 2.301000 0.100000
$end
--------------------------------------------------------------

   11    -915.4046716782      7.69e-07  Convergence criterion met
 Total energy in the final basis set =     -915.4046716782
   11    -915.4003213292      7.39e-07  Convergence criterion met
 Total energy in the final basis set =     -915.4003213292
   11    -915.4003619127      7.76e-07  Convergence criterion met
 Total energy in the final basis set =     -915.4003619127
   11    -915.4005076536      7.72e-07  Convergence criterion met
 Total energy in the final basis set =     -915.4005076536
   11    -915.4005550340      7.71e-07  Convergence criterion met
 Total energy in the final basis set =     -915.4005550340
   11    -915.4005769345      7.65e-07  Convergence criterion met
 Total energy in the final basis set =     -915.4005769345
   11    -915.4005836858      7.61e-07  Convergence criterion met
 Total energy in the final basis set =     -915.4005836858
   11    -915.4005941338      7.51e-07  Convergence criterion met
   11    -915.4006170491      7.43e-07  Convergence criterion met
 Total energy in the final basis set =     -915.4006170491
   11    -915.4006216763      7.41e-07  Convergence criterion met
 Total energy in the final basis set =     -915.4006216763
   11    -915.4006273876      7.36e-07  Convergence criterion met
 Total energy in the final basis set =     -915.4006273876
   11    -915.4006333353      7.29e-07  Convergence criterion met
 Total energy in the final basis set =     -915.4006333353
   11    -915.4006369184      7.22e-07  Convergence criterion met
 Total energy in the final basis set =     -915.4006369184
   11    -915.4006380470      7.19e-07  Convergence criterion met
 Total energy in the final basis set =     -915.4006380470

             Standard Nuclear Orientation (Angstroms)
    I     Atom           X                Y                Z
 ----------------------------------------------------------------
    1      S       0.4373778260    -1.5337107375    -0.2016815627
    2      S      -2.1398796723    -0.5928805924     0.4127052112
    3      C       0.5957335336     0.3712514427    -0.3079709096
    4      C      -0.5209771300     1.0408733024     0.4109375926
    5      C       1.9974861568     0.7844666749     0.1492006595
    6      H       0.4942270133     0.5205337277    -1.3872143607
    7      H      -0.4306466515     1.1374879542     1.4913030789
    8      H      -1.0208559370     1.8647877545    -0.0864980533
    9      H       2.1357662313     1.8580184678    -0.0172594990
   10      H       2.1315690566     0.5947198056     1.2193225048
   11      H       2.7760345921     0.2446750542    -0.3986722416
   12      H       0.7389375222    -1.6409886195     1.1081766452
   13      H      -2.9550705410    -1.5242362347    -0.2033530652
 ----------------------------------------------------------------

   11    -915.4006383575      7.18e-07  Convergence criterion met
 Total energy in the final basis set =     -915.4006383575

                    Orbital Energies (a.u.)
 --------------------------------------------------------------

 Alpha MOs
 -- Occupied --
-88.906 -88.867 -10.243 -10.198 -10.197  -7.967  -7.927  -5.931
 -5.928  -5.926  -5.894  -5.890  -5.882  -0.832  -0.730  -0.714
 -0.677  -0.587  -0.476  -0.452  -0.432  -0.413  -0.404  -0.379
 -0.360  -0.337  -0.310  -0.252  -0.223  -0.173

 Beta MOs
 -- Occupied --
-88.904 -88.862 -10.243 -10.198 -10.185  -7.965  -7.922  -5.929
 -5.926  -5.920  -5.887  -5.879  -5.877  -0.823  -0.719  -0.687
 -0.649  -0.578  -0.471  -0.445  -0.424  -0.408  -0.393  -0.365
 -0.355  -0.327  -0.269  -0.227

          Ground-State Mulliken Net Atomic Charges

     Atom                 Charge (a.u.)    Spin (a.u.)
  --------------------------------------------------------
      1 S                     0.029767       0.347649
      2 S                    -0.144769       0.834940
      3 C                    -0.203577      -0.043802
      4 C                    -0.257977       0.784580
      5 C                    -0.305479       0.012285
      6 H                     0.149350       0.000724
      7 H                     0.125084      -0.027232
      8 H                     0.132816      -0.034013
      9 H                     0.123374       0.000614
     10 H                     0.113073      -0.000399
     11 H                     0.122938       0.012380
     12 H                     0.089593      -0.010443
     13 H                     0.025809       0.122716
  --------------------------------------------------------
  Sum of atomic charges =     0.000000

                    Cartesian Multipole Moments
 -----------------------------------------------------------------
    Charge (ESU x 10^10)
                 0.0000
    Dipole Moment (Debye)
         X       2.2668      Y       1.0040      Z      -0.1209
       Tot       2.4821
    Quadrupole Moments (Debye-Ang)
        XX     -49.4833     XY       0.0994     YY     -46.6852
        XZ       2.9644     YZ      -1.0362     ZZ     -46.5295

 Final energy is   -915.400638357503
 **  OPTIMIZATION CONVERGED  **
 Total job time:  85.54s(wall), 988.38s(cpu)
        *  Thank you very much for using Q-Chem.  Have a nice day.  *
