 Q-Chem 5.1, Q-Chem, Inc., Pleasanton, CA (2018)
 Q-Chem 5.1.1 for Intel X86 EM64T Linux

User input:
--------------------------------------------------------------

$comment
potential surface scanner
$end

$rem
JOBTYPE  PES_SCAN
UNRESTRICTED TRUE
SYM_IGNORE  TRUE
GEOM_OPT_MAX_CYCLES 400
SCF_MAX_CYCLES 400
METHOD   B3LYP
BASIS   6-31G**
PDB_PRINT 2
SCF_CONVERGENCE 6
THRESH 14
SCF_PRINT 1
$end
$molecule
0 3
S 0.371698 -1.404182 -0.188146
S -3.640304 -1.066309 -0.080244
C 0.683343 0.485073 -0.250570
C -0.279976 1.175303 0.622156
C 2.148639 0.796599 0.049670
H 0.460833 0.680367 -1.305241
H -0.017932 1.391787 1.653782
H -1.316340 1.284998 0.323608
H 2.335825 1.866598 -0.094329
H 2.397168 0.549904 1.087407
H 2.817192 0.232934 -0.604891
H 0.588231 -1.541673 1.135892
H -2.308676 -1.326403 -0.160096
$end
$scan
stre 2 4 4.000000 4.001000 0.100000
$end
--------------------------------------------------------------

   35    -915.4178822627      9.89e-07  Convergence criterion met
 Total energy in the final basis set =     -915.4178822627
   28    -915.4177805622      2.24e-07  Convergence criterion met
 Total energy in the final basis set =     -915.4177805622
   30    -915.4177912912      7.14e-07  Convergence criterion met
 Total energy in the final basis set =     -915.4177912912
   32    -915.4177978584      1.64e-07  Convergence criterion met
 Total energy in the final basis set =     -915.4177978584
   32    -915.4177997444      9.64e-08  Convergence criterion met
 Total energy in the final basis set =     -915.4177997444
   32    -915.4178035667      1.45e-07  Convergence criterion met
 Total energy in the final basis set =     -915.4178035667
   33    -915.4178055457      5.61e-08  Convergence criterion met
 Total energy in the final basis set =     -915.4178055457
   33    -915.4178078149      1.17e-07  Convergence criterion met
   30    -915.4178154760      2.75e-07  Convergence criterion met
 Total energy in the final basis set =     -915.4178154760
   31    -915.4178169588      2.11e-07  Convergence criterion met
 Total energy in the final basis set =     -915.4178169588
   31    -915.4178180330      6.41e-07  Convergence criterion met
 Total energy in the final basis set =     -915.4178180330
   31    -915.4178193348      7.24e-08  Convergence criterion met
 Total energy in the final basis set =     -915.4178193348
   30    -915.4178207267      8.14e-07  Convergence criterion met
 Total energy in the final basis set =     -915.4178207267
   28    -915.4178217768      3.20e-07  Convergence criterion met
 Total energy in the final basis set =     -915.4178217768

             Standard Nuclear Orientation (Angstroms)
    I     Atom           X                Y                Z
 ----------------------------------------------------------------
    1      S       0.3876486679    -1.4201866930    -0.1720300514
    2      S      -3.6026994052    -0.9764377334    -0.0678820753
    3      C       0.6771064301     0.4718631026    -0.2464815286
    4      C      -0.2904690519     1.1559855097     0.6263091513
    5      C       2.1401874600     0.8017586189     0.0458490143
    6      H       0.4482700316     0.6591082736    -1.3011930156
    7      H      -0.0299061466     1.3736677612     1.6580551164
    8      H      -1.3251865948     1.2692145915     0.3235981719
    9      H       2.3140260200     1.8731871187    -0.1037710544
   10      H       2.3962553028     0.5627813920     1.0836554643
   11      H       2.8123200915     0.2427526295    -0.6090930357
   12      H       0.6128042030    -1.5476246051     1.1514464340
   13      H      -2.3006560084    -1.3410739662    -0.1994645913
 ----------------------------------------------------------------

   30    -915.4178223364      4.57e-07  Convergence criterion met
 Total energy in the final basis set =     -915.4178223364

                    Orbital Energies (a.u.)
 --------------------------------------------------------------

 Alpha MOs
 -- Occupied --
-88.894 -88.885 -10.242 -10.206 -10.194  -7.956  -7.947  -5.927
 -5.917  -5.912  -5.909  -5.909  -5.902  -0.826  -0.723  -0.715
 -0.695  -0.587  -0.480  -0.445  -0.431  -0.407  -0.395  -0.381
 -0.362  -0.345  -0.307  -0.262  -0.257  -0.212

 Beta MOs
 -- Occupied --
-88.889 -88.884 -10.243 -10.194 -10.193  -7.951  -7.946  -5.914
 -5.911  -5.910  -5.907  -5.905  -5.901  -0.819  -0.711  -0.682
 -0.674  -0.577  -0.474  -0.441  -0.425  -0.403  -0.384  -0.375
 -0.359  -0.333  -0.252  -0.245

          Ground-State Mulliken Net Atomic Charges

     Atom                 Charge (a.u.)    Spin (a.u.)
  --------------------------------------------------------
      1 S                    -0.064717       0.152157
      2 S                    -0.110699       1.026354
      3 C                    -0.218677      -0.085968
      4 C                    -0.203951       1.007204
      5 C                    -0.301412       0.006219
      6 H                     0.148560       0.013592
      7 H                     0.109572      -0.044485
      8 H                     0.131133      -0.045110
      9 H                     0.119869      -0.000541
     10 H                     0.110996      -0.000681
     11 H                     0.126081       0.001218
     12 H                     0.069623      -0.002763
     13 H                     0.083621      -0.027196
  --------------------------------------------------------
  Sum of atomic charges =    -0.000000

                    Cartesian Multipole Moments
 -----------------------------------------------------------------
    Charge (ESU x 10^10)
                 0.0000
    Dipole Moment (Debye)
         X       2.1865      Y       1.2365      Z       0.6375
       Tot       2.5916
    Quadrupole Moments (Debye-Ang)
        XX     -54.8446     XY      -0.8144     YY     -50.1134
        XZ       1.2433     YZ      -0.9273     ZZ     -44.2580

 Final energy is   -915.417822336363
 **  OPTIMIZATION CONVERGED  **
 Total job time:  158.11s(wall), 1848.16s(cpu)
        *  Thank you very much for using Q-Chem.  Have a nice day.  *
