 Q-Chem 5.1, Q-Chem, Inc., Pleasanton, CA (2018)
 Q-Chem 5.1.1 for Intel X86 EM64T Linux

User input:
--------------------------------------------------------------

$comment
potential surface scanner
$end

$rem
JOBTYPE  PES_SCAN
UNRESTRICTED TRUE
SYM_IGNORE  TRUE
GEOM_OPT_MAX_CYCLES 400
SCF_MAX_CYCLES 400
METHOD   B3LYP
BASIS   6-31G**
PDB_PRINT 2
SCF_CONVERGENCE 6
THRESH 14
SCF_PRINT 1
$end
$molecule
0 3
S 0.246716 -1.295964 -0.169288
S -3.792211 -1.571079 -0.191237
C 0.699049 0.562761 -0.231525
C -0.187795 1.320981 0.665602
C 2.190417 0.760026 0.036246
H 0.468106 0.781250 -1.279701
H 0.105281 1.500534 1.695850
H -1.215009 1.524496 0.384679
H 2.456386 1.813368 -0.107204
H 2.443349 0.488084 1.066375
H 2.798778 0.151131 -0.636254
H 0.464533 -1.455463 1.152035
H -2.437901 -1.455127 -0.196581
$end
$scan
stre 2 4 4.600000 4.601000 0.100000
$end
--------------------------------------------------------------

   10    -915.4177388205      9.12e-07  Convergence criterion met
 Total energy in the final basis set =     -915.4177388205
   10    -915.4177421747      9.69e-07  Convergence criterion met
 Total energy in the final basis set =     -915.4177421747
   10    -915.4177536476      9.92e-07  Convergence criterion met
 Total energy in the final basis set =     -915.4177536476
   11    -915.4177597510      7.25e-07  Convergence criterion met
 Total energy in the final basis set =     -915.4177597510

             Standard Nuclear Orientation (Angstroms)
    I     Atom           X                Y                Z
 ----------------------------------------------------------------
    1      S       0.2683529552    -1.3155746979    -0.1747961164
    2      S      -3.7699335027    -1.4913743606    -0.1684151787
    3      C       0.6967845215     0.5494022761    -0.2359290441
    4      C      -0.2047341602     1.2959510976     0.6563094343
    5      C       2.1839434856     0.7661464645     0.0394497596
    6      H       0.4683410253     0.7641258360    -1.2854278523
    7      H       0.0805628739     1.4796500317     1.6879951391
    8      H      -1.2331249635     1.4854734498     0.3699301491
    9      H       2.4370662081     1.8226543568    -0.1039549780
   10      H       2.4349967875     0.4987831723     1.0712590443
   11      H       2.8034719577     0.1642853162    -0.6291631172
   12      H       0.4860462837    -1.4720474776     1.1469266107
   13      H      -2.4120744718    -1.4224774648    -0.1851868505
 ----------------------------------------------------------------

   11    -915.4177594048      7.75e-07  Convergence criterion met
 Total energy in the final basis set =     -915.4177594048

                    Orbital Energies (a.u.)
 --------------------------------------------------------------

 Alpha MOs
 -- Occupied --
-88.892 -88.886 -10.243 -10.209 -10.195  -7.954  -7.948  -5.925
 -5.914  -5.913  -5.910  -5.906  -5.903  -0.828  -0.721  -0.716
 -0.697  -0.588  -0.481  -0.446  -0.433  -0.407  -0.394  -0.382
 -0.363  -0.346  -0.305  -0.260  -0.258  -0.214

 Beta MOs
 -- Occupied --
-88.887 -88.885 -10.244 -10.196 -10.195  -7.948  -7.947  -5.912
 -5.911  -5.908  -5.907  -5.903  -5.902  -0.820  -0.712  -0.679
 -0.676  -0.579  -0.476  -0.443  -0.427  -0.403  -0.382  -0.377
 -0.361  -0.333  -0.252  -0.243

          Ground-State Mulliken Net Atomic Charges

     Atom                 Charge (a.u.)    Spin (a.u.)
  --------------------------------------------------------
      1 S                    -0.061812       0.150596
      2 S                    -0.110091       1.027304
      3 C                    -0.218953      -0.086319
      4 C                    -0.198456       1.007187
      5 C                    -0.301349       0.006050
      6 H                     0.148926       0.013617
      7 H                     0.111026      -0.044399
      8 H                     0.123359      -0.044091
      9 H                     0.119653      -0.000550
     10 H                     0.111384      -0.000660
     11 H                     0.126651       0.001150
     12 H                     0.069899      -0.002741
     13 H                     0.079764      -0.027144
  --------------------------------------------------------
  Sum of atomic charges =    -0.000000

                    Cartesian Multipole Moments
 -----------------------------------------------------------------
    Charge (ESU x 10^10)
                -0.0000
    Dipole Moment (Debye)
         X       2.4327      Y       1.6313      Z       0.7726
       Tot       3.0292
    Quadrupole Moments (Debye-Ang)
        XX     -55.7233     XY      -2.2910     YY     -50.6203
        XZ       0.3420     YZ      -0.7367     ZZ     -44.5806

 Final energy is   -915.417759404792
 **  OPTIMIZATION CONVERGED  **
 Total job time:  21.06s(wall), 235.38s(cpu)
        *  Thank you very much for using Q-Chem.  Have a nice day.  *
