 Q-Chem 5.1, Q-Chem, Inc., Pleasanton, CA (2018)
 Q-Chem 5.1.1 for Intel X86 EM64T Linux

User input:
--------------------------------------------------------------

$comment
potential surface scanner
$end

$rem
JOBTYPE  PES_SCAN
UNRESTRICTED TRUE
SYM_IGNORE  TRUE
GEOM_OPT_MAX_CYCLES 400
SCF_MAX_CYCLES 400
METHOD   B3LYP
BASIS   6-31G**
PDB_PRINT 2
SCF_CONVERGENCE 6
THRESH 14
SCF_PRINT 1
$end
$molecule
0 3
S 0.181594 -1.232493 -0.161401
S -3.859604 -1.807504 -0.244691
C 0.709000 0.605352 -0.221312
C -0.135649 1.395750 0.688751
C 2.210254 0.742015 0.030229
H 0.475435 0.837883 -1.265898
H 0.176616 1.559680 1.715974
H -1.157061 1.641029 0.420687
H 2.514975 1.785320 -0.109081
H 2.463725 0.452789 1.055425
H 2.786963 0.114921 -0.653397
H 0.396789 -1.404960 1.158702
H -2.523340 -1.564783 -0.224991
$end
$scan
stre 2 4 4.900000 4.901000 0.100000
$end
--------------------------------------------------------------

   10    -915.4176324398      8.12e-07  Convergence criterion met
 Total energy in the final basis set =     -915.4176324398
   10    -915.4176556475      7.99e-07  Convergence criterion met
 Total energy in the final basis set =     -915.4176556475
   10    -915.4176719219      8.02e-07  Convergence criterion met
 Total energy in the final basis set =     -915.4176719219
   10    -915.4176790416      8.05e-07  Convergence criterion met
 Total energy in the final basis set =     -915.4176790416

             Standard Nuclear Orientation (Angstroms)
    I     Atom           X                Y                Z
 ----------------------------------------------------------------
    1      S       0.2046485284    -1.2552097943    -0.1618290192
    2      S      -3.8385913328    -1.7274202807    -0.2304665342
    3      C       0.7052546041     0.5901383477    -0.2240042871
    4      C      -0.1532513164     1.3703083430     0.6818638039
    5      C       2.2036737534     0.7484436647     0.0314801814
    6      H       0.4715175391     0.8171457762    -1.2697690396
    7      H       0.1535772295     1.5405433586     1.7097057687
    8      H      -1.1773713701     1.6004350187     0.4105767133
    9      H       2.4947284584     1.7953183872    -0.1104414229
   10      H       2.4581609620     0.4661816833     1.0583954220
   11      H       2.7909099356     0.1270178319    -0.6483281831
   12      H       0.4216506026    -1.4223257339     1.1586751857
   13      H      -2.4952105938    -1.5255776023    -0.2168615888
 ----------------------------------------------------------------

   10    -915.4176794190      8.05e-07  Convergence criterion met
 Total energy in the final basis set =     -915.4176794190

                    Orbital Energies (a.u.)
 --------------------------------------------------------------

 Alpha MOs
 -- Occupied --
-88.892 -88.886 -10.243 -10.208 -10.195  -7.954  -7.948  -5.925
 -5.915  -5.913  -5.910  -5.906  -5.903  -0.827  -0.721  -0.716
 -0.697  -0.588  -0.481  -0.446  -0.432  -0.407  -0.394  -0.382
 -0.363  -0.346  -0.305  -0.259  -0.258  -0.213

 Beta MOs
 -- Occupied --
-88.887 -88.885 -10.244 -10.195 -10.195  -7.948  -7.947  -5.912
 -5.911  -5.908  -5.907  -5.903  -5.902  -0.820  -0.711  -0.680
 -0.676  -0.579  -0.476  -0.442  -0.426  -0.403  -0.382  -0.376
 -0.360  -0.333  -0.252  -0.243

          Ground-State Mulliken Net Atomic Charges

     Atom                 Charge (a.u.)    Spin (a.u.)
  --------------------------------------------------------
      1 S                    -0.062486       0.150111
      2 S                    -0.108851       1.027345
      3 C                    -0.218996      -0.086326
      4 C                    -0.196985       1.007467
      5 C                    -0.300983       0.006017
      6 H                     0.148445       0.013712
      7 H                     0.110783      -0.044419
      8 H                     0.121958      -0.043949
      9 H                     0.119280      -0.000540
     10 H                     0.111378      -0.000653
     11 H                     0.126469       0.001150
     12 H                     0.069163      -0.002765
     13 H                     0.080826      -0.027150
  --------------------------------------------------------
  Sum of atomic charges =    -0.000000

                    Cartesian Multipole Moments
 -----------------------------------------------------------------
    Charge (ESU x 10^10)
                -0.0000
    Dipole Moment (Debye)
         X       2.4449      Y       1.7537      Z       0.8066
       Tot       3.1150
    Quadrupole Moments (Debye-Ang)
        XX     -55.7956     XY      -2.8358     YY     -51.1308
        XZ       0.0232     YZ      -0.9528     ZZ     -44.3779

 Final energy is   -915.417679419019
 **  OPTIMIZATION CONVERGED  **
 Total job time:  19.80s(wall), 226.15s(cpu)
        *  Thank you very much for using Q-Chem.  Have a nice day.  *
