 Q-Chem 5.1, Q-Chem, Inc., Pleasanton, CA (2018)
 Q-Chem 5.1.1 for Intel X86 EM64T Linux

User input:
--------------------------------------------------------------

$comment
potential surface scanner
$end

$rem
JOBTYPE  PES_SCAN
UNRESTRICTED TRUE
SYM_IGNORE  TRUE
GEOM_OPT_MAX_CYCLES 400
SCF_MAX_CYCLES 400
METHOD   B3LYP
BASIS   6-31G**
PDB_PRINT 2
SCF_CONVERGENCE 6
THRESH 14
SCF_PRINT 1
$end
$molecule
0 1
S 0.671588 -1.707855 0.223000
S -2.378949 0.098916 -0.197510
C 0.519587 0.072202 -0.276517
C -0.688803 0.763177 0.361208
C 1.811708 0.847724 0.005181
H 0.358116 0.008903 -1.357168
H -0.641961 0.722099 1.452695
H -0.715155 1.815486 0.061875
H 1.733163 1.870506 -0.380718
H 2.008502 0.910381 1.081124
H 2.668579 0.363599 -0.468801
H 1.033181 -1.468185 1.500657
H -2.139856 -1.171954 0.183975
$end
$scan
stre 2 4 2.000000 2.001000 0.100000
$end
--------------------------------------------------------------

    9    -915.5250744009      4.02e-07  Convergence criterion met
 Total energy in the final basis set =     -915.5250744009
    9    -915.5195875704      7.39e-07  Convergence criterion met
 Total energy in the final basis set =     -915.5195875704
    9    -915.5197051785      7.38e-07  Convergence criterion met
 Total energy in the final basis set =     -915.5197051785
    9    -915.5197571699      7.36e-07  Convergence criterion met
 Total energy in the final basis set =     -915.5197571699
    9    -915.5197603816      7.36e-07  Convergence criterion met
 Total energy in the final basis set =     -915.5197603816

             Standard Nuclear Orientation (Angstroms)
    I     Atom           X                Y                Z
 ----------------------------------------------------------------
    1      S       0.6695619347    -1.7013024776     0.2299136197
    2      S      -2.4391928149     0.0697303091    -0.2133788314
    3      C       0.5245794442     0.0785712712    -0.2699282624
    4      C      -0.6651939066     0.7818112620     0.3747269476
    5      C       1.8247195635     0.8472707024     0.0022172688
    6      H       0.3562806056     0.0172180356    -1.3493567215
    7      H      -0.6499807210     0.7251763393     1.4644732409
    8      H      -0.7168425369     1.8289170834     0.0666597956
    9      H       1.7509517140     1.8697025658    -0.3851339091
   10      H       2.0293966991     0.9098541227     1.0766048299
   11      H       2.6740033978     0.3552010326    -0.4773047900
   12      H       1.0410677725    -1.4633407159     1.5049521415
   13      H      -2.1596511520    -1.1938105306     0.1645556703
 ----------------------------------------------------------------

    9    -915.5197613197      7.36e-07  Convergence criterion met
 Total energy in the final basis set =     -915.5197613197

                    Orbital Energies (a.u.)
 --------------------------------------------------------------

 Alpha MOs
 -- Occupied --
-88.882 -88.872 -10.242 -10.237 -10.199  -7.945  -7.934  -5.910
 -5.906  -5.899  -5.898  -5.895  -5.888  -0.835  -0.741  -0.716
 -0.663  -0.591  -0.479  -0.454  -0.431  -0.418  -0.398  -0.380
 -0.362  -0.327  -0.318  -0.248  -0.237

 Beta MOs
 -- Occupied --
-88.882 -88.872 -10.242 -10.237 -10.199  -7.945  -7.934  -5.910
 -5.906  -5.899  -5.898  -5.895  -5.888  -0.835  -0.741  -0.716
 -0.663  -0.591  -0.479  -0.454  -0.431  -0.418  -0.398  -0.380
 -0.362  -0.327  -0.318  -0.248  -0.237

          Ground-State Mulliken Net Atomic Charges

     Atom                 Charge (a.u.)    Spin (a.u.)
  --------------------------------------------------------
      1 S                    -0.040673       0.000000
      2 S                    -0.095213       0.000000
      3 C                    -0.208488      -0.000000
      4 C                    -0.293464      -0.000000
      5 C                    -0.312247       0.000000
      6 H                     0.159077      -0.000000
      7 H                     0.143314       0.000000
      8 H                     0.143773       0.000000
      9 H                     0.115229       0.000000
     10 H                     0.111405       0.000000
     11 H                     0.134348      -0.000000
     12 H                     0.058294      -0.000000
     13 H                     0.084644       0.000000
  --------------------------------------------------------
  Sum of atomic charges =    -0.000000

                    Cartesian Multipole Moments
 -----------------------------------------------------------------
    Charge (ESU x 10^10)
                 0.0000
    Dipole Moment (Debye)
         X       2.1031      Y       1.2897      Z       1.0229
       Tot       2.6707
    Quadrupole Moments (Debye-Ang)
        XX     -52.9292     XY       2.8799     YY     -47.4142
        XZ       0.2614     YZ      -1.4182     ZZ     -45.5532

 Final energy is   -915.519761319654
 **  OPTIMIZATION CONVERGED  **
 Total job time:  24.17s(wall), 276.48s(cpu)
        *  Thank you very much for using Q-Chem.  Have a nice day.  *
