 Q-Chem 5.1, Q-Chem, Inc., Pleasanton, CA (2018)
 Q-Chem 5.1.1 for Intel X86 EM64T Linux

User input:
--------------------------------------------------------------

$comment
potential surface scanner
$end

$rem
JOBTYPE  PES_SCAN
UNRESTRICTED TRUE
SYM_IGNORE  TRUE
GEOM_OPT_MAX_CYCLES 400
SCF_MAX_CYCLES 400
METHOD   B3LYP
BASIS   6-31G**
PDB_PRINT 2
SCF_CONVERGENCE 6
THRESH 14
SCF_PRINT 1
$end
$molecule
0 3
S 0.437378 -1.533711 -0.201682
S -2.139880 -0.592881 0.412705
C 0.595734 0.371251 -0.307971
C -0.520977 1.040873 0.410938
C 1.997486 0.784467 0.149201
H 0.494227 0.520534 -1.387214
H -0.430647 1.137488 1.491303
H -1.020856 1.864788 -0.086498
H 2.135766 1.858018 -0.017259
H 2.131569 0.594720 1.219323
H 2.776035 0.244675 -0.398672
H 0.738938 -1.640989 1.108177
H -2.955071 -1.524236 -0.203353
$end
$scan
stre 2 4 2.200000 2.201000 0.100000
$end
--------------------------------------------------------------

   11    -915.4006383742      7.18e-07  Convergence criterion met
 Total energy in the final basis set =     -915.4006383742
   11    -915.3959013369      6.70e-07  Convergence criterion met
 Total energy in the final basis set =     -915.3959013369
   11    -915.3960026464      6.83e-07  Convergence criterion met
 Total energy in the final basis set =     -915.3960026464
   11    -915.3961511191      6.71e-07  Convergence criterion met
 Total energy in the final basis set =     -915.3961511191
   11    -915.3961960272      6.74e-07  Convergence criterion met
 Total energy in the final basis set =     -915.3961960272
   11    -915.3962155421      6.73e-07  Convergence criterion met
 Total energy in the final basis set =     -915.3962155421
   11    -915.3962226136      6.70e-07  Convergence criterion met
 Total energy in the final basis set =     -915.3962226136
   11    -915.3962286623      6.67e-07  Convergence criterion met
 Total energy in the final basis set =     -915.3962286623
   11    -915.3962340814      6.64e-07  Convergence criterion met
 Total energy in the final basis set =     -915.3962340814
   11    -915.3962378066      6.64e-07  Convergence criterion met
 Total energy in the final basis set =     -915.3962378066
   11    -915.3962400263      6.65e-07  Convergence criterion met
 Total energy in the final basis set =     -915.3962400263
   11    -915.3962413501      6.66e-07  Convergence criterion met
 Total energy in the final basis set =     -915.3962413501

             Standard Nuclear Orientation (Angstroms)
    I     Atom           X                Y                Z
 ----------------------------------------------------------------
    1      S       0.4683412245    -1.5562977340    -0.1722077479
    2      S      -2.1088858220    -0.5527062132     0.3775660126
    3      C       0.5929409311     0.3424631503    -0.3003040471
    4      C      -0.5416165642     0.9905006496     0.4242638244
    5      C       1.9868803404     0.7971761514     0.1376862824
    6      H       0.4754830269     0.4802863769    -1.3797447206
    7      H      -0.4221815813     1.0951283250     1.5027698967
    8      H      -0.9867130971     1.8582628452    -0.0545567671
    9      H       2.0945859716     1.8728378922    -0.0381759698
   10      H       2.1385021482     0.6189832282     1.2075573713
   11      H       2.7740777812     0.2750152042    -0.4150690904
   12      H       0.7512726823    -1.6408036369     1.1437390003
   13      H      -2.9829850417    -1.4558492388    -0.2445260446
 ----------------------------------------------------------------

   11    -915.3962423257      6.67e-07  Convergence criterion met
 Total energy in the final basis set =     -915.3962423257

                    Orbital Energies (a.u.)
 --------------------------------------------------------------

 Alpha MOs
 -- Occupied --
-88.906 -88.872 -10.242 -10.198 -10.197  -7.967  -7.932  -5.931
 -5.928  -5.926  -5.899  -5.894  -5.887  -0.833  -0.729  -0.719
 -0.674  -0.587  -0.475  -0.453  -0.434  -0.412  -0.407  -0.380
 -0.359  -0.336  -0.309  -0.254  -0.226  -0.168

 Beta MOs
 -- Occupied --
-88.904 -88.867 -10.243 -10.197 -10.185  -7.965  -7.926  -5.929
 -5.926  -5.920  -5.892  -5.884  -5.881  -0.824  -0.720  -0.692
 -0.646  -0.578  -0.471  -0.445  -0.425  -0.407  -0.395  -0.364
 -0.355  -0.327  -0.268  -0.230

          Ground-State Mulliken Net Atomic Charges

     Atom                 Charge (a.u.)    Spin (a.u.)
  --------------------------------------------------------
      1 S                     0.030496       0.324161
      2 S                    -0.104149       0.859156
      3 C                    -0.203159      -0.035857
      4 C                    -0.281499       0.708041
      5 C                    -0.304500       0.009953
      6 H                     0.149636       0.000921
      7 H                     0.124838      -0.020813
      8 H                     0.131336      -0.030219
      9 H                     0.122657       0.000701
     10 H                     0.112641      -0.000187
     11 H                     0.122666       0.012098
     12 H                     0.088271      -0.009640
     13 H                     0.010766       0.181684
  --------------------------------------------------------
  Sum of atomic charges =    -0.000000

                    Cartesian Multipole Moments
 -----------------------------------------------------------------
    Charge (ESU x 10^10)
                -0.0000
    Dipole Moment (Debye)
         X       2.2491      Y       1.0799      Z      -0.0434
       Tot       2.4953
    Quadrupole Moments (Debye-Ang)
        XX     -49.6917     XY      -0.1454     YY     -46.9270
        XZ       2.7701     YZ      -1.1827     ZZ     -46.4327

 Final energy is   -915.396242325743
 **  OPTIMIZATION CONVERGED  **
 Total job time:  69.07s(wall), 676.25s(cpu)
        *  Thank you very much for using Q-Chem.  Have a nice day.  *
