 Q-Chem 5.1, Q-Chem, Inc., Pleasanton, CA (2018)
 Q-Chem 5.1.1 for Intel X86 EM64T Linux

User input:
--------------------------------------------------------------

$comment
potential surface scanner
$end

$rem
JOBTYPE  PES_SCAN
UNRESTRICTED TRUE
SYM_IGNORE  TRUE
GEOM_OPT_MAX_CYCLES 400
SCF_MAX_CYCLES 400
METHOD   B3LYP
BASIS   6-31G**
PDB_PRINT 2
SCF_CONVERGENCE 6
THRESH 14
SCF_PRINT 1
$end
$molecule
0 3
S 0.288901 -1.323933 -0.209746
S -3.763460 -1.403382 -0.102801
C 0.702246 0.545619 -0.249564
C -0.222986 1.275330 0.631736
C 2.182233 0.772755 0.054501
H 0.491777 0.765066 -1.301832
H 0.044547 1.457894 1.668396
H -1.250387 1.448642 0.332048
H 2.429380 1.831939 -0.079238
H 2.415377 0.502822 1.089767
H 2.819035 0.178935 -0.604973
H 0.508661 -1.493145 1.110191
H -2.405625 -1.433545 -0.149489
$end
$scan
stre 2 4 4.400000 4.401000 0.100000
$end
--------------------------------------------------------------

   34    -915.4178254730      9.79e-07  Convergence criterion met
 Total energy in the final basis set =     -915.4178254730
   37    -915.4178371947      4.53e-07  Convergence criterion met
 Total energy in the final basis set =     -915.4178371947
   36    -915.4178472266      1.85e-07  Convergence criterion met
 Total energy in the final basis set =     -915.4178472266

             Standard Nuclear Orientation (Angstroms)
    I     Atom           X                Y                Z
 ----------------------------------------------------------------
    1      S       0.3111444349    -1.3449157237    -0.2085977439
    2      S      -3.7367463573    -1.3224251621    -0.0916713793
    3      C       0.6990029482     0.5297944736    -0.2517053511
    4      C      -0.2387154772     1.2482472665     0.6262585954
    5      C       2.1746874106     0.7793116016     0.0549455084
    6      H       0.4872662010     0.7446584228    -1.3047077354
    7      H       0.0243324045     1.4369119670     1.6629751150
    8      H      -1.2683370213     1.4037684857     0.3244789379
    9      H       2.4062249342     1.8417451001    -0.0807269868
   10      H       2.4097935963     0.5151788446     1.0913116191
   11      H       2.8215961570     0.1935912847    -0.6019742691
   12      H       0.5297857474    -1.5076204532     1.1123546844
   13      H      -2.3803359782    -1.3932491078    -0.1439449947
 ----------------------------------------------------------------

   39    -915.4178525745      6.85e-07  Convergence criterion met
 Total energy in the final basis set =     -915.4178525745

                    Orbital Energies (a.u.)
 --------------------------------------------------------------

 Alpha MOs
 -- Occupied --
-88.893 -88.886 -10.243 -10.207 -10.195  -7.955  -7.948  -5.926
 -5.915  -5.913  -5.910  -5.907  -5.903  -0.827  -0.721  -0.716
 -0.696  -0.588  -0.480  -0.445  -0.432  -0.407  -0.395  -0.381
 -0.363  -0.345  -0.306  -0.260  -0.258  -0.213

 Beta MOs
 -- Occupied --
-88.887 -88.885 -10.244 -10.195 -10.194  -7.949  -7.947  -5.912
 -5.911  -5.908  -5.908  -5.904  -5.902  -0.820  -0.711  -0.680
 -0.675  -0.578  -0.475  -0.442  -0.426  -0.403  -0.383  -0.376
 -0.360  -0.333  -0.252  -0.244

          Ground-State Mulliken Net Atomic Charges

     Atom                 Charge (a.u.)    Spin (a.u.)
  --------------------------------------------------------
      1 S                    -0.062743       0.150764
      2 S                    -0.109691       1.027700
      3 C                    -0.218729      -0.086108
      4 C                    -0.200450       1.006357
      5 C                    -0.301832       0.005869
      6 H                     0.148597       0.013877
      7 H                     0.110386      -0.044362
      8 H                     0.126929      -0.044018
      9 H                     0.119906      -0.000552
     10 H                     0.111174      -0.000642
     11 H                     0.126582       0.001024
     12 H                     0.069343      -0.002705
     13 H                     0.080528      -0.027203
  --------------------------------------------------------
  Sum of atomic charges =     0.000000

                    Cartesian Multipole Moments
 -----------------------------------------------------------------
    Charge (ESU x 10^10)
                 0.0000
    Dipole Moment (Debye)
         X       2.3623      Y       1.4905      Z       0.7401
       Tot       2.8896
    Quadrupole Moments (Debye-Ang)
        XX     -55.4843     XY      -1.8000     YY     -50.7761
        XZ       0.6941     YZ      -1.3027     ZZ     -44.1659

 Final energy is   -915.417852574521
 **  OPTIMIZATION CONVERGED  **
 Total job time:  42.61s(wall), 498.18s(cpu)
        *  Thank you very much for using Q-Chem.  Have a nice day.  *
