 Q-Chem 5.1, Q-Chem, Inc., Pleasanton, CA (2018)
 Q-Chem 5.1.1 for Intel X86 EM64T Linux

User input:
--------------------------------------------------------------

$comment
potential surface scanner
$end

$rem
JOBTYPE  PES_SCAN
UNRESTRICTED TRUE
SYM_IGNORE  TRUE
GEOM_OPT_MAX_CYCLES 400
SCF_MAX_CYCLES 400
METHOD   B3LYP
BASIS   6-31G**
PDB_PRINT 2
SCF_CONVERGENCE 6
THRESH 14
SCF_PRINT 1
$end
$molecule
0 3
S 0.248898 -1.345587 -0.140757
S -2.635309 -0.861547 0.251656
C 0.668431 0.526924 -0.287059
C -0.309016 1.325662 0.462554
C 2.124192 0.747380 0.125979
H 0.545308 0.667319 -1.365210
H -0.159260 1.506694 1.522887
H -1.252578 1.612273 0.018363
H 2.406051 1.787765 -0.069345
H 2.259630 0.560013 1.196056
H 2.801867 0.092853 -0.427335
H 0.377996 -1.416373 1.198558
H -2.836507 -2.078378 -0.297348
$end
$scan
stre 2 4 3.100000 3.101000 0.100000
$end
--------------------------------------------------------------

   11    -915.4221176829      4.15e-07  Convergence criterion met
 Total energy in the final basis set =     -915.4221176829
   11    -915.4208291004      3.95e-07  Convergence criterion met
 Total energy in the final basis set =     -915.4208291004
   11    -915.4211061672      4.03e-07  Convergence criterion met
 Total energy in the final basis set =     -915.4211061672
   11    -915.4211893240      4.11e-07  Convergence criterion met
 Total energy in the final basis set =     -915.4211893240
   11    -915.4212015685      4.13e-07  Convergence criterion met
 Total energy in the final basis set =     -915.4212015685
   11    -915.4212166645      4.17e-07  Convergence criterion met
 Total energy in the final basis set =     -915.4212166645
   11    -915.4212228022      4.19e-07  Convergence criterion met
 Total energy in the final basis set =     -915.4212228022
   11    -915.4212287497      4.22e-07  Convergence criterion met
   11    -915.4212362574      4.30e-07  Convergence criterion met
 Total energy in the final basis set =     -915.4212362574
   11    -915.4212395802      4.35e-07  Convergence criterion met
 Total energy in the final basis set =     -915.4212395802
   11    -915.4212434215      4.43e-07  Convergence criterion met
 Total energy in the final basis set =     -915.4212434215
   11    -915.4212467983      4.51e-07  Convergence criterion met
 Total energy in the final basis set =     -915.4212467983
   11    -915.4212489032      4.56e-07  Convergence criterion met
 Total energy in the final basis set =     -915.4212489032
   11    -915.4212499234      4.59e-07  Convergence criterion met
 Total energy in the final basis set =     -915.4212499234

             Standard Nuclear Orientation (Angstroms)
    I     Atom           X                Y                Z
 ----------------------------------------------------------------
    1      S       0.2573249536    -1.3470062795    -0.2182088829
    2      S      -2.5869999109    -0.8116314888     0.3062153266
    3      C       0.6724276314     0.5306113269    -0.3103041465
    4      C      -0.3311069507     1.3113683777     0.4237705316
    5      C       2.1135466895     0.7454541803     0.1537533187
    6      H       0.5850110939     0.6945786434    -1.3885024586
    7      H      -0.2288697651     1.4535464149     1.4953313979
    8      H      -1.2447483261     1.6365457002    -0.0546537248
    9      H       2.3995167290     1.7894951115    -0.0135060115
   10      H       2.2144798501     0.5395215771     1.2243544208
   11      H       2.8101901223     0.1019729328    -0.3890643276
   12      H       0.4257927025    -1.4649505536     1.1137053461
   13      H      -2.8468618193    -2.0545079429    -0.1538917897
 ----------------------------------------------------------------

   11    -915.4212504666      4.61e-07  Convergence criterion met
 Total energy in the final basis set =     -915.4212504666

                    Orbital Energies (a.u.)
 --------------------------------------------------------------

 Alpha MOs
 -- Occupied --
-88.907 -88.856 -10.249 -10.209 -10.202  -7.969  -7.917  -5.933
 -5.929  -5.927  -5.886  -5.879  -5.871  -0.836  -0.733  -0.702
 -0.686  -0.593  -0.486  -0.453  -0.435  -0.416  -0.390  -0.377
 -0.366  -0.349  -0.311  -0.229  -0.222  -0.216

 Beta MOs
 -- Occupied --
-88.905 -88.852 -10.250 -10.201 -10.196  -7.966  -7.912  -5.930
 -5.926  -5.921  -5.877  -5.871  -5.868  -0.826  -0.720  -0.681
 -0.655  -0.582  -0.481  -0.448  -0.429  -0.411  -0.384  -0.367
 -0.359  -0.337  -0.271  -0.218

          Ground-State Mulliken Net Atomic Charges

     Atom                 Charge (a.u.)    Spin (a.u.)
  --------------------------------------------------------
      1 S                     0.029246       0.380793
      2 S                    -0.248553       0.805207
      3 C                    -0.223128      -0.090921
      4 C                    -0.184871       0.991185
      5 C                    -0.307170       0.011130
      6 H                     0.154644       0.007767
      7 H                     0.117175      -0.043868
      8 H                     0.146326      -0.043624
      9 H                     0.126265       0.001385
     10 H                     0.115063      -0.001153
     11 H                     0.127130       0.003708
     12 H                     0.092033      -0.010619
     13 H                     0.055842      -0.010991
  --------------------------------------------------------
  Sum of atomic charges =     0.000000

                    Cartesian Multipole Moments
 -----------------------------------------------------------------
    Charge (ESU x 10^10)
                -0.0000
    Dipole Moment (Debye)
         X       2.9989      Y       0.8048      Z       0.0972
       Tot       3.1065
    Quadrupole Moments (Debye-Ang)
        XX     -52.2040     XY       0.7798     YY     -45.5061
        XZ       2.0025     YZ      -0.5186     ZZ     -46.4376

 Final energy is   -915.421250466555
 **  OPTIMIZATION CONVERGED  **
 Total job time:  70.09s(wall), 807.09s(cpu)
        *  Thank you very much for using Q-Chem.  Have a nice day.  *
