 Q-Chem 5.1, Q-Chem, Inc., Pleasanton, CA (2018)
 Q-Chem 5.1.1 for Intel X86 EM64T Linux

User input:
--------------------------------------------------------------

$comment
potential surface scanner
$end

$rem
JOBTYPE  PES_SCAN
UNRESTRICTED TRUE
SYM_IGNORE  TRUE
GEOM_OPT_MAX_CYCLES 400
SCF_MAX_CYCLES 400
METHOD   B3LYP
BASIS   6-31G**
PDB_PRINT 2
SCF_CONVERGENCE 6
THRESH 14
SCF_PRINT 1
$end
$molecule
0 1
S 0.669562 -1.701302 0.229914
S -2.439193 0.069730 -0.213379
C 0.524579 0.078571 -0.269928
C -0.665194 0.781811 0.374727
C 1.824720 0.847271 0.002217
H 0.356281 0.017218 -1.349357
H -0.649981 0.725176 1.464473
H -0.716843 1.828917 0.066660
H 1.750952 1.869703 -0.385134
H 2.029397 0.909854 1.076605
H 2.674003 0.355201 -0.477305
H 1.041068 -1.463341 1.504952
H -2.159651 -1.193811 0.164556
$end
$scan
stre 2 4 2.100000 2.101000 0.100000
$end
--------------------------------------------------------------

    9    -915.5197613084      7.36e-07  Convergence criterion met
 Total energy in the final basis set =     -915.5197613084
    9    -915.5117451213      8.21e-07  Convergence criterion met
 Total energy in the final basis set =     -915.5117451213
    9    -915.5117636192      8.22e-07  Convergence criterion met
 Total energy in the final basis set =     -915.5117636192
    9    -915.5118215148      8.23e-07  Convergence criterion met
 Total energy in the final basis set =     -915.5118215148
    9    -915.5118245655      8.24e-07  Convergence criterion met
 Total energy in the final basis set =     -915.5118245655

             Standard Nuclear Orientation (Angstroms)
    I     Atom           X                Y                Z
 ----------------------------------------------------------------
    1      S       0.6687111170    -1.6947456039     0.2374435648
    2      S      -2.4996055727     0.0413242344    -0.2297817288
    3      C       0.5304126196     0.0845755651    -0.2630292246
    4      C      -0.6413794896     0.7993733421     0.3885686126
    5      C       1.8381239745     0.8473752417    -0.0007933793
    6      H       0.3551131015     0.0253906895    -1.3412132418
    7      H      -0.6570653993     0.7272367681     1.4758124225
    8      H      -0.7181579452     1.8407127778     0.0715852698
    9      H       1.7682560398     1.8693988486    -0.3895727393
   10      H       2.0511548700     0.9098105889     1.0718773013
   11      H       2.6797335932     0.3479357995    -0.4862853637
   12      H       1.0498275710    -1.4580499102     1.5098067898
   13      H      -2.1854244797    -1.2153403416     0.1445827167
 ----------------------------------------------------------------

    9    -915.5118254613      8.24e-07  Convergence criterion met
 Total energy in the final basis set =     -915.5118254613

                    Orbital Energies (a.u.)
 --------------------------------------------------------------

 Alpha MOs
 -- Occupied --
-88.883 -88.872 -10.244 -10.242 -10.201  -7.946  -7.932  -5.911
 -5.907  -5.900  -5.897  -5.894  -5.887  -0.835  -0.732  -0.717
 -0.666  -0.592  -0.479  -0.456  -0.431  -0.417  -0.398  -0.378
 -0.364  -0.329  -0.309  -0.249  -0.236

 Beta MOs
 -- Occupied --
-88.883 -88.872 -10.244 -10.242 -10.201  -7.946  -7.932  -5.911
 -5.907  -5.900  -5.897  -5.894  -5.887  -0.835  -0.732  -0.717
 -0.666  -0.592  -0.479  -0.456  -0.431  -0.417  -0.398  -0.378
 -0.364  -0.329  -0.309  -0.249  -0.236

          Ground-State Mulliken Net Atomic Charges

     Atom                 Charge (a.u.)    Spin (a.u.)
  --------------------------------------------------------
      1 S                    -0.037101      -0.000000
      2 S                    -0.127323      -0.000000
      3 C                    -0.209468      -0.000000
      4 C                    -0.274409      -0.000000
      5 C                    -0.313141       0.000000
      6 H                     0.161736       0.000000
      7 H                     0.146878      -0.000000
      8 H                     0.146037       0.000000
      9 H                     0.116153      -0.000000
     10 H                     0.112173      -0.000000
     11 H                     0.135703      -0.000000
     12 H                     0.058165       0.000000
     13 H                     0.084597       0.000000
  --------------------------------------------------------
  Sum of atomic charges =    -0.000000

                    Cartesian Multipole Moments
 -----------------------------------------------------------------
    Charge (ESU x 10^10)
                 0.0000
    Dipole Moment (Debye)
         X       2.3140      Y       1.3299      Z       1.0520
       Tot       2.8688
    Quadrupole Moments (Debye-Ang)
        XX     -53.4229     XY       2.8127     YY     -47.2497
        XZ       0.2410     YZ      -1.3726     ZZ     -45.5669

 Final energy is   -915.511825461261
 **  OPTIMIZATION CONVERGED  **
 Total job time:  23.92s(wall), 274.77s(cpu)
        *  Thank you very much for using Q-Chem.  Have a nice day.  *
