 Q-Chem 5.1, Q-Chem, Inc., Pleasanton, CA (2018)
 Q-Chem 5.1.1 for Intel X86 EM64T Linux

User input:
--------------------------------------------------------------

$comment
potential surface scanner
$end

$rem
JOBTYPE  PES_SCAN
UNRESTRICTED TRUE
SYM_IGNORE  TRUE
GEOM_OPT_MAX_CYCLES 400
SCF_MAX_CYCLES 400
METHOD   B3LYP
BASIS   6-31G**
PDB_PRINT 2
SCF_CONVERGENCE 6
THRESH 14
SCF_PRINT 1
$end
$molecule
0 3
S 0.156281 -1.217255 -0.133049
S -3.861561 -1.894547 -0.292177
C 0.704339 0.613724 -0.209775
C -0.116466 1.419420 0.708764
C 2.210694 0.734079 0.019223
H 0.458269 0.844437 -1.251914
H 0.212409 1.582437 1.730960
H -1.138662 1.676265 0.454858
H 2.527350 1.770784 -0.141010
H 2.473933 0.458069 1.045689
H 2.769770 0.088262 -0.661611
H 0.387478 -1.385832 1.184737
H -2.544136 -1.564844 -0.265699
$end
$scan
stre 2 4 5.000000 5.001000 0.100000
$end
--------------------------------------------------------------

   35    -915.4175642847      7.21e-08  Convergence criterion met
 Total energy in the final basis set =     -915.4175642847
   33    -915.4175818972      7.03e-07  Convergence criterion met
 Total energy in the final basis set =     -915.4175818972
   35    -915.4175997359      6.34e-07  Convergence criterion met
 Total energy in the final basis set =     -915.4175997359
   33    -915.4176103192      4.22e-07  Convergence criterion met
 Total energy in the final basis set =     -915.4176103192
   34    -915.4176120318      7.12e-07  Convergence criterion met
 Total energy in the final basis set =     -915.4176120318
   11    -915.4175865941      9.83e-07  Convergence criterion met
 Total energy in the final basis set =     -915.4175865941
   11    -915.4176074798      7.56e-07  Convergence criterion met
 Total energy in the final basis set =     -915.4176074798
   10    -915.4176274853      8.38e-07  Convergence criterion met
 Total energy in the final basis set =     -915.4176274853
   10    -915.4176309221      8.16e-07  Convergence criterion met
 Total energy in the final basis set =     -915.4176309221
   10    -915.4176319713      8.14e-07  Convergence criterion met
 Total energy in the final basis set =     -915.4176319713

             Standard Nuclear Orientation (Angstroms)
    I     Atom           X                Y                Z
 ----------------------------------------------------------------
    1      S       0.1815940149    -1.2324925551    -0.1614009943
    2      S      -3.8596040649    -1.8075043544    -0.2446907575
    3      C       0.7089999813     0.6053516255    -0.2213122363
    4      C      -0.1356485521     1.3957504587     0.6887514172
    5      C       2.2102544000     0.7420149333     0.0302289927
    6      H       0.4754353649     0.8378826135    -1.2658982765
    7      H       0.1766158443     1.5596804745     1.7159744981
    8      H      -1.1570609936     1.6410288257     0.4206867002
    9      H       2.5149752649     1.7853197185    -0.1090814684
   10      H       2.4637249901     0.4527892858     1.0554252951
   11      H       2.7869628057     0.1149212260    -0.6533973019
   12      H       0.3967892363    -1.4049598282     1.1587015102
   13      H      -2.5233402920    -1.5647834237    -0.2249913786
 ----------------------------------------------------------------

   10    -915.4176324393      8.12e-07  Convergence criterion met
 Total energy in the final basis set =     -915.4176324393

                    Orbital Energies (a.u.)
 --------------------------------------------------------------

 Alpha MOs
 -- Occupied --
-88.892 -88.886 -10.243 -10.208 -10.195  -7.954  -7.948  -5.926
 -5.915  -5.913  -5.909  -5.907  -5.903  -0.827  -0.721  -0.715
 -0.697  -0.588  -0.481  -0.446  -0.432  -0.406  -0.394  -0.382
 -0.363  -0.346  -0.305  -0.259  -0.258  -0.213

 Beta MOs
 -- Occupied --
-88.887 -88.884 -10.244 -10.195 -10.195  -7.949  -7.947  -5.912
 -5.911  -5.908  -5.907  -5.903  -5.901  -0.820  -0.711  -0.680
 -0.676  -0.579  -0.476  -0.442  -0.426  -0.403  -0.382  -0.376
 -0.360  -0.333  -0.251  -0.243

          Ground-State Mulliken Net Atomic Charges

     Atom                 Charge (a.u.)    Spin (a.u.)
  --------------------------------------------------------
      1 S                    -0.062896       0.150212
      2 S                    -0.108305       1.027356
      3 C                    -0.218951      -0.086380
      4 C                    -0.196590       1.007439
      5 C                    -0.300851       0.006011
      6 H                     0.148325       0.013733
      7 H                     0.110722      -0.044429
      8 H                     0.121447      -0.043941
      9 H                     0.119189      -0.000539
     10 H                     0.111400      -0.000653
     11 H                     0.126414       0.001148
     12 H                     0.068911      -0.002783
     13 H                     0.081185      -0.027174
  --------------------------------------------------------
  Sum of atomic charges =     0.000000

                    Cartesian Multipole Moments
 -----------------------------------------------------------------
    Charge (ESU x 10^10)
                -0.0000
    Dipole Moment (Debye)
         X       2.4451      Y       1.7889      Z       0.8143
       Tot       3.1372
    Quadrupole Moments (Debye-Ang)
        XX     -55.7909     XY      -3.0009     YY     -51.2266
        XZ      -0.0674     YZ      -0.9726     ZZ     -44.3849

 Final energy is   -915.417632439333
 **  OPTIMIZATION CONVERGED  **
 Total job time:  71.72s(wall), 840.58s(cpu)
        *  Thank you very much for using Q-Chem.  Have a nice day.  *
