 Q-Chem 5.1, Q-Chem, Inc., Pleasanton, CA (2018)
 Q-Chem 5.1.1 for Intel X86 EM64T Linux

User input:
--------------------------------------------------------------

$comment
potential surface scanner
$end

$rem
JOBTYPE  PES_SCAN
UNRESTRICTED TRUE
SYM_IGNORE  TRUE
GEOM_OPT_MAX_CYCLES 400
SCF_MAX_CYCLES 400
METHOD   B3LYP
BASIS   6-31G**
PDB_PRINT 2
SCF_CONVERGENCE 6
THRESH 14
SCF_PRINT 1
$end
$molecule
0 3
S 0.129462 -1.191962 -0.132537
S -3.875552 -1.976850 -0.307892
C 0.706424 0.630196 -0.206594
C -0.098033 1.446609 0.716941
C 2.215316 0.726212 0.017771
H 0.460730 0.867532 -1.247329
H 0.236602 1.600415 1.738716
H -1.116930 1.720261 0.467395
H 2.547851 1.757714 -0.143633
H 2.476865 0.446260 1.043592
H 2.761850 0.071284 -0.664540
H 0.365193 -1.368624 1.183359
H -2.570080 -1.604047 -0.276252
$end
$scan
stre 2 4 5.100000 5.101000 0.100000
$end
--------------------------------------------------------------

   37    -915.4175084513      6.18e-07  Convergence criterion met
 Total energy in the final basis set =     -915.4175084513
   36    -915.4175345230      8.08e-07  Convergence criterion met
 Total energy in the final basis set =     -915.4175345230
   33    -915.4175535213      3.40e-07  Convergence criterion met
 Total energy in the final basis set =     -915.4175535213
   35    -915.4175633540      3.56e-07  Convergence criterion met
 Total energy in the final basis set =     -915.4175633540

             Standard Nuclear Orientation (Angstroms)
    I     Atom           X                Y                Z
 ----------------------------------------------------------------
    1      S       0.1562814189    -1.2172549064    -0.1330489605
    2      S      -3.8615614680    -1.8945468107    -0.2921767004
    3      C       0.7043394562     0.6137244679    -0.2097748520
    4      C      -0.1164660190     1.4194202124     0.7087643534
    5      C       2.2106943608     0.7340785915     0.0192227453
    6      H       0.4582693325     0.8444367758    -1.2519138920
    7      H       0.2124087117     1.5824370964     1.7309599273
    8      H      -1.1386617777     1.6762650655     0.4548582657
    9      H       2.5273495403     1.7707843008    -0.1410104000
   10      H       2.4739329418     0.4580688396     1.0456892858
   11      H       2.7697695488     0.0882618506    -0.6616107525
   12      H       0.3874782444    -1.3858318543     1.1847371030
   13      H      -2.5441362907    -1.5648436292    -0.2656991233
 ----------------------------------------------------------------

   35    -915.4175642844      7.20e-08  Convergence criterion met
 Total energy in the final basis set =     -915.4175642844

                    Orbital Energies (a.u.)
 --------------------------------------------------------------

 Alpha MOs
 -- Occupied --
-88.892 -88.885 -10.243 -10.209 -10.195  -7.954  -7.948  -5.925
 -5.915  -5.913  -5.909  -5.906  -5.903  -0.827  -0.721  -0.715
 -0.697  -0.588  -0.481  -0.446  -0.432  -0.407  -0.394  -0.382
 -0.363  -0.346  -0.305  -0.259  -0.257  -0.213

 Beta MOs
 -- Occupied --
-88.887 -88.884 -10.244 -10.195 -10.195  -7.949  -7.946  -5.912
 -5.911  -5.908  -5.907  -5.903  -5.901  -0.820  -0.711  -0.680
 -0.676  -0.579  -0.476  -0.442  -0.426  -0.403  -0.382  -0.376
 -0.360  -0.333  -0.251  -0.243

          Ground-State Mulliken Net Atomic Charges

     Atom                 Charge (a.u.)    Spin (a.u.)
  --------------------------------------------------------
      1 S                    -0.062984       0.150208
      2 S                    -0.108054       1.027339
      3 C                    -0.219192      -0.086414
      4 C                    -0.195701       1.007523
      5 C                    -0.300973       0.006018
      6 H                     0.148186       0.013693
      7 H                     0.110783      -0.044410
      8 H                     0.120160      -0.043957
      9 H                     0.119183      -0.000556
     10 H                     0.111363      -0.000649
     11 H                     0.126543       0.001175
     12 H                     0.069232      -0.002798
     13 H                     0.081453      -0.027172
  --------------------------------------------------------
  Sum of atomic charges =    -0.000000

                    Cartesian Multipole Moments
 -----------------------------------------------------------------
    Charge (ESU x 10^10)
                 0.0000
    Dipole Moment (Debye)
         X       2.4501      Y       1.8593      Z       0.8176
       Tot       3.1825
    Quadrupole Moments (Debye-Ang)
        XX     -55.7221     XY      -3.3007     YY     -51.1915
        XZ      -0.2537     YZ      -0.7736     ZZ     -44.6399

 Final energy is   -915.417564284360
 **  OPTIMIZATION CONVERGED  **
 Total job time:  50.55s(wall), 585.34s(cpu)
        *  Thank you very much for using Q-Chem.  Have a nice day.  *
