 Q-Chem 5.1, Q-Chem, Inc., Pleasanton, CA (2018)
 Q-Chem 5.1.1 for Intel X86 EM64T Linux

User input:
--------------------------------------------------------------

$comment
potential surface scanner
$end

$rem
JOBTYPE  PES_SCAN
UNRESTRICTED TRUE
SYM_IGNORE  TRUE
GEOM_OPT_MAX_CYCLES 400
SCF_MAX_CYCLES 400
METHOD   B3LYP
BASIS   6-31G**
PDB_PRINT 2
SCF_CONVERGENCE 6
THRESH 14
SCF_PRINT 1
$end
$molecule
0 3
S 0.685477 -1.658208 0.307255
S -2.810488 -0.100327 -0.315709
C 0.566459 0.109873 -0.219882
C -0.527864 0.873308 0.459959
C 1.906648 0.855738 -0.030101
H 0.348952 0.046904 -1.289735
H -0.681341 0.733237 1.525175
H -0.722321 1.877967 0.094448
H 1.843507 1.870109 -0.437723
H 2.172750 0.929948 1.029293
H 2.705940 0.319663 -0.547617
H 1.140161 -1.408089 1.552269
H -2.388181 -1.325123 0.061367
$end
$scan
stre 2 4 5.400000 5.401000 0.100000
$end
--------------------------------------------------------------

   17    -915.3946659349      5.04e-07  Convergence criterion met
 Total energy in the final basis set =     -915.3946659349
   20    -915.4001999752      8.41e-07  Convergence criterion met
 Total energy in the final basis set =     -915.4001999752
   22    -915.4036892054      6.04e-07  Convergence criterion met
 Total energy in the final basis set =     -915.4036892054
   29    -915.4061178767      1.64e-07  Convergence criterion met
 Total energy in the final basis set =     -915.4061178767
   44    -915.4078672820      8.16e-07  Convergence criterion met
 Total energy in the final basis set =     -915.4078672820
   39    -915.4091104057      2.91e-07  Convergence criterion met
 Total energy in the final basis set =     -915.4091104057
   11    -915.4101674909      7.95e-07  Convergence criterion met
 Total energy in the final basis set =     -915.4101674909
   36    -915.4110515726      9.91e-08  Convergence criterion met
   37    -915.4173544676      3.31e-07  Convergence criterion met
 Total energy in the final basis set =     -915.4173544676
   36    -915.4173577863      7.76e-07  Convergence criterion met
 Total energy in the final basis set =     -915.4173577863
   35    -915.4173625823      3.61e-07  Convergence criterion met
 Total energy in the final basis set =     -915.4173625823
   30    -915.4173569060      5.84e-07  Convergence criterion met
 Total energy in the final basis set =     -915.4173569060
   36    -915.4173670392      4.24e-07  Convergence criterion met
 Total energy in the final basis set =     -915.4173670392
   37    -915.4173684894      8.92e-07  Convergence criterion met
 Total energy in the final basis set =     -915.4173684894

             Standard Nuclear Orientation (Angstroms)
    I     Atom           X                Y                Z
 ----------------------------------------------------------------
    1      S       0.0711393404    -1.1355948890    -0.1390959789
    2      S      -3.8963142143    -2.1462658828    -0.3300102134
    3      C       0.7107781153     0.6670935854    -0.2025020171
    4      C      -0.0601124180     1.5029160754     0.7316061665
    5      C       2.2228009520     0.7079961245     0.0169749092
    6      H       0.4697068184     0.9210888257    -1.2402515862
    7      H       0.2818023937     1.6315800595     1.7545426861
    8      H      -1.0686784755     1.8169389181     0.4879204972
    9      H       2.5904627473     1.7272930928    -0.1452151285
   10      H       2.4764224862     0.4188912998     1.0423509747
   11      H       2.7435074508     0.0339710204    -0.6670023772
   12      H       0.3169289654    -1.3315628900     1.1719851587
   13      H      -2.6187451617    -1.6893453398    -0.2923040911
 ----------------------------------------------------------------

   38    -915.4173690053      6.00e-07  Convergence criterion met
 Total energy in the final basis set =     -915.4173690053

                    Orbital Energies (a.u.)
 --------------------------------------------------------------

 Alpha MOs
 -- Occupied --
-88.893 -88.885 -10.243 -10.208 -10.195  -7.954  -7.947  -5.926
 -5.915  -5.912  -5.909  -5.907  -5.902  -0.827  -0.721  -0.715
 -0.696  -0.588  -0.481  -0.446  -0.432  -0.406  -0.395  -0.381
 -0.363  -0.345  -0.305  -0.259  -0.258  -0.213

 Beta MOs
 -- Occupied --
-88.887 -88.884 -10.244 -10.195 -10.194  -7.949  -7.946  -5.912
 -5.910  -5.908  -5.907  -5.903  -5.901  -0.819  -0.711  -0.681
 -0.675  -0.579  -0.476  -0.442  -0.426  -0.403  -0.382  -0.376
 -0.360  -0.333  -0.251  -0.244

          Ground-State Mulliken Net Atomic Charges

     Atom                 Charge (a.u.)    Spin (a.u.)
  --------------------------------------------------------
      1 S                    -0.064749       0.151675
      2 S                    -0.106070       1.027394
      3 C                    -0.219016      -0.086596
      4 C                    -0.194307       1.006432
      5 C                    -0.300959       0.006031
      6 H                     0.147810       0.013423
      7 H                     0.110494      -0.044331
      8 H                     0.119018      -0.043862
      9 H                     0.119124      -0.000564
     10 H                     0.111197      -0.000647
     11 H                     0.126713       0.001233
     12 H                     0.068665      -0.002908
     13 H                     0.082078      -0.027281
  --------------------------------------------------------
  Sum of atomic charges =     0.000000

                    Cartesian Multipole Moments
 -----------------------------------------------------------------
    Charge (ESU x 10^10)
                -0.0000
    Dipole Moment (Debye)
         X       2.4497      Y       1.9517      Z       0.8324
       Tot       3.2408
    Quadrupole Moments (Debye-Ang)
        XX     -55.5119     XY      -3.9470     YY     -51.1778
        XZ      -0.5293     YZ      -0.7402     ZZ     -45.0627

 Final energy is   -915.417369005275
 **  OPTIMIZATION CONVERGED  **
 Total job time:  674.78s(wall), 7788.84s(cpu)
        *  Thank you very much for using Q-Chem.  Have a nice day.  *
