 Q-Chem 5.1, Q-Chem, Inc., Pleasanton, CA (2018)
 Q-Chem 5.1.1 for Intel X86 EM64T Linux

User input:
--------------------------------------------------------------

$comment
potential surface scanner
$end

$rem
JOBTYPE  PES_SCAN
UNRESTRICTED TRUE
SYM_IGNORE  TRUE
GEOM_OPT_MAX_CYCLES 400
SCF_MAX_CYCLES 400
METHOD   B3LYP
BASIS   6-31G**
PDB_PRINT 2
SCF_CONVERGENCE 6
THRESH 14
SCF_PRINT 1
$end
$molecule
0 1
S 0.653000 -1.655100 0.136100
S -2.273700 -0.042700 -0.103500
C 0.513800 0.101500 -0.361300
C -0.697000 0.778900 0.292500
C 1.803900 0.817400 0.036300
H 0.414100 0.130900 -1.452400
H -0.592400 0.804400 1.383200
H -0.770600 1.816900 -0.049700
H 1.768400 1.866200 -0.278900
H 1.962400 0.805000 1.120700
H 2.677400 0.363600 -0.445400
H 0.755100 -1.437500 1.455700
H -1.974700 -1.224500 0.455700
$end
$scan
stre 2 4 1.600000 1.601000 0.100000
$end
--------------------------------------------------------------

    9    -915.5220086792      2.35e-07  Convergence criterion met
 Total energy in the final basis set =     -915.5220086792
    9    -915.5114253112      4.32e-07  Convergence criterion met
 Total energy in the final basis set =     -915.5114253112
    9    -915.4978552276      4.91e-07  Convergence criterion met
 Total energy in the final basis set =     -915.4978552276
    9    -915.4988935690      5.11e-07  Convergence criterion met
 Total energy in the final basis set =     -915.4988935690
    9    -915.4996383827      5.33e-07  Convergence criterion met
 Total energy in the final basis set =     -915.4996383827
    9    -915.4997558053      5.36e-07  Convergence criterion met
 Total energy in the final basis set =     -915.4997558053
    9    -915.4998884362      5.37e-07  Convergence criterion met
 Total energy in the final basis set =     -915.4998884362
    9    -915.4999329397      5.36e-07  Convergence criterion met
    9    -915.5000663227      5.32e-07  Convergence criterion met
 Total energy in the final basis set =     -915.5000663227
    9    -915.5000719425      5.33e-07  Convergence criterion met
 Total energy in the final basis set =     -915.5000719425
    9    -915.5000758109      5.34e-07  Convergence criterion met
 Total energy in the final basis set =     -915.5000758109
    9    -915.5000787641      5.34e-07  Convergence criterion met
 Total energy in the final basis set =     -915.5000787641
    9    -915.5000810816      5.34e-07  Convergence criterion met
 Total energy in the final basis set =     -915.5000810816
    9    -915.5000827844      5.34e-07  Convergence criterion met
 Total energy in the final basis set =     -915.5000827844

             Standard Nuclear Orientation (Angstroms)
    I     Atom           X                Y                Z
 ----------------------------------------------------------------
    1      S       0.6742257589    -1.7276675785     0.1922780879
    2      S      -2.1998201414     0.1865523197    -0.1455055012
    3      C       0.5093927585     0.0525721146    -0.2992771015
    4      C      -0.7602656343     0.7076176285     0.3194394552
    5      C       1.7757698435     0.8477412025     0.0203053984
    6      H       0.3688853142    -0.0071955470    -1.3840126525
    7      H      -0.6086331794     0.7194462869     1.4119993532
    8      H      -0.7105395840     1.7699896704     0.0373465367
    9      H       1.6826822073     1.8741515352    -0.3537794396
   10      H       1.9468036750     0.9016005824     1.1013563731
   11      H       2.6556340535     0.3915418444    -0.4388991598
   12      H       1.0140953870    -1.4894123142     1.4764532953
   13      H      -2.1085304586    -1.1019377448     0.2512953548
 ----------------------------------------------------------------

    9    -915.5000836877      5.33e-07  Convergence criterion met
 Total energy in the final basis set =     -915.5000836877

                    Orbital Energies (a.u.)
 --------------------------------------------------------------

 Alpha MOs
 -- Occupied --
-88.880 -88.866 -10.236 -10.217 -10.195  -7.942  -7.934  -5.907
 -5.903  -5.899  -5.897  -5.894  -5.888  -0.857  -0.787  -0.713
 -0.647  -0.589  -0.494  -0.453  -0.435  -0.429  -0.402  -0.386
 -0.360  -0.334  -0.314  -0.248  -0.231

 Beta MOs
 -- Occupied --
-88.880 -88.866 -10.236 -10.217 -10.195  -7.942  -7.934  -5.907
 -5.903  -5.899  -5.897  -5.894  -5.888  -0.857  -0.787  -0.713
 -0.647  -0.589  -0.494  -0.453  -0.435  -0.429  -0.402  -0.386
 -0.360  -0.334  -0.314  -0.248  -0.231

          Ground-State Mulliken Net Atomic Charges

     Atom                 Charge (a.u.)    Spin (a.u.)
  --------------------------------------------------------
      1 S                    -0.050387      -0.000000
      2 S                    -0.019243       0.000000
      3 C                    -0.217850      -0.000000
      4 C                    -0.302796       0.000000
      5 C                    -0.311609       0.000000
      6 H                     0.150002       0.000000
      7 H                     0.124039      -0.000000
      8 H                     0.141928      -0.000000
      9 H                     0.111984       0.000000
     10 H                     0.110090      -0.000000
     11 H                     0.131201      -0.000000
     12 H                     0.058063       0.000000
     13 H                     0.074577      -0.000000
  --------------------------------------------------------
  Sum of atomic charges =     0.000000

                    Cartesian Multipole Moments
 -----------------------------------------------------------------
    Charge (ESU x 10^10)
                 0.0000
    Dipole Moment (Debye)
         X       1.5689      Y       1.2801      Z       0.9830
       Tot       2.2509
    Quadrupole Moments (Debye-Ang)
        XX     -51.6823     XY       2.9856     YY     -47.8326
        XZ       0.1237     YZ      -1.6058     ZZ     -45.3911

 Final energy is   -915.500083687737
 **  OPTIMIZATION CONVERGED  **
 Total job time:  72.19s(wall), 833.24s(cpu)
        *  Thank you very much for using Q-Chem.  Have a nice day.  *
