 Q-Chem 5.1, Q-Chem, Inc., Pleasanton, CA (2018)
 Q-Chem 5.1.1 for Intel X86 EM64T Linux

User input:
--------------------------------------------------------------

$comment
potential surface scanner
$end

$rem
JOBTYPE  PES_SCAN
UNRESTRICTED TRUE
SYM_IGNORE  TRUE
GEOM_OPT_MAX_CYCLES 400
SCF_MAX_CYCLES 400
METHOD   B3LYP
BASIS   6-31G**
PDB_PRINT 2
SCF_CONVERGENCE 6
THRESH 14
SCF_PRINT 1
$end
$molecule
0 3
S 0.282691 -1.360457 -0.334771
S -2.468294 -0.726634 0.387307
C 0.671783 0.528648 -0.343364
C -0.372751 1.277918 0.365604
C 2.087310 0.740952 0.195216
H 0.635849 0.727892 -1.418307
H -0.338370 1.369399 1.446251
H -1.229216 1.678103 -0.158970
H 2.370701 1.792048 0.075347
H 2.140405 0.501486 1.262618
H 2.814875 0.121179 -0.334856
H 0.503805 -1.545058 0.981873
H -2.859087 -1.980478 0.065049
$end
$scan
stre 2 4 2.800000 2.801000 0.100000
$end
--------------------------------------------------------------

   11    -915.4186833410      5.37e-07  Convergence criterion met
 Total energy in the final basis set =     -915.4186833410
   11    -915.4166127681      5.43e-07  Convergence criterion met
 Total energy in the final basis set =     -915.4166127681
   11    -915.4166991556      5.42e-07  Convergence criterion met
 Total energy in the final basis set =     -915.4166991556
   11    -915.4167369761      5.38e-07  Convergence criterion met
 Total energy in the final basis set =     -915.4167369761
   11    -915.4167546584      5.34e-07  Convergence criterion met
 Total energy in the final basis set =     -915.4167546584
   11    -915.4167759222      5.28e-07  Convergence criterion met
 Total energy in the final basis set =     -915.4167759222
   11    -915.4167881383      5.26e-07  Convergence criterion met
 Total energy in the final basis set =     -915.4167881383
   11    -915.4167968409      5.26e-07  Convergence criterion met
 Total energy in the final basis set =     -915.4167968409
   11    -915.4168016586      5.27e-07  Convergence criterion met
 Total energy in the final basis set =     -915.4168016586
   11    -915.4168042342      5.28e-07  Convergence criterion met
 Total energy in the final basis set =     -915.4168042342
   11    -915.4168053976      5.29e-07  Convergence criterion met
 Total energy in the final basis set =     -915.4168053976

             Standard Nuclear Orientation (Angstroms)
    I     Atom           X                Y                Z
 ----------------------------------------------------------------
    1      S       0.2999972673    -1.3777887446    -0.3551461290
    2      S      -2.4087034451    -0.6897208817     0.3877996733
    3      C       0.6643498031     0.5166151956    -0.3487795034
    4      C      -0.3933580652     1.2538098467     0.3550468736
    5      C       2.0729125242     0.7413211176     0.2039297333
    6      H       0.6371418537     0.7235729892    -1.4223668093
    7      H      -0.3736172888     1.3345096619     1.4365610483
    8      H      -1.2146445739     1.7071714391    -0.1821916788
    9      H       2.3465749977     1.7957798914     0.0917854201
   10      H       2.1189857215     0.4970767185     1.2706061505
   11      H       2.8114257630     0.1314290826    -0.3227583355
   12      H       0.5441843397    -1.5735685437     0.9558023449
   13      H      -2.8655478972    -1.9352097725     0.1187082122
 ----------------------------------------------------------------

   11    -915.4168061056      5.29e-07  Convergence criterion met
 Total energy in the final basis set =     -915.4168061056

                    Orbital Energies (a.u.)
 --------------------------------------------------------------

 Alpha MOs
 -- Occupied --
-88.907 -88.854 -10.249 -10.208 -10.202  -7.969  -7.915  -5.933
 -5.929  -5.927  -5.883  -5.877  -5.868  -0.835  -0.733  -0.705
 -0.683  -0.592  -0.486  -0.453  -0.434  -0.418  -0.392  -0.379
 -0.366  -0.345  -0.310  -0.228  -0.222  -0.209

 Beta MOs
 -- Occupied --
-88.905 -88.849 -10.250 -10.202 -10.195  -7.966  -7.910  -5.930
 -5.926  -5.921  -5.874  -5.868  -5.865  -0.826  -0.720  -0.682
 -0.653  -0.582  -0.481  -0.448  -0.428  -0.413  -0.385  -0.367
 -0.360  -0.334  -0.270  -0.216

          Ground-State Mulliken Net Atomic Charges

     Atom                 Charge (a.u.)    Spin (a.u.)
  --------------------------------------------------------
      1 S                     0.030629       0.392207
      2 S                    -0.250556       0.784853
      3 C                    -0.218595      -0.085307
      4 C                    -0.191874       0.973864
      5 C                    -0.309428       0.012525
      6 H                     0.153181       0.004851
      7 H                     0.126324      -0.043195
      8 H                     0.148362      -0.042615
      9 H                     0.126644       0.000610
     10 H                     0.116019      -0.001166
     11 H                     0.126896       0.005795
     12 H                     0.092779      -0.011261
     13 H                     0.049620       0.008839
  --------------------------------------------------------
  Sum of atomic charges =    -0.000000

                    Cartesian Multipole Moments
 -----------------------------------------------------------------
    Charge (ESU x 10^10)
                -0.0000
    Dipole Moment (Debye)
         X       2.8916      Y       0.7894      Z       0.1214
       Tot       2.9999
    Quadrupole Moments (Debye-Ang)
        XX     -51.2621     XY       0.8672     YY     -45.1209
        XZ       1.7582     YZ      -1.3359     ZZ     -46.9556

 Final energy is   -915.416806105563
 **  OPTIMIZATION CONVERGED  **
 Total job time:  52.91s(wall), 612.00s(cpu)
        *  Thank you very much for using Q-Chem.  Have a nice day.  *
