 Q-Chem 5.1, Q-Chem, Inc., Pleasanton, CA (2018)
 Q-Chem 5.1.1 for Intel X86 EM64T Linux

User input:
--------------------------------------------------------------

$comment
potential surface scanner
$end

$rem
JOBTYPE  PES_SCAN
UNRESTRICTED TRUE
SYM_IGNORE  TRUE
GEOM_OPT_MAX_CYCLES 400
SCF_MAX_CYCLES 400
METHOD   B3LYP
BASIS   6-31G**
PDB_PRINT 2
SCF_CONVERGENCE 6
THRESH 14
SCF_PRINT 1
$end
$molecule
0 3
S 0.213959 -1.330773 0.030129
S -2.740967 -1.075980 0.238705
C 0.655354 0.522835 -0.234195
C -0.259780 1.374647 0.535592
C 2.138198 0.740155 0.067940
H 0.460537 0.609433 -1.308071
H 0.004804 1.676268 1.545035
H -1.271123 1.550092 0.191304
H 2.416774 1.768758 -0.186552
H 2.347979 0.589409 1.131967
H 2.768959 0.057162 -0.505768
H 0.263979 -1.305225 1.376000
H -2.758970 -2.051782 -0.693088
$end
$scan
stre 2 4 3.400000 3.401000 0.100000
$end
--------------------------------------------------------------

   11    -915.4235941436      3.58e-07  Convergence criterion met
 Total energy in the final basis set =     -915.4235941436
   11    -915.4225116842      3.73e-07  Convergence criterion met
 Total energy in the final basis set =     -915.4225116842
   11    -915.4230487451      3.69e-07  Convergence criterion met
 Total energy in the final basis set =     -915.4230487451
   11    -915.4232268368      3.70e-07  Convergence criterion met
 Total energy in the final basis set =     -915.4232268368
   11    -915.4232374482      3.71e-07  Convergence criterion met
 Total energy in the final basis set =     -915.4232374482
   11    -915.4232445504      3.72e-07  Convergence criterion met
 Total energy in the final basis set =     -915.4232445504
   11    -915.4232471808      3.73e-07  Convergence criterion met
 Total energy in the final basis set =     -915.4232471808
   11    -915.4232495142      3.74e-07  Convergence criterion met
   11    -915.4232758858      3.65e-07  Convergence criterion met
 Total energy in the final basis set =     -915.4232758858
   11    -915.4232781552      3.65e-07  Convergence criterion met
 Total energy in the final basis set =     -915.4232781552
   11    -915.4232802540      3.65e-07  Convergence criterion met
 Total energy in the final basis set =     -915.4232802540
   11    -915.4232831622      3.65e-07  Convergence criterion met
 Total energy in the final basis set =     -915.4232831622
   11    -915.4232860976      3.66e-07  Convergence criterion met
 Total energy in the final basis set =     -915.4232860976
   11    -915.4232876206      3.66e-07  Convergence criterion met
 Total energy in the final basis set =     -915.4232876206

             Standard Nuclear Orientation (Angstroms)
    I     Atom           X                Y                Z
 ----------------------------------------------------------------
    1      S       0.2240661416    -1.3353101338    -0.0161742119
    2      S      -2.7136981311    -0.9869180207     0.2111518570
    3      C       0.6587993474     0.5243592677    -0.2480807667
    4      C      -0.2724008888     1.3591877063     0.5207576183
    5      C       2.1355751504     0.7433494906     0.0821210061
    6      H       0.4808367935     0.6267301500    -1.3232070386
    7      H      -0.0396272706     1.6194265027     1.5493595154
    8      H      -1.2655573196     1.5703157492     0.1459145715
    9      H       2.4145031435     1.7758283157    -0.1554860152
   10      H       2.3271141801     0.5814053774     1.1478655812
   11      H       2.7784579343     0.0690744404    -0.4885186593
   12      H       0.2927308959    -1.3345888746     1.3291908053
   13      H      -2.7810969769    -2.0878609710    -0.5658962629
 ----------------------------------------------------------------

   11    -915.4232880584      3.65e-07  Convergence criterion met
 Total energy in the final basis set =     -915.4232880584

                    Orbital Energies (a.u.)
 --------------------------------------------------------------

 Alpha MOs
 -- Occupied --
-88.907 -88.859 -10.249 -10.210 -10.201  -7.968  -7.919  -5.933
 -5.929  -5.926  -5.888  -5.882  -5.873  -0.835  -0.733  -0.701
 -0.688  -0.593  -0.485  -0.454  -0.436  -0.414  -0.388  -0.375
 -0.367  -0.354  -0.311  -0.231  -0.223  -0.220

 Beta MOs
 -- Occupied --
-88.904 -88.854 -10.250 -10.201 -10.197  -7.966  -7.915  -5.930
 -5.926  -5.920  -5.879  -5.873  -5.870  -0.826  -0.720  -0.680
 -0.657  -0.583  -0.480  -0.449  -0.430  -0.409  -0.382  -0.367
 -0.360  -0.340  -0.270  -0.219

          Ground-State Mulliken Net Atomic Charges

     Atom                 Charge (a.u.)    Spin (a.u.)
  --------------------------------------------------------
      1 S                     0.027624       0.370578
      2 S                    -0.244338       0.815093
      3 C                    -0.224401      -0.093708
      4 C                    -0.189654       0.999054
      5 C                    -0.304829       0.009977
      6 H                     0.156266       0.011917
      7 H                     0.112682      -0.044111
      8 H                     0.147582      -0.043938
      9 H                     0.125115       0.002238
     10 H                     0.114852      -0.001058
     11 H                     0.126634       0.002052
     12 H                     0.091642      -0.009846
     13 H                     0.060825      -0.018248
  --------------------------------------------------------
  Sum of atomic charges =    -0.000000

                    Cartesian Multipole Moments
 -----------------------------------------------------------------
    Charge (ESU x 10^10)
                -0.0000
    Dipole Moment (Debye)
         X       3.0434      Y       1.0217      Z       0.0028
       Tot       3.2104
    Quadrupole Moments (Debye-Ang)
        XX     -53.1455     XY       0.1068     YY     -46.6902
        XZ       2.4101     YZ       0.8379     ZZ     -45.2935

 Final energy is   -915.423288058383
 **  OPTIMIZATION CONVERGED  **
 Total job time:  99.51s(wall), 1152.01s(cpu)
        *  Thank you very much for using Q-Chem.  Have a nice day.  *
