 Q-Chem 5.1, Q-Chem, Inc., Pleasanton, CA (2018)
 Q-Chem 5.1.1 for Intel X86 EM64T Linux

User input:
--------------------------------------------------------------

$comment
potential surface scanner
$end

$rem
JOBTYPE  PES_SCAN
UNRESTRICTED TRUE
SYM_IGNORE  TRUE
GEOM_OPT_MAX_CYCLES 400
SCF_MAX_CYCLES 400
METHOD   B3LYP
BASIS   6-31G**
PDB_PRINT 2
SCF_CONVERGENCE 6
THRESH 14
SCF_PRINT 1
$end
$molecule
0 3
S 0.202751 -1.328434 0.104364
S -2.763124 -1.156215 0.204825
C 0.645016 0.518024 -0.208989
C -0.244495 1.390358 0.567415
C 2.137027 0.734591 0.042390
H 0.417241 0.582070 -1.278123
H 0.055943 1.726931 1.555545
H -1.269758 1.546792 0.256572
H 2.411486 1.757034 -0.240084
H 2.380663 0.602247 1.101724
H 2.746795 0.038555 -0.538222
H 0.224781 -1.265162 1.449705
H -2.704623 -2.021793 -0.828124
$end
$scan
stre 2 4 3.500000 3.501000 0.100000
$end
--------------------------------------------------------------

   11    -915.4237706317      3.63e-07  Convergence criterion met
 Total energy in the final basis set =     -915.4237706317
   11    -915.4227932645      3.97e-07  Convergence criterion met
 Total energy in the final basis set =     -915.4227932645
   11    -915.4233505275      3.90e-07  Convergence criterion met
 Total energy in the final basis set =     -915.4233505275
   11    -915.4235389760      3.88e-07  Convergence criterion met
 Total energy in the final basis set =     -915.4235389760
   11    -915.4235503184      3.88e-07  Convergence criterion met
 Total energy in the final basis set =     -915.4235503184
   11    -915.4235579624      3.89e-07  Convergence criterion met
 Total energy in the final basis set =     -915.4235579624
   11    -915.4235610293      3.90e-07  Convergence criterion met
 Total energy in the final basis set =     -915.4235610293
   11    -915.4235636921      3.91e-07  Convergence criterion met
   11    -915.4235870096      3.60e-07  Convergence criterion met
 Total energy in the final basis set =     -915.4235870096
   11    -915.4235882895      3.60e-07  Convergence criterion met
 Total energy in the final basis set =     -915.4235882895
   11    -915.4235894271      3.60e-07  Convergence criterion met
 Total energy in the final basis set =     -915.4235894271
   11    -915.4235910236      3.60e-07  Convergence criterion met
 Total energy in the final basis set =     -915.4235910236
   11    -915.4235927201      3.59e-07  Convergence criterion met
 Total energy in the final basis set =     -915.4235927201
   11    -915.4235937586      3.59e-07  Convergence criterion met
 Total energy in the final basis set =     -915.4235937586

             Standard Nuclear Orientation (Angstroms)
    I     Atom           X                Y                Z
 ----------------------------------------------------------------
    1      S       0.2139585359    -1.3307733077     0.0301286110
    2      S      -2.7409668127    -1.0759798933     0.2387048156
    3      C       0.6553543788     0.5228349017    -0.2341946495
    4      C      -0.2597803079     1.3746468620     0.5355920912
    5      C       2.1381978524     0.7401552707     0.0679403998
    6      H       0.4605371259     0.6094328864    -1.3080707375
    7      H       0.0048042884     1.6762675843     1.5450349582
    8      H      -1.2711230501     1.5500922774     0.1913037053
    9      H       2.4167739289     1.7687576473    -0.1865519859
   10      H       2.3479790425     0.5894088914     1.1319666922
   11      H       2.7689592896     0.0571618641    -0.5057681379
   12      H       0.2639789330    -1.3052250756     1.3759999547
   13      H      -2.7589702048    -2.0517819084    -0.6930877172
 ----------------------------------------------------------------

   11    -915.4235941425      3.58e-07  Convergence criterion met
 Total energy in the final basis set =     -915.4235941425

                    Orbital Energies (a.u.)
 --------------------------------------------------------------

 Alpha MOs
 -- Occupied --
-88.907 -88.859 -10.249 -10.210 -10.201  -7.968  -7.920  -5.932
 -5.929  -5.926  -5.889  -5.882  -5.873  -0.835  -0.733  -0.701
 -0.688  -0.593  -0.485  -0.454  -0.437  -0.414  -0.387  -0.374
 -0.368  -0.355  -0.311  -0.232  -0.224  -0.219

 Beta MOs
 -- Occupied --
-88.904 -88.854 -10.250 -10.200 -10.197  -7.966  -7.915  -5.930
 -5.926  -5.920  -5.880  -5.873  -5.871  -0.826  -0.720  -0.680
 -0.657  -0.583  -0.479  -0.449  -0.430  -0.409  -0.381  -0.366
 -0.360  -0.341  -0.270  -0.220

          Ground-State Mulliken Net Atomic Charges

     Atom                 Charge (a.u.)    Spin (a.u.)
  --------------------------------------------------------
      1 S                     0.027332       0.366976
      2 S                    -0.242207       0.816922
      3 C                    -0.224883      -0.093658
      4 C                    -0.191714       1.000504
      5 C                    -0.304759       0.009660
      6 H                     0.155892       0.013511
      7 H                     0.112251      -0.044183
      8 H                     0.148254      -0.043762
      9 H                     0.124784       0.002541
     10 H                     0.115082      -0.001020
     11 H                     0.126447       0.001535
     12 H                     0.091669      -0.009603
     13 H                     0.061852      -0.019424
  --------------------------------------------------------
  Sum of atomic charges =    -0.000000

                    Cartesian Multipole Moments
 -----------------------------------------------------------------
    Charge (ESU x 10^10)
                -0.0000
    Dipole Moment (Debye)
         X       3.0454      Y       1.1718      Z      -0.1141
       Tot       3.2650
    Quadrupole Moments (Debye-Ang)
        XX     -53.3314     XY      -0.3452     YY     -47.4834
        XZ       2.7318     YZ       1.2895     ZZ     -44.7856

 Final energy is   -915.423594142457
 **  OPTIMIZATION CONVERGED  **
 Total job time:  100.57s(wall), 1164.06s(cpu)
        *  Thank you very much for using Q-Chem.  Have a nice day.  *
