 Q-Chem 5.1, Q-Chem, Inc., Pleasanton, CA (2018)
 Q-Chem 5.1.1 for Intel X86 EM64T Linux

User input:
--------------------------------------------------------------

$comment
potential surface scanner
$end

$rem
JOBTYPE  PES_SCAN
UNRESTRICTED TRUE
SYM_IGNORE  TRUE
GEOM_OPT_MAX_CYCLES 400
SCF_MAX_CYCLES 400
METHOD   B3LYP
BASIS   6-31G**
PDB_PRINT 2
SCF_CONVERGENCE 6
THRESH 14
SCF_PRINT 1
$end
$molecule
0 1
S 0.653000 -1.655100 0.136100
S -2.273700 -0.042700 -0.103500
C 0.513800 0.101500 -0.361300
C -0.697000 0.778900 0.292500
C 1.803900 0.817400 0.036300
H 0.414100 0.130900 -1.452400
H -0.592400 0.804400 1.383200
H -0.770600 1.816900 -0.049700
H 1.768400 1.866200 -0.278900
H 1.962400 0.805000 1.120700
H 2.677400 0.363600 -0.445400
H 0.755100 -1.437500 1.455700
H -1.974700 -1.224500 0.455700
$end
$scan
stre 2 4 1.500000 1.501000 0.100000
$end
--------------------------------------------------------------

    9    -915.5220086792      2.35e-07  Convergence criterion met
 Total energy in the final basis set =     -915.5220086792
    9    -915.5114253112      4.32e-07  Convergence criterion met
 Total energy in the final basis set =     -915.5114253112
    9    -915.4733460872      5.12e-07  Convergence criterion met
 Total energy in the final basis set =     -915.4733460872
    9    -915.4604682414      5.44e-07  Convergence criterion met
 Total energy in the final basis set =     -915.4604682414
    9    -915.4614490971      5.65e-07  Convergence criterion met
 Total energy in the final basis set =     -915.4614490971
    9    -915.4617630285      5.75e-07  Convergence criterion met
 Total energy in the final basis set =     -915.4617630285
    9    -915.4618593808      5.76e-07  Convergence criterion met
 Total energy in the final basis set =     -915.4618593808
    9    -915.4619234680      5.75e-07  Convergence criterion met
    9    -915.4620418282      5.69e-07  Convergence criterion met
 Total energy in the final basis set =     -915.4620418282
    9    -915.4620507740      5.70e-07  Convergence criterion met
 Total energy in the final basis set =     -915.4620507740
    9    -915.4620554547      5.70e-07  Convergence criterion met
 Total energy in the final basis set =     -915.4620554547
    9    -915.4620583255      5.71e-07  Convergence criterion met
 Total energy in the final basis set =     -915.4620583255
    9    -915.4620602970      5.71e-07  Convergence criterion met
 Total energy in the final basis set =     -915.4620602970
    9    -915.4620617169      5.71e-07  Convergence criterion met
 Total energy in the final basis set =     -915.4620617169

             Standard Nuclear Orientation (Angstroms)
    I     Atom           X                Y                Z
 ----------------------------------------------------------------
    1      S       0.6740352943    -1.7340627813     0.1752602685
    2      S      -2.1416439477     0.2093621173    -0.1205668804
    3      C       0.5078726007     0.0466263564    -0.3091361775
    4      C      -0.7860795876     0.6907656346     0.3045173409
    5      C       1.7647303796     0.8476706167     0.0277982839
    6      H       0.3745827569    -0.0077301704    -1.3954856843
    7      H      -0.5906171885     0.7288012211     1.3957594839
    8      H      -0.7125568162     1.7528525567     0.0183073281
    9      H       1.6683269579     1.8764417875    -0.3396207564
   10      H       1.9246478677     0.8951744506     1.1109366215
   11      H       2.6526481381     0.4015956522    -0.4256694877
   12      H       1.0016325041    -1.5002929806     1.4636592414
   13      H      -2.0978789594    -1.0822044607     0.2832404182
 ----------------------------------------------------------------

    9    -915.4620626614      5.71e-07  Convergence criterion met
 Total energy in the final basis set =     -915.4620626614

                    Orbital Energies (a.u.)
 --------------------------------------------------------------

 Alpha MOs
 -- Occupied --
-88.879 -88.861 -10.235 -10.212 -10.194  -7.942  -7.933  -5.907
 -5.903  -5.898  -5.897  -5.893  -5.887  -0.876  -0.795  -0.713
 -0.643  -0.589  -0.503  -0.455  -0.439  -0.431  -0.405  -0.389
 -0.360  -0.334  -0.309  -0.249  -0.226

 Beta MOs
 -- Occupied --
-88.879 -88.861 -10.235 -10.212 -10.194  -7.942  -7.933  -5.907
 -5.903  -5.898  -5.897  -5.893  -5.887  -0.876  -0.795  -0.713
 -0.643  -0.589  -0.503  -0.455  -0.439  -0.431  -0.405  -0.389
 -0.360  -0.334  -0.309  -0.249  -0.226

          Ground-State Mulliken Net Atomic Charges

     Atom                 Charge (a.u.)    Spin (a.u.)
  --------------------------------------------------------
      1 S                    -0.051786       0.000000
      2 S                    -0.016658       0.000000
      3 C                    -0.223191      -0.000000
      4 C                    -0.282231      -0.000000
      5 C                    -0.312079      -0.000000
      6 H                     0.147668       0.000000
      7 H                     0.115128      -0.000000
      8 H                     0.144433      -0.000000
      9 H                     0.111001      -0.000000
     10 H                     0.110311       0.000000
     11 H                     0.131072       0.000000
     12 H                     0.057918       0.000000
     13 H                     0.068413       0.000000
  --------------------------------------------------------
  Sum of atomic charges =     0.000000

                    Cartesian Multipole Moments
 -----------------------------------------------------------------
    Charge (ESU x 10^10)
                -0.0000
    Dipole Moment (Debye)
         X       1.4958      Y       1.3348      Z       0.9727
       Tot       2.2283
    Quadrupole Moments (Debye-Ang)
        XX     -51.5329     XY       2.8974     YY     -47.8243
        XZ       0.0563     YZ      -1.6913     ZZ     -45.3272

 Final energy is   -915.462062661411
 **  OPTIMIZATION CONVERGED  **
 Total job time:  81.87s(wall), 834.18s(cpu)
        *  Thank you very much for using Q-Chem.  Have a nice day.  *
