 Q-Chem 5.1, Q-Chem, Inc., Pleasanton, CA (2018)
 Q-Chem 5.1.1 for Intel X86 EM64T Linux

User input:
--------------------------------------------------------------

$comment
potential surface scanner
$end

$rem
JOBTYPE  PES_SCAN
UNRESTRICTED TRUE
SYM_IGNORE  TRUE
GEOM_OPT_MAX_CYCLES 400
SCF_MAX_CYCLES 400
METHOD   B3LYP
BASIS   6-31G**
PDB_PRINT 2
SCF_CONVERGENCE 6
THRESH 14
SCF_PRINT 1
$end
$molecule
0 3
S 0.507528 -1.580147 -0.113562
S -2.090364 -0.498338 0.321112
C 0.592763 0.304891 -0.286416
C -0.556311 0.929789 0.452013
C 1.977502 0.816238 0.112459
H 0.445115 0.420736 -1.365109
H -0.406419 1.019828 1.530264
H -0.937387 1.849536 0.010709
H 2.042700 1.893071 -0.078107
H 2.162082 0.656040 1.180080
H 2.769785 0.316686 -0.453694
H 0.749020 -1.622635 1.213076
H -3.016313 -1.380700 -0.333827
$end
$scan
stre 2 4 2.000000 2.001000 0.100000
$end
--------------------------------------------------------------

   11    -915.3915807555      5.97e-07  Convergence criterion met
 Total energy in the final basis set =     -915.3915807555
   11    -915.3861203758      5.50e-07  Convergence criterion met
 Total energy in the final basis set =     -915.3861203758
   11    -915.3864798541      5.46e-07  Convergence criterion met
 Total energy in the final basis set =     -915.3864798541
   11    -915.3868781461      5.49e-07  Convergence criterion met
 Total energy in the final basis set =     -915.3868781461
   11    -915.3869096051      5.51e-07  Convergence criterion met
 Total energy in the final basis set =     -915.3869096051
   11    -915.3869183088      5.51e-07  Convergence criterion met
 Total energy in the final basis set =     -915.3869183088
   11    -915.3869314351      5.52e-07  Convergence criterion met
 Total energy in the final basis set =     -915.3869314351
   11    -915.3869370515      5.53e-07  Convergence criterion met
 Total energy in the final basis set =     -915.3869370515
   11    -915.3869460602      5.55e-07  Convergence criterion met
 Total energy in the final basis set =     -915.3869460602
   11    -915.3869496127      5.57e-07  Convergence criterion met
 Total energy in the final basis set =     -915.3869496127
   11    -915.3869515909      5.57e-07  Convergence criterion met
 Total energy in the final basis set =     -915.3869515909

             Standard Nuclear Orientation (Angstroms)
    I     Atom           X                Y                Z
 ----------------------------------------------------------------
    1      S       0.5462433413    -1.6020868551    -0.0685396995
    2      S      -2.0692967378    -0.4383438494     0.2914892507
    3      C       0.5955616825     0.2700637090    -0.2763690789
    4      C      -0.5703755552     0.8735346560     0.4709613463
    5      C       1.9662142943     0.8333767700     0.0946881366
    6      H       0.4268952041     0.3680483705    -1.3540545964
    7      H      -0.3911995811     0.9555123925     1.5475404242
    8      H      -0.8990293698     1.8302253697     0.0606884299
    9      H       1.9943549072     1.9089918076    -0.1123910070
   10      H       2.1730246930     0.6945097444     1.1611765470
   11      H       2.7654618963     0.3516334514    -0.4766354368
   12      H       0.7677161573    -1.6124833352     1.2626459919
   13      H      -3.0658699321    -1.3079872314    -0.4122023081
 ----------------------------------------------------------------

   11    -915.3869525812      5.56e-07  Convergence criterion met
 Total energy in the final basis set =     -915.3869525812

                    Orbital Energies (a.u.)
 --------------------------------------------------------------

 Alpha MOs
 -- Occupied --
-88.905 -88.886 -10.244 -10.204 -10.199  -7.967  -7.944  -5.931
 -5.927  -5.925  -5.911  -5.906  -5.898  -0.839  -0.736  -0.729
 -0.666  -0.590  -0.477  -0.458  -0.439  -0.414  -0.411  -0.385
 -0.361  -0.337  -0.305  -0.258  -0.237  -0.164

 Beta MOs
 -- Occupied --
-88.904 -88.880 -10.244 -10.198 -10.195  -7.965  -7.937  -5.930
 -5.926  -5.920  -5.904  -5.895  -5.893  -0.832  -0.722  -0.710
 -0.637  -0.581  -0.473  -0.448  -0.430  -0.409  -0.401  -0.365
 -0.357  -0.330  -0.266  -0.234

          Ground-State Mulliken Net Atomic Charges

     Atom                 Charge (a.u.)    Spin (a.u.)
  --------------------------------------------------------
      1 S                     0.030838       0.246423
      2 S                    -0.009202       0.917038
      3 C                    -0.208963      -0.021542
      4 C                    -0.323381       0.480768
      5 C                    -0.302937       0.004585
      6 H                     0.152289       0.002007
      7 H                     0.125884      -0.003253
      8 H                     0.132596      -0.018118
      9 H                     0.120798       0.000868
     10 H                     0.112430       0.000220
     11 H                     0.124388       0.009162
     12 H                     0.083094      -0.007068
     13 H                    -0.037835       0.388912
  --------------------------------------------------------
  Sum of atomic charges =    -0.000000

                    Cartesian Multipole Moments
 -----------------------------------------------------------------
    Charge (ESU x 10^10)
                 0.0000
    Dipole Moment (Debye)
         X       2.5010      Y       1.4875      Z       0.2430
       Tot       2.9201
    Quadrupole Moments (Debye-Ang)
        XX     -51.4576     XY      -1.1234     YY     -47.4733
        XZ       2.0175     YZ      -1.4990     ZZ     -46.1255

 Final energy is   -915.386952581189
 **  OPTIMIZATION CONVERGED  **
 Total job time:  54.17s(wall), 626.86s(cpu)
        *  Thank you very much for using Q-Chem.  Have a nice day.  *
