 Q-Chem 5.1, Q-Chem, Inc., Pleasanton, CA (2018)
 Q-Chem 5.1.1 for Intel X86 EM64T Linux

User input:
--------------------------------------------------------------

$comment
potential surface scanner
$end

$rem
JOBTYPE  PES_SCAN
UNRESTRICTED TRUE
SYM_IGNORE  TRUE
GEOM_OPT_MAX_CYCLES 400
SCF_MAX_CYCLES 400
METHOD   B3LYP
BASIS   6-31G**
PDB_PRINT 2
SCF_CONVERGENCE 6
THRESH 14
SCF_PRINT 1
$end
$molecule
0 3
S 0.204649 -1.255210 -0.161829
S -3.838591 -1.727420 -0.230467
C 0.705255 0.590138 -0.224004
C -0.153251 1.370308 0.681864
C 2.203674 0.748444 0.031480
H 0.471518 0.817146 -1.269769
H 0.153577 1.540543 1.709706
H -1.177371 1.600435 0.410577
H 2.494728 1.795318 -0.110441
H 2.458161 0.466182 1.058395
H 2.790910 0.127018 -0.648328
H 0.421651 -1.422326 1.158675
H -2.495211 -1.525578 -0.216862
$end
$scan
stre 2 4 4.800000 4.801000 0.100000
$end
--------------------------------------------------------------

   10    -915.4176794193      8.05e-07  Convergence criterion met
 Total energy in the final basis set =     -915.4176794193
   10    -915.4176910214      8.06e-07  Convergence criterion met
 Total energy in the final basis set =     -915.4176910214
   10    -915.4177054809      8.13e-07  Convergence criterion met
 Total energy in the final basis set =     -915.4177054809
   10    -915.4177127182      8.22e-07  Convergence criterion met
 Total energy in the final basis set =     -915.4177127182

             Standard Nuclear Orientation (Angstroms)
    I     Atom           X                Y                Z
 ----------------------------------------------------------------
    1      S       0.2257724109    -1.2760029509    -0.1645671428
    2      S      -3.8154303304    -1.6493328190    -0.2125087225
    3      C       0.7019144911     0.5761811720    -0.2274465927
    4      C      -0.1706426800     1.3455325515     0.6742295024
    5      C       2.1970371433     0.7542487088     0.0334692582
    6      H       0.4690474948     0.7986348216    -1.2743727107
    7      H       0.1297157737     1.5208088538     1.7031247269
    8      H      -1.1965341223     1.5622046431     0.3984653141
    9      H       2.4754544649     1.8044051049    -0.1096653367
   10      H       2.4513081945     0.4775029894     1.0619638444
   11      H       2.7946407403     0.1388529795    -0.6427661512
   12      H       0.4434793760    -1.4388438539     1.1563564161
   13      H      -2.4660639568    -1.4891942009    -0.2072854054
 ----------------------------------------------------------------

   10    -915.4177132948      8.27e-07  Convergence criterion met
 Total energy in the final basis set =     -915.4177132948

                    Orbital Energies (a.u.)
 --------------------------------------------------------------

 Alpha MOs
 -- Occupied --
-88.892 -88.886 -10.243 -10.209 -10.195  -7.954  -7.948  -5.925
 -5.914  -5.913  -5.910  -5.906  -5.903  -0.828  -0.721  -0.716
 -0.697  -0.588  -0.481  -0.446  -0.432  -0.407  -0.394  -0.382
 -0.363  -0.346  -0.305  -0.260  -0.258  -0.214

 Beta MOs
 -- Occupied --
-88.887 -88.885 -10.244 -10.195 -10.195  -7.948  -7.947  -5.911
 -5.911  -5.908  -5.907  -5.903  -5.902  -0.820  -0.712  -0.680
 -0.676  -0.579  -0.476  -0.443  -0.426  -0.403  -0.382  -0.377
 -0.360  -0.333  -0.252  -0.243

          Ground-State Mulliken Net Atomic Charges

     Atom                 Charge (a.u.)    Spin (a.u.)
  --------------------------------------------------------
      1 S                    -0.062168       0.150204
      2 S                    -0.109352       1.027335
      3 C                    -0.218985      -0.086311
      4 C                    -0.197488       1.007403
      5 C                    -0.301093       0.006027
      6 H                     0.148592       0.013669
      7 H                     0.110861      -0.044416
      8 H                     0.122501      -0.043983
      9 H                     0.119394      -0.000542
     10 H                     0.111378      -0.000655
     11 H                     0.126535       0.001153
     12 H                     0.069435      -0.002753
     13 H                     0.080391      -0.027132
  --------------------------------------------------------
  Sum of atomic charges =    -0.000000

                    Cartesian Multipole Moments
 -----------------------------------------------------------------
    Charge (ESU x 10^10)
                -0.0000
    Dipole Moment (Debye)
         X       2.4449      Y       1.7173      Z       0.7968
       Tot       3.0922
    Quadrupole Moments (Debye-Ang)
        XX     -55.7887     XY      -2.6704     YY     -50.9987
        XZ       0.1188     YZ      -0.9020     ZZ     -44.4087

 Final energy is   -915.417713294849
 **  OPTIMIZATION CONVERGED  **
 Total job time:  20.30s(wall), 226.65s(cpu)
        *  Thank you very much for using Q-Chem.  Have a nice day.  *
