 Q-Chem 5.1, Q-Chem, Inc., Pleasanton, CA (2018)
 Q-Chem 5.1.1 for Intel X86 EM64T Linux

User input:
--------------------------------------------------------------

$comment
potential surface scanner
$end

$rem
JOBTYPE  PES_SCAN
UNRESTRICTED TRUE
SYM_IGNORE  TRUE
GEOM_OPT_MAX_CYCLES 400
SCF_MAX_CYCLES 400
METHOD   B3LYP
BASIS   6-31G**
PDB_PRINT 2
SCF_CONVERGENCE 6
THRESH 14
SCF_PRINT 1
$end
$molecule
0 3
S 0.311144 -1.344916 -0.208598
S -3.736746 -1.322425 -0.091671
C 0.699003 0.529794 -0.251705
C -0.238715 1.248247 0.626259
C 2.174687 0.779312 0.054946
H 0.487266 0.744658 -1.304708
H 0.024332 1.436912 1.662975
H -1.268337 1.403768 0.324479
H 2.406225 1.841745 -0.080727
H 2.409794 0.515179 1.091312
H 2.821596 0.193591 -0.601974
H 0.529786 -1.507620 1.112355
H -2.380336 -1.393249 -0.143945
$end
$scan
stre 2 4 4.300000 4.301000 0.100000
$end
--------------------------------------------------------------

   39    -915.4178525780      4.87e-07  Convergence criterion met
 Total energy in the final basis set =     -915.4178525780
   34    -915.4178611466      2.62e-07  Convergence criterion met
 Total energy in the final basis set =     -915.4178611466
   34    -915.4178717595      4.94e-07  Convergence criterion met
 Total energy in the final basis set =     -915.4178717595
   35    -915.4178771226      7.09e-07  Convergence criterion met
 Total energy in the final basis set =     -915.4178771226

             Standard Nuclear Orientation (Angstroms)
    I     Atom           X                Y                Z
 ----------------------------------------------------------------
    1      S       0.3336574090    -1.3660694725    -0.2067111162
    2      S      -3.7082476132    -1.2404581284    -0.0824563516
    3      C       0.6948980542     0.5144825011    -0.2533637705
    4      C      -0.2539783372     1.2217698702     0.6214309142
    5      C       2.1664160898     0.7856864780     0.0550333822
    6      H       0.4818150984     0.7234568714    -1.3072951271
    7      H       0.0060585681     1.4179492596     1.6575514960
    8      H      -1.2860573239     1.3592741231     0.3193109696
    9      H       2.3828591558     1.8510079815    -0.0828531847
   10      H       2.4033546778     0.5275421273     1.0925471575
   11      H       2.8227342284     0.2076350815    -0.5993191426
   12      H       0.5511878146    -1.5220231062     1.1152373326
   13      H      -2.3549988218    -1.3552575865    -0.1401145593
 ----------------------------------------------------------------

   30    -915.4178777586      3.01e-07  Convergence criterion met
 Total energy in the final basis set =     -915.4178777586

                    Orbital Energies (a.u.)
 --------------------------------------------------------------

 Alpha MOs
 -- Occupied --
-88.893 -88.886 -10.243 -10.207 -10.195  -7.955  -7.948  -5.926
 -5.916  -5.913  -5.910  -5.908  -5.903  -0.827  -0.722  -0.716
 -0.696  -0.588  -0.480  -0.445  -0.432  -0.407  -0.395  -0.381
 -0.363  -0.345  -0.306  -0.261  -0.258  -0.213

 Beta MOs
 -- Occupied --
-88.888 -88.885 -10.244 -10.195 -10.194  -7.950  -7.947  -5.913
 -5.911  -5.908  -5.907  -5.904  -5.902  -0.820  -0.711  -0.681
 -0.675  -0.578  -0.475  -0.442  -0.426  -0.403  -0.383  -0.376
 -0.360  -0.333  -0.252  -0.245

          Ground-State Mulliken Net Atomic Charges

     Atom                 Charge (a.u.)    Spin (a.u.)
  --------------------------------------------------------
      1 S                    -0.062934       0.150888
      2 S                    -0.109387       1.027873
      3 C                    -0.218778      -0.086122
      4 C                    -0.201407       1.006080
      5 C                    -0.301835       0.005847
      6 H                     0.148574       0.013977
      7 H                     0.110285      -0.044338
      8 H                     0.127933      -0.044098
      9 H                     0.119950      -0.000554
     10 H                     0.111145      -0.000641
     11 H                     0.126510       0.001007
     12 H                     0.069446      -0.002680
     13 H                     0.080498      -0.027239
  --------------------------------------------------------
  Sum of atomic charges =    -0.000000

                    Cartesian Multipole Moments
 -----------------------------------------------------------------
    Charge (ESU x 10^10)
                -0.0000
    Dipole Moment (Debye)
         X       2.3270      Y       1.4446      Z       0.7324
       Tot       2.8351
    Quadrupole Moments (Debye-Ang)
        XX     -55.3610     XY      -1.5904     YY     -50.7327
        XZ       0.7614     YZ      -1.3447     ZZ     -44.1365

 Final energy is   -915.417877758551
 **  OPTIMIZATION CONVERGED  **
 Total job time:  50.29s(wall), 588.06s(cpu)
        *  Thank you very much for using Q-Chem.  Have a nice day.  *
