 Q-Chem 5.1, Q-Chem, Inc., Pleasanton, CA (2018)
 Q-Chem 5.1.1 for Intel X86 EM64T Linux

User input:
--------------------------------------------------------------

$comment
potential surface scanner
$end

$rem
JOBTYPE  PES_SCAN
UNRESTRICTED TRUE
SYM_IGNORE  TRUE
GEOM_OPT_MAX_CYCLES 400
SCF_MAX_CYCLES 400
METHOD   B3LYP
BASIS   6-31G**
PDB_PRINT 2
SCF_CONVERGENCE 6
THRESH 14
SCF_PRINT 1
$end
$molecule
0 3
S 0.257325 -1.347006 -0.218209
S -2.587000 -0.811631 0.306215
C 0.672428 0.530611 -0.310304
C -0.331107 1.311368 0.423771
C 2.113547 0.745454 0.153753
H 0.585011 0.694579 -1.388502
H -0.228870 1.453546 1.495331
H -1.244748 1.636546 -0.054654
H 2.399517 1.789495 -0.013506
H 2.214480 0.539522 1.224354
H 2.810190 0.101973 -0.389064
H 0.425793 -1.464951 1.113705
H -2.846862 -2.054508 -0.153892
$end
$scan
stre 2 4 3.000000 3.001000 0.100000
$end
--------------------------------------------------------------

   11    -915.4212504611      4.61e-07  Convergence criterion met
 Total energy in the final basis set =     -915.4212504611
   11    -915.4197803656      4.51e-07  Convergence criterion met
 Total energy in the final basis set =     -915.4197803656
   11    -915.4200051943      4.58e-07  Convergence criterion met
 Total energy in the final basis set =     -915.4200051943
   11    -915.4200735061      4.63e-07  Convergence criterion met
 Total energy in the final basis set =     -915.4200735061
   11    -915.4200867244      4.64e-07  Convergence criterion met
 Total energy in the final basis set =     -915.4200867244
   11    -915.4201037953      4.66e-07  Convergence criterion met
 Total energy in the final basis set =     -915.4201037953
   11    -915.4201109016      4.68e-07  Convergence criterion met
 Total energy in the final basis set =     -915.4201109016
   11    -915.4201168632      4.71e-07  Convergence criterion met
   11    -915.4201202970      4.73e-07  Convergence criterion met
 Total energy in the final basis set =     -915.4201202970
   11    -915.4201228985      4.77e-07  Convergence criterion met
 Total energy in the final basis set =     -915.4201228985
   11    -915.4201251236      4.81e-07  Convergence criterion met
 Total energy in the final basis set =     -915.4201251236
   11    -915.4201275487      4.85e-07  Convergence criterion met
 Total energy in the final basis set =     -915.4201275487
   11    -915.4201296769      4.91e-07  Convergence criterion met
 Total energy in the final basis set =     -915.4201296769
   11    -915.4201311709      4.95e-07  Convergence criterion met
 Total energy in the final basis set =     -915.4201311709

             Standard Nuclear Orientation (Angstroms)
    I     Atom           X                Y                Z
 ----------------------------------------------------------------
    1      S       0.2679442186    -1.3510961556    -0.2838826164
    2      S      -2.5292028765    -0.7687991756     0.3606380730
    3      C       0.6737002393     0.5308573252    -0.3295476125
    4      C      -0.3531973691     1.2961974951     0.3887752606
    5      C       2.1005482410     0.7429766518     0.1780230067
    6      H       0.6170530693     0.7146792180    -1.4064912657
    7      H      -0.2939108718     1.4057418483     1.4669861942
    8      H      -1.2346687804     1.6625848231    -0.1191021384
    9      H       2.3869129970     1.7905905327     0.0364415793
   10      H       2.1729634193     0.5194266321     1.2476010514
   11      H       2.8144290297     0.1111782078    -0.3563062996
   12      H       0.4696074743    -1.5090686956     1.0394044562
   13      H      -2.8524747908    -2.0202707072    -0.0335416889
 ----------------------------------------------------------------

   11    -915.4201320773      4.98e-07  Convergence criterion met
 Total energy in the final basis set =     -915.4201320773

                    Orbital Energies (a.u.)
 --------------------------------------------------------------

 Alpha MOs
 -- Occupied --
-88.907 -88.855 -10.249 -10.208 -10.202  -7.969  -7.916  -5.933
 -5.929  -5.927  -5.885  -5.879  -5.870  -0.835  -0.733  -0.703
 -0.685  -0.592  -0.486  -0.453  -0.435  -0.417  -0.390  -0.378
 -0.366  -0.348  -0.311  -0.229  -0.222  -0.214

 Beta MOs
 -- Occupied --
-88.905 -88.851 -10.250 -10.201 -10.195  -7.966  -7.912  -5.930
 -5.926  -5.921  -5.876  -5.870  -5.867  -0.826  -0.720  -0.682
 -0.655  -0.582  -0.481  -0.448  -0.428  -0.412  -0.384  -0.367
 -0.359  -0.336  -0.271  -0.217

          Ground-State Mulliken Net Atomic Charges

     Atom                 Charge (a.u.)    Spin (a.u.)
  --------------------------------------------------------
      1 S                     0.029527       0.384446
      2 S                    -0.249579       0.799660
      3 C                    -0.222120      -0.089180
      4 C                    -0.185699       0.986905
      5 C                    -0.308170       0.011564
      6 H                     0.153867       0.006608
      7 H                     0.120127      -0.043695
      8 H                     0.146428      -0.043253
      9 H                     0.126565       0.001099
     10 H                     0.115445      -0.001169
     11 H                     0.127053       0.004324
     12 H                     0.092562      -0.010842
     13 H                     0.053995      -0.006467
  --------------------------------------------------------
  Sum of atomic charges =    -0.000000

                    Cartesian Multipole Moments
 -----------------------------------------------------------------
    Charge (ESU x 10^10)
                -0.0000
    Dipole Moment (Debye)
         X       2.9699      Y       0.7783      Z       0.0789
       Tot       3.0712
    Quadrupole Moments (Debye-Ang)
        XX     -51.8645     XY       0.8410     YY     -45.3211
        XZ       1.9615     YZ      -0.8506     ZZ     -46.6996

 Final energy is   -915.420132077340
 **  OPTIMIZATION CONVERGED  **
 Total job time:  65.20s(wall), 756.47s(cpu)
        *  Thank you very much for using Q-Chem.  Have a nice day.  *
