 Q-Chem 5.1, Q-Chem, Inc., Pleasanton, CA (2018)
 Q-Chem 5.1.1 for Intel X86 EM64T Linux

User input:
--------------------------------------------------------------

$comment
potential surface scanner
$end

$rem
JOBTYPE  PES_SCAN
UNRESTRICTED TRUE
SYM_IGNORE  TRUE
GEOM_OPT_MAX_CYCLES 400
SCF_MAX_CYCLES 400
METHOD   B3LYP
BASIS   6-31G**
PDB_PRINT 2
SCF_CONVERGENCE 6
THRESH 14
SCF_PRINT 1
$end
$molecule
0 1
S 0.668711 -1.694746 0.237444
S -2.499606 0.041324 -0.229782
C 0.530413 0.084576 -0.263029
C -0.641379 0.799373 0.388569
C 1.838124 0.847375 -0.000793
H 0.355113 0.025391 -1.341213
H -0.657065 0.727237 1.475812
H -0.718158 1.840713 0.071585
H 1.768256 1.869399 -0.389573
H 2.051155 0.909811 1.071877
H 2.679734 0.347936 -0.486285
H 1.049828 -1.458050 1.509807
H -2.185424 -1.215340 0.144583
$end
$scan
stre 2 4 2.200000 2.201000 0.100000
$end
--------------------------------------------------------------

    9    -915.5118253764      8.24e-07  Convergence criterion met
 Total energy in the final basis set =     -915.5118253764
    9    -915.5024865225      8.70e-07  Convergence criterion met
 Total energy in the final basis set =     -915.5024865225
    9    -915.5024344333      8.71e-07  Convergence criterion met
 Total energy in the final basis set =     -915.5024344333
    9    -915.5024988925      8.73e-07  Convergence criterion met
 Total energy in the final basis set =     -915.5024988925
    9    -915.5025017780      8.73e-07  Convergence criterion met
 Total energy in the final basis set =     -915.5025017780

             Standard Nuclear Orientation (Angstroms)
    I     Atom           X                Y                Z
 ----------------------------------------------------------------
    1      S       0.6688196793    -1.6880630289     0.2460106875
    2      S      -2.5601986668     0.0137768210    -0.2474261424
    3      C       0.5368042611     0.0904180782    -0.2555397735
    4      C      -0.6176576348     0.8159781557     0.4029637971
    5      C       1.8518899587     0.8478990148    -0.0039764029
    6      H       0.3542798310     0.0334221052    -1.3324394439
    7      H      -0.6637490590     0.7280185328     1.4868739518
    8      H      -0.7192613572     1.8511097750     0.0772443641
    9      H       1.7853187072     1.8693895837    -0.3943925373
   10      H       2.0739528826     0.9102935272     1.0667478618
   11      H       2.6854753815     0.3412395969    -0.4958830855
   12      H       1.0603151658    -1.4520968428     1.5152975379
   13      H      -2.2162871495    -1.2363863188     0.1235211856
 ----------------------------------------------------------------

    9    -915.5025027378      8.74e-07  Convergence criterion met
 Total energy in the final basis set =     -915.5025027378

                    Orbital Energies (a.u.)
 --------------------------------------------------------------

 Alpha MOs
 -- Occupied --
-88.884 -88.870 -10.247 -10.246 -10.203  -7.947  -7.930  -5.912
 -5.908  -5.901  -5.895  -5.892  -5.885  -0.836  -0.726  -0.717
 -0.669  -0.594  -0.480  -0.458  -0.432  -0.418  -0.398  -0.376
 -0.366  -0.331  -0.300  -0.250  -0.234

 Beta MOs
 -- Occupied --
-88.884 -88.870 -10.247 -10.246 -10.203  -7.947  -7.930  -5.912
 -5.908  -5.901  -5.895  -5.892  -5.885  -0.836  -0.726  -0.717
 -0.669  -0.594  -0.480  -0.458  -0.432  -0.418  -0.398  -0.376
 -0.366  -0.331  -0.300  -0.250  -0.234

          Ground-State Mulliken Net Atomic Charges

     Atom                 Charge (a.u.)    Spin (a.u.)
  --------------------------------------------------------
      1 S                    -0.033236      -0.000000
      2 S                    -0.160827      -0.000000
      3 C                    -0.211856       0.000000
      4 C                    -0.252337       0.000000
      5 C                    -0.314232      -0.000000
      6 H                     0.164562       0.000000
      7 H                     0.150192       0.000000
      8 H                     0.148529      -0.000000
      9 H                     0.117139       0.000000
     10 H                     0.113059       0.000000
     11 H                     0.137202       0.000000
     12 H                     0.057985       0.000000
     13 H                     0.083818      -0.000000
  --------------------------------------------------------
  Sum of atomic charges =    -0.000000

                    Cartesian Multipole Moments
 -----------------------------------------------------------------
    Charge (ESU x 10^10)
                -0.0000
    Dipole Moment (Debye)
         X       2.5520      Y       1.3798      Z       1.0898
       Tot       3.0991
    Quadrupole Moments (Debye-Ang)
        XX     -53.9928     XY       2.7387     YY     -47.0741
        XZ       0.1968     YZ      -1.3212     ZZ     -45.5699

 Final energy is   -915.502502737788
 **  OPTIMIZATION CONVERGED  **
 Total job time:  24.14s(wall), 275.46s(cpu)
        *  Thank you very much for using Q-Chem.  Have a nice day.  *
