 Q-Chem 5.1, Q-Chem, Inc., Pleasanton, CA (2018)
 Q-Chem 5.1.1 for Intel X86 EM64T Linux

User input:
--------------------------------------------------------------

$comment
potential surface scanner
$end

$rem
JOBTYPE  PES_SCAN
UNRESTRICTED TRUE
SYM_IGNORE  TRUE
GEOM_OPT_MAX_CYCLES 400
SCF_MAX_CYCLES 400
METHOD   B3LYP
BASIS   6-31G**
PDB_PRINT 2
SCF_CONVERGENCE 6
THRESH 14
SCF_PRINT 1
$end
$molecule
0 3
S 0.319405 -1.397111 -0.371007
S -2.349523 -0.656240 0.382614
C 0.655327 0.503312 -0.352340
C -0.415607 1.227566 0.347344
C 2.057724 0.741929 0.210845
H 0.633358 0.715442 -1.424909
H -0.401699 1.307307 1.428703
H -1.197369 1.737041 -0.198210
H 2.321116 1.799625 0.104711
H 2.099409 0.494008 1.276852
H 2.806150 0.141950 -0.313499
H 0.580298 -1.600875 0.935556
H -2.868887 -1.888957 0.162335
$end
$scan
stre 2 4 2.600000 2.601000 0.100000
$end
--------------------------------------------------------------

   11    -915.4144113044      5.20e-07  Convergence criterion met
 Total energy in the final basis set =     -915.4144113044
   11    -915.4110907986      5.32e-07  Convergence criterion met
 Total energy in the final basis set =     -915.4110907986
   11    -915.4112458159      5.27e-07  Convergence criterion met
 Total energy in the final basis set =     -915.4112458159
   11    -915.4113115746      5.19e-07  Convergence criterion met
 Total energy in the final basis set =     -915.4113115746
   11    -915.4113371106      5.13e-07  Convergence criterion met
 Total energy in the final basis set =     -915.4113371106
   11    -915.4113743457      5.05e-07  Convergence criterion met
 Total energy in the final basis set =     -915.4113743457
   11    -915.4113947510      5.01e-07  Convergence criterion met
 Total energy in the final basis set =     -915.4113947510
   11    -915.4114162435      4.98e-07  Convergence criterion met
   11    -915.4114477406      4.88e-07  Convergence criterion met
 Total energy in the final basis set =     -915.4114477406
   11    -915.4114490858      4.86e-07  Convergence criterion met
 Total energy in the final basis set =     -915.4114490858
   11    -915.4114508521      4.84e-07  Convergence criterion met
 Total energy in the final basis set =     -915.4114508521
   11    -915.4114527815      4.82e-07  Convergence criterion met
 Total energy in the final basis set =     -915.4114527815
   11    -915.4114543671      4.80e-07  Convergence criterion met
 Total energy in the final basis set =     -915.4114543671
   11    -915.4114554502      4.79e-07  Convergence criterion met
 Total energy in the final basis set =     -915.4114554502

             Standard Nuclear Orientation (Angstroms)
    I     Atom           X                Y                Z
 ----------------------------------------------------------------
    1      S       0.3529864185    -1.4297608474    -0.3366699961
    2      S      -2.2982994020    -0.6261427806     0.3349610129
    3      C       0.6425745103     0.4734211192    -0.3422487513
    4      C      -0.4351213299     1.1870515594     0.3648960023
    5      C       2.0475384033     0.7526594035     0.1978403332
    6      H       0.6006860463     0.6755005006    -1.4161455045
    7      H      -0.4195318819     1.2529450443     1.4471314880
    8      H      -1.1574411331     1.7835518349    -0.1747132555
    9      H       2.2828292518     1.8156545784     0.0791567572
   10      H       2.1114133555     0.5150205764     1.2648882285
   11      H       2.8026172983     0.1667089278    -0.3332314677
   12      H       0.6058762151    -1.6132199313     0.9748451167
   13      H      -2.8964257522    -1.8283929852     0.1282850363
 ----------------------------------------------------------------

   11    -915.4114562468      4.77e-07  Convergence criterion met
 Total energy in the final basis set =     -915.4114562468

                    Orbital Energies (a.u.)
 --------------------------------------------------------------

 Alpha MOs
 -- Occupied --
-88.907 -88.853 -10.248 -10.208 -10.202  -7.968  -7.914  -5.932
 -5.929  -5.927  -5.882  -5.876  -5.868  -0.835  -0.732  -0.707
 -0.680  -0.591  -0.485  -0.454  -0.434  -0.419  -0.396  -0.380
 -0.366  -0.341  -0.309  -0.228  -0.222  -0.203

 Beta MOs
 -- Occupied --
-88.904 -88.848 -10.249 -10.201 -10.195  -7.966  -7.909  -5.930
 -5.926  -5.920  -5.874  -5.867  -5.865  -0.825  -0.720  -0.684
 -0.651  -0.581  -0.480  -0.448  -0.427  -0.413  -0.387  -0.365
 -0.362  -0.331  -0.269  -0.215

          Ground-State Mulliken Net Atomic Charges

     Atom                 Charge (a.u.)    Spin (a.u.)
  --------------------------------------------------------
      1 S                     0.032601       0.380859
      2 S                    -0.242093       0.771787
      3 C                    -0.214699      -0.076590
      4 C                    -0.205101       0.951458
      5 C                    -0.308415       0.015237
      6 H                     0.153140       0.002524
      7 H                     0.131064      -0.041375
      8 H                     0.149456      -0.041586
      9 H                     0.125652       0.000375
     10 H                     0.115780      -0.001101
     11 H                     0.126714       0.008659
     12 H                     0.091602      -0.011314
     13 H                     0.044299       0.041067
  --------------------------------------------------------
  Sum of atomic charges =    -0.000000

                    Cartesian Multipole Moments
 -----------------------------------------------------------------
    Charge (ESU x 10^10)
                -0.0000
    Dipole Moment (Debye)
         X       2.7631      Y       0.8799      Z       0.2240
       Tot       2.9085
    Quadrupole Moments (Debye-Ang)
        XX     -50.7242     XY       0.7804     YY     -45.1643
        XZ       1.5689     YZ      -1.5661     ZZ     -46.9011

 Final energy is   -915.411456246844
 **  OPTIMIZATION CONVERGED  **
 Total job time:  83.70s(wall), 969.07s(cpu)
        *  Thank you very much for using Q-Chem.  Have a nice day.  *
