 Q-Chem 5.1, Q-Chem, Inc., Pleasanton, CA (2018)
 Q-Chem 5.1.1 for Intel X86 EM64T Linux

User input:
--------------------------------------------------------------

$comment
potential surface scanner
$end

$rem
JOBTYPE  PES_SCAN
UNRESTRICTED TRUE
SYM_IGNORE  TRUE
GEOM_OPT_MAX_CYCLES 400
SCF_MAX_CYCLES 400
METHOD   B3LYP
BASIS   6-31G**
PDB_PRINT 2
SCF_CONVERGENCE 6
THRESH 14
SCF_PRINT 1
$end
$molecule
0 3
S 0.225772 -1.276003 -0.164567
S -3.815430 -1.649333 -0.212509
C 0.701914 0.576181 -0.227447
C -0.170643 1.345533 0.674230
C 2.197037 0.754249 0.033469
H 0.469047 0.798635 -1.274373
H 0.129716 1.520809 1.703125
H -1.196534 1.562205 0.398465
H 2.475454 1.804405 -0.109665
H 2.451308 0.477503 1.061964
H 2.794641 0.138853 -0.642766
H 0.443479 -1.438844 1.156356
H -2.466064 -1.489194 -0.207285
$end
$scan
stre 2 4 4.700000 4.701000 0.100000
$end
--------------------------------------------------------------

   10    -915.4177132946      8.27e-07  Convergence criterion met
 Total energy in the final basis set =     -915.4177132946
   10    -915.4177180729      8.53e-07  Convergence criterion met
 Total energy in the final basis set =     -915.4177180729
   10    -915.4177311584      8.66e-07  Convergence criterion met
 Total energy in the final basis set =     -915.4177311584
   10    -915.4177383641      8.95e-07  Convergence criterion met
 Total energy in the final basis set =     -915.4177383641

             Standard Nuclear Orientation (Angstroms)
    I     Atom           X                Y                Z
 ----------------------------------------------------------------
    1      S       0.2467160824    -1.2959641773    -0.1692881349
    2      S      -3.7922114098    -1.5710787293    -0.1912374910
    3      C       0.6990493053     0.5627614569    -0.2315246062
    4      C      -0.1877951778     1.3209811194     0.6656018895
    5      C       2.1904165381     0.7600261981     0.0362455110
    6      H       0.4681059490     0.7812500058    -1.2797005429
    7      H       0.1052809102     1.5005337628     1.6958500796
    8      H      -1.2150093460     1.5244956778     0.3846792906
    9      H       2.4563856169     1.8133683797    -0.1072044804
   10      H       2.4433488104     0.4880839979     1.0663749541
   11      H       2.7987776555     0.1511314823    -0.6362536912
   12      H       0.4645325802    -1.4554634718     1.1520350520
   13      H      -2.4379005143    -1.4551267023    -0.1965808303
 ----------------------------------------------------------------

   10    -915.4177388201      9.12e-07  Convergence criterion met
 Total energy in the final basis set =     -915.4177388201

                    Orbital Energies (a.u.)
 --------------------------------------------------------------

 Alpha MOs
 -- Occupied --
-88.892 -88.886 -10.243 -10.209 -10.195  -7.954  -7.948  -5.925
 -5.914  -5.913  -5.910  -5.906  -5.903  -0.828  -0.721  -0.716
 -0.697  -0.588  -0.481  -0.446  -0.432  -0.407  -0.394  -0.382
 -0.363  -0.346  -0.305  -0.260  -0.258  -0.214

 Beta MOs
 -- Occupied --
-88.886 -88.885 -10.244 -10.196 -10.195  -7.948  -7.947  -5.911
 -5.911  -5.908  -5.907  -5.903  -5.902  -0.820  -0.712  -0.680
 -0.676  -0.579  -0.476  -0.443  -0.426  -0.403  -0.382  -0.377
 -0.361  -0.333  -0.252  -0.243

          Ground-State Mulliken Net Atomic Charges

     Atom                 Charge (a.u.)    Spin (a.u.)
  --------------------------------------------------------
      1 S                    -0.061945       0.150379
      2 S                    -0.109783       1.027322
      3 C                    -0.218953      -0.086309
      4 C                    -0.197994       1.007295
      5 C                    -0.301207       0.006036
      6 H                     0.148757       0.013629
      7 H                     0.110949      -0.044406
      8 H                     0.122984      -0.044028
      9 H                     0.119517      -0.000545
     10 H                     0.111378      -0.000656
     11 H                     0.126597       0.001156
     12 H                     0.069690      -0.002746
     13 H                     0.080009      -0.027127
  --------------------------------------------------------
  Sum of atomic charges =    -0.000000

                    Cartesian Multipole Moments
 -----------------------------------------------------------------
    Charge (ESU x 10^10)
                -0.0000
    Dipole Moment (Debye)
         X       2.4417      Y       1.6768      Z       0.7852
       Tot       3.0643
    Quadrupole Moments (Debye-Ang)
        XX     -55.7669     XY      -2.4922     YY     -50.8243
        XZ       0.2252     YZ      -0.8236     ZZ     -44.4802

 Final energy is   -915.417738820135
 **  OPTIMIZATION CONVERGED  **
 Total job time:  19.98s(wall), 227.68s(cpu)
        *  Thank you very much for using Q-Chem.  Have a nice day.  *
