 Q-Chem 5.1, Q-Chem, Inc., Pleasanton, CA (2018)
 Q-Chem 5.1.1 for Intel X86 EM64T Linux

User input:
--------------------------------------------------------------

$comment
potential surface scanner
$end

$rem
JOBTYPE  PES_SCAN
UNRESTRICTED TRUE
SYM_IGNORE  TRUE
GEOM_OPT_MAX_CYCLES 400
SCF_MAX_CYCLES 400
METHOD   B3LYP
BASIS   6-31G**
PDB_PRINT 2
SCF_CONVERGENCE 6
THRESH 14
SCF_PRINT 1
$end
$molecule
0 3
S 0.242791 -1.352451 -0.019561
S -2.671704 -0.925556 0.207748
C 0.656098 0.511935 -0.251452
C -0.287573 1.335380 0.514490
C 2.128978 0.747814 0.084673
H 0.480934 0.613044 -1.326994
H -0.073921 1.574615 1.552389
H -1.269270 1.565457 0.122424
H 2.397822 1.782420 -0.155014
H 2.317414 0.591755 1.151896
H 2.781508 0.078417 -0.480856
H 0.327051 -1.352332 1.325006
H -2.790427 -2.045500 -0.535750
$end
$scan
stre 2 4 3.200000 3.201000 0.100000
$end
--------------------------------------------------------------

   11    -915.4227878432      3.68e-07  Convergence criterion met
 Total energy in the final basis set =     -915.4227878432
   11    -915.4215633471      3.61e-07  Convergence criterion met
 Total energy in the final basis set =     -915.4215633471
   11    -915.4219102071      3.63e-07  Convergence criterion met
 Total energy in the final basis set =     -915.4219102071
   11    -915.4220149370      3.67e-07  Convergence criterion met
 Total energy in the final basis set =     -915.4220149370
   11    -915.4220277023      3.69e-07  Convergence criterion met
 Total energy in the final basis set =     -915.4220277023
   11    -915.4220437103      3.71e-07  Convergence criterion met
 Total energy in the final basis set =     -915.4220437103
   11    -915.4220520358      3.72e-07  Convergence criterion met
 Total energy in the final basis set =     -915.4220520358
   11    -915.4220629740      3.73e-07  Convergence criterion met
   11    -915.4220915432      3.82e-07  Convergence criterion met
 Total energy in the final basis set =     -915.4220915432
   11    -915.4221002240      3.89e-07  Convergence criterion met
 Total energy in the final basis set =     -915.4221002240
   11    -915.4221081420      3.97e-07  Convergence criterion met
 Total energy in the final basis set =     -915.4221081420
   11    -915.4221135274      4.05e-07  Convergence criterion met
 Total energy in the final basis set =     -915.4221135274
   11    -915.4221160836      4.11e-07  Convergence criterion met
 Total energy in the final basis set =     -915.4221160836
   11    -915.4221171805      4.14e-07  Convergence criterion met
 Total energy in the final basis set =     -915.4221171805

             Standard Nuclear Orientation (Angstroms)
    I     Atom           X                Y                Z
 ----------------------------------------------------------------
    1      S       0.2488977936    -1.3455865213    -0.1407568723
    2      S      -2.6353091461    -0.8615468906     0.2516556972
    3      C       0.6684311418     0.5269243317    -0.2870587377
    4      C      -0.3090162861     1.3256624256     0.4625540675
    5      C       2.1241917556     0.7473800787     0.1259793717
    6      H       0.5453079905     0.6673187547    -1.3652104500
    7      H      -0.1592601968     1.5066935287     1.5228870106
    8      H      -1.2525781440     1.6122725754     0.0183633071
    9      H       2.4060505832     1.7877647724    -0.0693453290
   10      H       2.2596297875     0.5600134151     1.1960560811
   11      H       2.8018670924     0.0928528197    -0.4273346279
   12      H       0.3779955138    -1.4163730218     1.1985577048
   13      H      -2.8365068856    -2.0783782684    -0.2973482231
 ----------------------------------------------------------------

   11    -915.4221176931      4.15e-07  Convergence criterion met
 Total energy in the final basis set =     -915.4221176931

                    Orbital Energies (a.u.)
 --------------------------------------------------------------

 Alpha MOs
 -- Occupied --
-88.907 -88.857 -10.249 -10.209 -10.201  -7.969  -7.918  -5.933
 -5.929  -5.927  -5.887  -5.880  -5.871  -0.836  -0.733  -0.702
 -0.686  -0.593  -0.486  -0.454  -0.435  -0.415  -0.389  -0.376
 -0.367  -0.351  -0.311  -0.230  -0.222  -0.218

 Beta MOs
 -- Occupied --
-88.905 -88.852 -10.250 -10.201 -10.196  -7.966  -7.913  -5.930
 -5.926  -5.921  -5.877  -5.871  -5.869  -0.826  -0.720  -0.681
 -0.656  -0.583  -0.481  -0.449  -0.429  -0.410  -0.383  -0.367
 -0.359  -0.338  -0.270  -0.218

          Ground-State Mulliken Net Atomic Charges

     Atom                 Charge (a.u.)    Spin (a.u.)
  --------------------------------------------------------
      1 S                     0.029121       0.377336
      2 S                    -0.247660       0.809239
      3 C                    -0.223753      -0.092357
      4 C                    -0.185690       0.994802
      5 C                    -0.306034       0.010785
      6 H                     0.155450       0.008996
      7 H                     0.114912      -0.044014
      8 H                     0.146623      -0.043926
      9 H                     0.125844       0.001691
     10 H                     0.114793      -0.001129
     11 H                     0.127038       0.003174
     12 H                     0.091721      -0.010367
     13 H                     0.057635      -0.014230
  --------------------------------------------------------
  Sum of atomic charges =    -0.000000

                    Cartesian Multipole Moments
 -----------------------------------------------------------------
    Charge (ESU x 10^10)
                -0.0000
    Dipole Moment (Debye)
         X       3.0140      Y       0.8556      Z       0.0981
       Tot       3.1346
    Quadrupole Moments (Debye-Ang)
        XX     -52.5279     XY       0.6498     YY     -45.7940
        XZ       2.0859     YZ      -0.0885     ZZ     -46.0893

 Final energy is   -915.422117693111
 **  OPTIMIZATION CONVERGED  **
 Total job time:  74.01s(wall), 854.69s(cpu)
        *  Thank you very much for using Q-Chem.  Have a nice day.  *
