 Q-Chem 5.1, Q-Chem, Inc., Pleasanton, CA (2018)
 Q-Chem 5.1.1 for Intel X86 EM64T Linux

User input:
--------------------------------------------------------------

$comment
potential surface scanner
$end

$rem
JOBTYPE  PES_SCAN
UNRESTRICTED TRUE
SYM_IGNORE  TRUE
GEOM_OPT_MAX_CYCLES 400
SCF_MAX_CYCLES 400
METHOD   B3LYP
BASIS   6-31G**
PDB_PRINT 2
SCF_CONVERGENCE 6
THRESH 14
SCF_PRINT 1
$end
$molecule
0 3
S 0.299997 -1.377789 -0.355146
S -2.408703 -0.689721 0.387800
C 0.664350 0.516615 -0.348780
C -0.393358 1.253810 0.355047
C 2.072913 0.741321 0.203930
H 0.637142 0.723573 -1.422367
H -0.373617 1.334510 1.436561
H -1.214645 1.707171 -0.182192
H 2.346575 1.795780 0.091785
H 2.118986 0.497077 1.270606
H 2.811426 0.131429 -0.322758
H 0.544184 -1.573569 0.955802
H -2.865548 -1.935210 0.118708
$end
$scan
stre 2 4 2.700000 2.701000 0.100000
$end
--------------------------------------------------------------

   11    -915.4168061034      5.29e-07  Convergence criterion met
 Total energy in the final basis set =     -915.4168061034
   11    -915.4142342270      5.41e-07  Convergence criterion met
 Total energy in the final basis set =     -915.4142342270
   11    -915.4142941509      5.39e-07  Convergence criterion met
 Total energy in the final basis set =     -915.4142941509
   11    -915.4143352082      5.33e-07  Convergence criterion met
 Total energy in the final basis set =     -915.4143352082
   11    -915.4143567004      5.29e-07  Convergence criterion met
 Total energy in the final basis set =     -915.4143567004
   11    -915.4143802819      5.23e-07  Convergence criterion met
 Total energy in the final basis set =     -915.4143802819
   11    -915.4143942631      5.21e-07  Convergence criterion met
 Total energy in the final basis set =     -915.4143942631
   11    -915.4144034091      5.20e-07  Convergence criterion met
 Total energy in the final basis set =     -915.4144034091
   11    -915.4144081028      5.20e-07  Convergence criterion met
 Total energy in the final basis set =     -915.4144081028
   11    -915.4144103639      5.20e-07  Convergence criterion met
 Total energy in the final basis set =     -915.4144103639

             Standard Nuclear Orientation (Angstroms)
    I     Atom           X                Y                Z
 ----------------------------------------------------------------
    1      S       0.3194052206    -1.3971114286    -0.3710065624
    2      S      -2.3495232921    -0.6562396496     0.3826138453
    3      C       0.6553270791     0.5033121663    -0.3523397876
    4      C      -0.4156068485     1.2275661942     0.3473441684
    5      C       2.0577243613     0.7419290726     0.2108450868
    6      H       0.6333583486     0.7154423427    -1.4249090002
    7      H      -0.4016992367     1.3073072939     1.4287030325
    8      H      -1.1973690685     1.7370407646    -0.1982099678
    9      H       2.3211157065     1.7996245835     0.1047112059
   10      H       2.0994088138     0.4940076647     1.2768523880
   11      H       2.8061500379     0.1419504261    -0.3134990276
   12      H       0.5802979459    -1.6008752567     0.9355557879
   13      H      -2.8688870679    -1.8889571739     0.1623348309
 ----------------------------------------------------------------

   11    -915.4144113098      5.20e-07  Convergence criterion met
 Total energy in the final basis set =     -915.4144113098

                    Orbital Energies (a.u.)
 --------------------------------------------------------------

 Alpha MOs
 -- Occupied --
-88.907 -88.853 -10.248 -10.208 -10.202  -7.968  -7.914  -5.932
 -5.929  -5.927  -5.882  -5.876  -5.868  -0.835  -0.733  -0.706
 -0.681  -0.592  -0.486  -0.453  -0.434  -0.419  -0.393  -0.380
 -0.366  -0.343  -0.310  -0.228  -0.222  -0.206

 Beta MOs
 -- Occupied --
-88.904 -88.848 -10.249 -10.202 -10.195  -7.966  -7.909  -5.930
 -5.926  -5.921  -5.874  -5.868  -5.865  -0.825  -0.720  -0.683
 -0.652  -0.581  -0.481  -0.447  -0.428  -0.413  -0.386  -0.366
 -0.361  -0.332  -0.270  -0.215

          Ground-State Mulliken Net Atomic Charges

     Atom                 Charge (a.u.)    Spin (a.u.)
  --------------------------------------------------------
      1 S                     0.030972       0.392474
      2 S                    -0.248417       0.777112
      3 C                    -0.216418      -0.081810
      4 C                    -0.197235       0.963404
      5 C                    -0.309797       0.013251
      6 H                     0.152993       0.003962
      7 H                     0.129338      -0.042548
      8 H                     0.149333      -0.042129
      9 H                     0.126423       0.000400
     10 H                     0.116218      -0.001148
     11 H                     0.126882       0.006790
     12 H                     0.092526      -0.011389
     13 H                     0.047181       0.021629
  --------------------------------------------------------
  Sum of atomic charges =    -0.000000

                    Cartesian Multipole Moments
 -----------------------------------------------------------------
    Charge (ESU x 10^10)
                -0.0000
    Dipole Moment (Debye)
         X       2.8460      Y       0.8262      Z       0.1575
       Tot       2.9676
    Quadrupole Moments (Debye-Ang)
        XX     -50.9991     XY       0.8185     YY     -45.0763
        XZ       1.6628     YZ      -1.5011     ZZ     -47.0064

 Final energy is   -915.414411309811
 **  OPTIMIZATION CONVERGED  **
 Total job time:  48.82s(wall), 563.29s(cpu)
        *  Thank you very much for using Q-Chem.  Have a nice day.  *
