 Q-Chem 5.1, Q-Chem, Inc., Pleasanton, CA (2018)
 Q-Chem 5.1.1 for Intel X86 EM64T Linux

User input:
--------------------------------------------------------------

$comment
potential surface scanner
$end

$rem
JOBTYPE  PES_SCAN
UNRESTRICTED TRUE
SYM_IGNORE  TRUE
GEOM_OPT_MAX_CYCLES 400
SCF_MAX_CYCLES 400
METHOD   B3LYP
BASIS   6-31G**
PDB_PRINT 2
SCF_CONVERGENCE 6
THRESH 14
SCF_PRINT 1
$end
$molecule
0 3
S 0.352986 -1.429761 -0.336670
S -2.298299 -0.626143 0.334961
C 0.642575 0.473421 -0.342249
C -0.435121 1.187052 0.364896
C 2.047538 0.752659 0.197840
H 0.600686 0.675501 -1.416146
H -0.419532 1.252945 1.447131
H -1.157441 1.783552 -0.174713
H 2.282829 1.815655 0.079157
H 2.111413 0.515021 1.264888
H 2.802617 0.166709 -0.333231
H 0.605876 -1.613220 0.974845
H -2.896426 -1.828393 0.128285
$end
$scan
stre 2 4 2.500000 2.501000 0.100000
$end
--------------------------------------------------------------

   11    -915.4114562601      4.77e-07  Convergence criterion met
 Total energy in the final basis set =     -915.4114562601
   11    -915.4076658468      4.94e-07  Convergence criterion met
 Total energy in the final basis set =     -915.4076658468
   11    -915.4077324923      4.92e-07  Convergence criterion met
 Total energy in the final basis set =     -915.4077324923
   11    -915.4077983477      4.85e-07  Convergence criterion met
 Total energy in the final basis set =     -915.4077983477
   11    -915.4078427590      4.77e-07  Convergence criterion met
 Total energy in the final basis set =     -915.4078427590
   11    -915.4078891183      4.66e-07  Convergence criterion met
 Total energy in the final basis set =     -915.4078891183
   11    -915.4079190829      4.59e-07  Convergence criterion met
 Total energy in the final basis set =     -915.4079190829
   11    -915.4079375214      4.55e-07  Convergence criterion met
   11    -915.4079879863      4.38e-07  Convergence criterion met
 Total energy in the final basis set =     -915.4079879863
   11    -915.4079922564      4.36e-07  Convergence criterion met
 Total energy in the final basis set =     -915.4079922564
   11    -915.4079962476      4.35e-07  Convergence criterion met
 Total energy in the final basis set =     -915.4079962476
   11    -915.4080003588      4.32e-07  Convergence criterion met
 Total energy in the final basis set =     -915.4080003588
   11    -915.4080039768      4.28e-07  Convergence criterion met
 Total energy in the final basis set =     -915.4080039768
   11    -915.4080060910      4.25e-07  Convergence criterion met
 Total energy in the final basis set =     -915.4080060910

             Standard Nuclear Orientation (Angstroms)
    I     Atom           X                Y                Z
 ----------------------------------------------------------------
    1      S       0.3986666394    -1.4734488430    -0.2487829477
    2      S      -2.2590945420    -0.5983626740     0.2548783231
    3      C       0.6261507880     0.4221133993    -0.3195233147
    4      C      -0.4547905987     1.1254041132     0.4069212805
    5      C       2.0377309105     0.7732783487     0.1640489313
    6      H       0.5409544940     0.5998247467    -1.3953192805
    7      H      -0.4242830605     1.1661166875     1.4909118062
    8      H      -1.0819232930     1.8433122141    -0.1048792136
    9      H       2.2221556691     1.8425368097     0.0157096828
   10      H       2.1491228920     0.5612553484     1.2323160291
   11      H       2.7984036826     0.2086905969    -0.3827082980
   12      H       0.6445181145    -1.6031488958     1.0708680315
   13      H      -2.9579106959    -1.7425738519     0.0045529701
 ----------------------------------------------------------------

   11    -915.4080069170      4.23e-07  Convergence criterion met
 Total energy in the final basis set =     -915.4080069170

                    Orbital Energies (a.u.)
 --------------------------------------------------------------

 Alpha MOs
 -- Occupied --
-88.907 -88.855 -10.247 -10.207 -10.201  -7.968  -7.916  -5.932
 -5.929  -5.926  -5.884  -5.878  -5.869  -0.835  -0.732  -0.708
 -0.679  -0.591  -0.484  -0.454  -0.433  -0.418  -0.400  -0.379
 -0.365  -0.340  -0.307  -0.230  -0.222  -0.200

 Beta MOs
 -- Occupied --
-88.904 -88.850 -10.248 -10.201 -10.194  -7.966  -7.911  -5.930
 -5.926  -5.920  -5.876  -5.869  -5.866  -0.826  -0.720  -0.684
 -0.649  -0.581  -0.478  -0.448  -0.425  -0.412  -0.390  -0.363
 -0.362  -0.331  -0.268  -0.216

          Ground-State Mulliken Net Atomic Charges

     Atom                 Charge (a.u.)    Spin (a.u.)
  --------------------------------------------------------
      1 S                     0.036971       0.347650
      2 S                    -0.225618       0.775127
      3 C                    -0.214205      -0.069494
      4 C                    -0.215400       0.935144
      5 C                    -0.306230       0.018275
      6 H                     0.153963       0.001377
      7 H                     0.130223      -0.038872
      8 H                     0.146566      -0.040605
      9 H                     0.124284       0.000544
     10 H                     0.114671      -0.000969
     11 H                     0.126249       0.011302
     12 H                     0.088540      -0.010634
     13 H                     0.039986       0.071155
  --------------------------------------------------------
  Sum of atomic charges =    -0.000000

                    Cartesian Multipole Moments
 -----------------------------------------------------------------
    Charge (ESU x 10^10)
                 0.0000
    Dipole Moment (Debye)
         X       2.6395      Y       0.9476      Z       0.2909
       Tot       2.8195
    Quadrupole Moments (Debye-Ang)
        XX     -50.3685     XY       0.7424     YY     -45.4222
        XZ       1.6002     YZ      -1.4876     ZZ     -46.6733

 Final energy is   -915.408006916960
 **  OPTIMIZATION CONVERGED  **
 Total job time:  92.64s(wall), 1072.99s(cpu)
        *  Thank you very much for using Q-Chem.  Have a nice day.  *
