 Q-Chem 5.1, Q-Chem, Inc., Pleasanton, CA (2018)
 Q-Chem 5.1.1 for Intel X86 EM64T Linux

User input:
--------------------------------------------------------------

$comment
potential surface scanner
$end

$rem
JOBTYPE  PES_SCAN
UNRESTRICTED TRUE
SYM_IGNORE  TRUE
GEOM_OPT_MAX_CYCLES 400
SCF_MAX_CYCLES 400
METHOD   B3LYP
BASIS   6-31G**
PDB_PRINT 2
SCF_CONVERGENCE 6
THRESH 14
SCF_PRINT 1
$end
$molecule
0 1
S 0.653000 -1.655100 0.136100
S -2.273700 -0.042700 -0.103500
C 0.513800 0.101500 -0.361300
C -0.697000 0.778900 0.292500
C 1.803900 0.817400 0.036300
H 0.414100 0.130900 -1.452400
H -0.592400 0.804400 1.383200
H -0.770600 1.816900 -0.049700
H 1.768400 1.866200 -0.278900
H 1.962400 0.805000 1.120700
H 2.677400 0.363600 -0.445400
H 0.755100 -1.437500 1.455700
H -1.974700 -1.224500 0.455700
$end
$scan
stre 2 4 1.800000 1.801000 0.100000
$end
--------------------------------------------------------------

    9    -915.5220086792      2.35e-07  Convergence criterion met
 Total energy in the final basis set =     -915.5220086792
    9    -915.5245709913      3.40e-07  Convergence criterion met
 Total energy in the final basis set =     -915.5245709913
    9    -915.5252064255      3.36e-07  Convergence criterion met
 Total energy in the final basis set =     -915.5252064255
    9    -915.5254792815      3.18e-07  Convergence criterion met
 Total energy in the final basis set =     -915.5254792815
    9    -915.5256198539      3.16e-07  Convergence criterion met
 Total energy in the final basis set =     -915.5256198539
    9    -915.5257242075      3.23e-07  Convergence criterion met
 Total energy in the final basis set =     -915.5257242075
    9    -915.5257501536      3.31e-07  Convergence criterion met
 Total energy in the final basis set =     -915.5257501536
    9    -915.5257565659      3.36e-07  Convergence criterion met
 Total energy in the final basis set =     -915.5257565659
    9    -915.5257601417      3.37e-07  Convergence criterion met
 Total energy in the final basis set =     -915.5257601417
    9    -915.5257647880      3.37e-07  Convergence criterion met
 Total energy in the final basis set =     -915.5257647880
    9    -915.5257676759      3.35e-07  Convergence criterion met
 Total energy in the final basis set =     -915.5257676759

             Standard Nuclear Orientation (Angstroms)
    I     Atom           X                Y                Z
 ----------------------------------------------------------------
    1      S       0.6736846735    -1.7141859149     0.2175566377
    2      S      -2.3185794258     0.1285393964    -0.1813263939
    3      C       0.5152785503     0.0652128490    -0.2826471015
    4      C      -0.7122749939     0.7440173106     0.3487430355
    5      C       1.7990423769     0.8486161675     0.0077353187
    6      H       0.3596444721     0.0003659865    -1.3643659239
    7      H      -0.6325413182     0.7183448875     1.4412414222
    8      H      -0.7127164360     1.8009178318     0.0579138148
    9      H       1.7144941991     1.8715503476    -0.3768116910
   10      H       1.9887783464     0.9112585387     1.0850181038
   11      H       2.6632599803     0.3729628433    -0.4614147915
   12      H       1.0250520877    -1.4721125572     1.4977044504
   13      H      -2.1234225124    -1.1504876867     0.1996531188
 ----------------------------------------------------------------

    9    -915.5257685784      3.33e-07  Convergence criterion met
 Total energy in the final basis set =     -915.5257685784

                    Orbital Energies (a.u.)
 --------------------------------------------------------------

 Alpha MOs
 -- Occupied --
-88.881 -88.872 -10.239 -10.227 -10.196  -7.943  -7.935  -5.908
 -5.905  -5.900  -5.898  -5.896  -5.889  -0.839  -0.764  -0.714
 -0.655  -0.589  -0.483  -0.452  -0.432  -0.422  -0.399  -0.382
 -0.360  -0.330  -0.322  -0.248  -0.237

 Beta MOs
 -- Occupied --
-88.881 -88.872 -10.239 -10.227 -10.196  -7.943  -7.935  -5.908
 -5.905  -5.900  -5.898  -5.896  -5.889  -0.839  -0.764  -0.714
 -0.655  -0.589  -0.483  -0.452  -0.432  -0.422  -0.399  -0.382
 -0.360  -0.330  -0.322  -0.248  -0.237

          Ground-State Mulliken Net Atomic Charges

     Atom                 Charge (a.u.)    Spin (a.u.)
  --------------------------------------------------------
      1 S                    -0.046418      -0.000000
      2 S                    -0.043609       0.000000
      3 C                    -0.210986      -0.000000
      4 C                    -0.314841       0.000000
      5 C                    -0.311185       0.000000
      6 H                     0.154349       0.000000
      7 H                     0.135243       0.000000
      8 H                     0.140890      -0.000000
      9 H                     0.113587       0.000000
     10 H                     0.110352      -0.000000
     11 H                     0.132232       0.000000
     12 H                     0.058374       0.000000
     13 H                     0.082014      -0.000000
  --------------------------------------------------------
  Sum of atomic charges =     0.000000

                    Cartesian Multipole Moments
 -----------------------------------------------------------------
    Charge (ESU x 10^10)
                -0.0000
    Dipole Moment (Debye)
         X       1.7748      Y       1.2469      Z       0.9870
       Tot       2.3830
    Quadrupole Moments (Debye-Ang)
        XX     -52.1865     XY       2.9878     YY     -47.6826
        XZ       0.2338     YZ      -1.4839     ZZ     -45.4883

 Final energy is   -915.525768578379
 **  OPTIMIZATION CONVERGED  **
 Total job time:  47.72s(wall), 552.20s(cpu)
        *  Thank you very much for using Q-Chem.  Have a nice day.  *
