 Q-Chem 5.1, Q-Chem, Inc., Pleasanton, CA (2018)
 Q-Chem 5.1.1 for Intel X86 EM64T Linux

User input:
--------------------------------------------------------------

$comment
potential surface scanner
$end

$rem
JOBTYPE  PES_SCAN
UNRESTRICTED TRUE
SYM_IGNORE  TRUE
GEOM_OPT_MAX_CYCLES 400
SCF_MAX_CYCLES 400
METHOD   B3LYP
BASIS   6-31G**
PDB_PRINT 2
SCF_CONVERGENCE 6
THRESH 14
SCF_PRINT 1
$end
$molecule
0 3
S 0.399980 -1.416887 -0.240222
S -3.512216 -0.872790 0.173392
C 0.688396 0.476004 -0.277877
C -0.316253 1.145396 0.564216
C 2.136906 0.803917 0.081709
H 0.503721 0.677708 -1.338389
H -0.100274 1.347392 1.609307
H -1.336288 1.267139 0.217401
H 2.315285 1.877102 -0.048725
H 2.345940 0.554450 1.127293
H 2.838324 0.252876 -0.548837
H 0.609319 -1.568332 1.083502
H -2.333140 -1.418979 -0.213772
$end
$scan
stre 2 4 3.700000 3.701000 0.100000
$end
--------------------------------------------------------------

   21    -915.4175485401      4.07e-07  Convergence criterion met
 Total energy in the final basis set =     -915.4175485401
   21    -915.4173327924      4.27e-07  Convergence criterion met
 Total energy in the final basis set =     -915.4173327924
   21    -915.4173407240      4.53e-07  Convergence criterion met
 Total energy in the final basis set =     -915.4173407240
   21    -915.4173466509      4.77e-07  Convergence criterion met
 Total energy in the final basis set =     -915.4173466509
   20    -915.4173487508      9.89e-07  Convergence criterion met
 Total energy in the final basis set =     -915.4173487508
   18    -915.4173523306      4.68e-07  Convergence criterion met
 Total energy in the final basis set =     -915.4173523306
   18    -915.4173547946      8.30e-07  Convergence criterion met
 Total energy in the final basis set =     -915.4173547946
   18    -915.4173576636      7.18e-07  Convergence criterion met
   11    -915.4237637715      3.68e-07  Convergence criterion met
 Total energy in the final basis set =     -915.4237637715
   11    -915.4237808223      3.61e-07  Convergence criterion met
 Total energy in the final basis set =     -915.4237808223
   11    -915.4237939006      3.58e-07  Convergence criterion met
 Total energy in the final basis set =     -915.4237939006
   11    -915.4238094427      3.56e-07  Convergence criterion met
 Total energy in the final basis set =     -915.4238094427
   11    -915.4238157177      3.53e-07  Convergence criterion met
 Total energy in the final basis set =     -915.4238157177
   11    -915.4238196658      3.52e-07  Convergence criterion met
 Total energy in the final basis set =     -915.4238196658

             Standard Nuclear Orientation (Angstroms)
    I     Atom           X                Y                Z
 ----------------------------------------------------------------
    1      S       0.1831996038    -1.3091330467     0.1001856806
    2      S      -2.7993668144    -1.2203039793     0.2017408637
    3      C       0.6482083619     0.5311900053    -0.2080236900
    4      C      -0.2283930156     1.4146997964     0.5716720774
    5      C       2.1429467647     0.7306435988     0.0425017452
    6      H       0.4208225401     0.6019748670    -1.2769334864
    7      H       0.0845815053     1.7579780702     1.5534982052
    8      H      -1.2591589718     1.5661740140     0.2749455247
    9      H       2.4271467204     1.7523765553    -0.2329129428
   10      H       2.3866120774     0.5877500682     1.1004268566
   11      H       2.7450266617     0.0329269245    -0.5440846990
   12      H       0.1987815165    -1.2482985455     1.4457033293
   13      H      -2.7107069499    -2.0729823282    -0.8397214644
 ----------------------------------------------------------------

   11    -915.4238202412      3.52e-07  Convergence criterion met
 Total energy in the final basis set =     -915.4238202412

                    Orbital Energies (a.u.)
 --------------------------------------------------------------

 Alpha MOs
 -- Occupied --
-88.907 -88.860 -10.249 -10.211 -10.201  -7.968  -7.921  -5.932
 -5.929  -5.926  -5.890  -5.883  -5.874  -0.835  -0.733  -0.701
 -0.689  -0.593  -0.485  -0.454  -0.437  -0.413  -0.386  -0.373
 -0.369  -0.356  -0.310  -0.232  -0.226  -0.220

 Beta MOs
 -- Occupied --
-88.904 -88.855 -10.250 -10.200 -10.198  -7.965  -7.916  -5.929
 -5.926  -5.920  -5.880  -5.874  -5.872  -0.826  -0.720  -0.680
 -0.658  -0.583  -0.479  -0.450  -0.431  -0.408  -0.380  -0.366
 -0.361  -0.342  -0.270  -0.220

          Ground-State Mulliken Net Atomic Charges

     Atom                 Charge (a.u.)    Spin (a.u.)
  --------------------------------------------------------
      1 S                     0.026993       0.357800
      2 S                    -0.236730       0.822159
      3 C                    -0.225350      -0.093568
      4 C                    -0.195028       1.003220
      5 C                    -0.304236       0.009574
      6 H                     0.156133       0.015481
      7 H                     0.112719      -0.044215
      8 H                     0.146811      -0.043588
      9 H                     0.124169       0.003077
     10 H                     0.115549      -0.000973
     11 H                     0.126253       0.000984
     12 H                     0.090598      -0.009343
     13 H                     0.062118      -0.020608
  --------------------------------------------------------
  Sum of atomic charges =    -0.000000

                    Cartesian Multipole Moments
 -----------------------------------------------------------------
    Charge (ESU x 10^10)
                -0.0000
    Dipole Moment (Debye)
         X       3.0799      Y       1.3729      Z      -0.1344
       Tot       3.3747
    Quadrupole Moments (Debye-Ang)
        XX     -53.8018     XY      -0.9504     YY     -48.2613
        XZ       2.6876     YZ       1.6827     ZZ     -44.1929

 Final energy is   -915.423820241181
 **  OPTIMIZATION CONVERGED  **
 Total job time:  203.66s(wall), 2364.30s(cpu)
        *  Thank you very much for using Q-Chem.  Have a nice day.  *
