 Q-Chem 5.1, Q-Chem, Inc., Pleasanton, CA (2018)
 Q-Chem 5.1.1 for Intel X86 EM64T Linux

User input:
--------------------------------------------------------------

$comment
potential surface scanner
$end

$rem
JOBTYPE  PES_SCAN
UNRESTRICTED TRUE
SYM_IGNORE  TRUE
GEOM_OPT_MAX_CYCLES 400
SCF_MAX_CYCLES 400
METHOD   B3LYP
BASIS   6-31G**
PDB_PRINT 2
SCF_CONVERGENCE 6
THRESH 14
SCF_PRINT 1
$end
$molecule
0 1
S 0.653000 -1.655100 0.136100
S -2.273700 -0.042700 -0.103500
C 0.513800 0.101500 -0.361300
C -0.697000 0.778900 0.292500
C 1.803900 0.817400 0.036300
H 0.414100 0.130900 -1.452400
H -0.592400 0.804400 1.383200
H -0.770600 1.816900 -0.049700
H 1.768400 1.866200 -0.278900
H 1.962400 0.805000 1.120700
H 2.677400 0.363600 -0.445400
H 0.755100 -1.437500 1.455700
H -1.974700 -1.224500 0.455700
$end
$scan
stre 2 4 1.400000 1.401000 0.100000
$end
--------------------------------------------------------------

    9    -915.5220086792      2.35e-07  Convergence criterion met
 Total energy in the final basis set =     -915.5220086792
    9    -915.5114253112      4.32e-07  Convergence criterion met
 Total energy in the final basis set =     -915.5114253112
    9    -915.4733460872      5.12e-07  Convergence criterion met
 Total energy in the final basis set =     -915.4733460872
    9    -915.4041297451      5.86e-07  Convergence criterion met
 Total energy in the final basis set =     -915.4041297451
    9    -915.3935701075      6.11e-07  Convergence criterion met
 Total energy in the final basis set =     -915.3935701075
    9    -915.3939712525      6.27e-07  Convergence criterion met
 Total energy in the final basis set =     -915.3939712525
    9    -915.3941078298      6.32e-07  Convergence criterion met
 Total energy in the final basis set =     -915.3941078298
    9    -915.3941653696      6.32e-07  Convergence criterion met
    9    -915.3942399188      6.28e-07  Convergence criterion met
 Total energy in the final basis set =     -915.3942399188
    9    -915.3942607101      6.27e-07  Convergence criterion met
 Total energy in the final basis set =     -915.3942607101
    9    -915.3942740017      6.27e-07  Convergence criterion met
 Total energy in the final basis set =     -915.3942740017
    9    -915.3942799325      6.27e-07  Convergence criterion met
 Total energy in the final basis set =     -915.3942799325
    9    -915.3942825658      6.27e-07  Convergence criterion met
 Total energy in the final basis set =     -915.3942825658
    9    -915.3942837809      6.27e-07  Convergence criterion met
 Total energy in the final basis set =     -915.3942837809

             Standard Nuclear Orientation (Angstroms)
    I     Atom           X                Y                Z
 ----------------------------------------------------------------
    1      S       0.6777010008    -1.7406846990     0.1592545831
    2      S      -2.0845510176     0.2331914698    -0.0972609833
    3      C       0.5095495351     0.0385947556    -0.3191627200
    4      C      -0.8133030813     0.6724638306     0.2912860110
    5      C       1.7543393636     0.8489625837     0.0337405551
    6      H       0.3800552020    -0.0103278597    -1.4067213727
    7      H      -0.5711716091     0.7341878341     1.3808884906
    8      H      -0.7110356777     1.7335307764     0.0024285948
    9      H       1.6521181086     1.8792344948    -0.3287967312
   10      H       1.9024539089     0.8922538876     1.1188330412
   11      H       2.6520382749     0.4151976816    -0.4123225408
   12      H       0.9877907341    -1.5102327583     1.4528711190
   13      H      -2.0962847423    -1.0613719971     0.3139619531
 ----------------------------------------------------------------

    9    -915.3942844541      6.27e-07  Convergence criterion met
 Total energy in the final basis set =     -915.3942844541

                    Orbital Energies (a.u.)
 --------------------------------------------------------------

 Alpha MOs
 -- Occupied --
-88.879 -88.855 -10.233 -10.208 -10.194  -7.941  -7.932  -5.906
 -5.902  -5.897  -5.896  -5.892  -5.886  -0.900  -0.799  -0.712
 -0.639  -0.589  -0.512  -0.458  -0.446  -0.432  -0.408  -0.391
 -0.360  -0.333  -0.301  -0.249  -0.219

 Beta MOs
 -- Occupied --
-88.879 -88.855 -10.233 -10.208 -10.194  -7.941  -7.932  -5.906
 -5.902  -5.897  -5.896  -5.892  -5.886  -0.900  -0.799  -0.712
 -0.639  -0.589  -0.512  -0.458  -0.446  -0.432  -0.408  -0.391
 -0.360  -0.333  -0.301  -0.249  -0.219

          Ground-State Mulliken Net Atomic Charges

     Atom                 Charge (a.u.)    Spin (a.u.)
  --------------------------------------------------------
      1 S                    -0.052760      -0.000000
      2 S                    -0.012994      -0.000000
      3 C                    -0.230028      -0.000000
      4 C                    -0.256865       0.000000
      5 C                    -0.312547       0.000000
      6 H                     0.144914      -0.000000
      7 H                     0.102682      -0.000000
      8 H                     0.148327       0.000000
      9 H                     0.109746       0.000000
     10 H                     0.110720       0.000000
     11 H                     0.131081      -0.000000
     12 H                     0.057598       0.000000
     13 H                     0.060127       0.000000
  --------------------------------------------------------
  Sum of atomic charges =    -0.000000

                    Cartesian Multipole Moments
 -----------------------------------------------------------------
    Charge (ESU x 10^10)
                 0.0000
    Dipole Moment (Debye)
         X       1.4086      Y       1.4172      Z       0.9531
       Tot       2.2138
    Quadrupole Moments (Debye-Ang)
        XX     -51.3766     XY       2.7726     YY     -47.7899
        XZ      -0.0244     YZ      -1.7717     ZZ     -45.2566

 Final energy is   -915.394284454088
 **  OPTIMIZATION CONVERGED  **
 Total job time:  68.77s(wall), 788.49s(cpu)
        *  Thank you very much for using Q-Chem.  Have a nice day.  *
