 Q-Chem 5.1, Q-Chem, Inc., Pleasanton, CA (2018)
 Q-Chem 5.1.1 for Intel X86 EM64T Linux

User input:
--------------------------------------------------------------

$comment
potential surface scanner
$end

$rem
JOBTYPE  PES_SCAN
UNRESTRICTED TRUE
SYM_IGNORE  TRUE
GEOM_OPT_MAX_CYCLES 400
SCF_MAX_CYCLES 400
METHOD   B3LYP
BASIS   6-31G**
PDB_PRINT 2
SCF_CONVERGENCE 6
THRESH 14
SCF_PRINT 1
$end
$molecule
0 1
S 0.668820 -1.688063 0.246011
S -2.560199 0.013777 -0.247426
C 0.536804 0.090418 -0.255540
C -0.617658 0.815978 0.402964
C 1.851890 0.847899 -0.003976
H 0.354280 0.033422 -1.332439
H -0.663749 0.728019 1.486874
H -0.719261 1.851110 0.077244
H 1.785319 1.869390 -0.394393
H 2.073953 0.910294 1.066748
H 2.685475 0.341240 -0.495883
H 1.060315 -1.452097 1.515298
H -2.216287 -1.236386 0.123521
$end
$scan
stre 2 4 2.300000 2.301000 0.100000
$end
--------------------------------------------------------------

    9    -915.5025027508      8.74e-07  Convergence criterion met
 Total energy in the final basis set =     -915.5025027508
    9    -915.4925991096      9.14e-07  Convergence criterion met
 Total energy in the final basis set =     -915.4925991096
    9    -915.4924969415      9.15e-07  Convergence criterion met
 Total energy in the final basis set =     -915.4924969415
    9    -915.4925697336      9.16e-07  Convergence criterion met
 Total energy in the final basis set =     -915.4925697336
    9    -915.4925722610      9.16e-07  Convergence criterion met
 Total energy in the final basis set =     -915.4925722610

             Standard Nuclear Orientation (Angstroms)
    I     Atom           X                Y                Z
 ----------------------------------------------------------------
    1      S       0.6692914245    -1.6810371522     0.2553397934
    2      S      -2.6208930967    -0.0137745817    -0.2662311875
    3      C       0.5434651784     0.0965584069    -0.2474486466
    4      C      -0.5944267397     0.8321487717     0.4177625508
    5      C       1.8659992886     0.8486114783    -0.0072255193
    6      H       0.3535122651     0.0416819775    -1.3230234643
    7      H      -0.6700442918     0.7285148542     1.4975609082
    8      H      -0.7205092230     1.8606243705     0.0833667880
    9      H       1.8026814163     1.8695499677    -0.3992910737
   10      H       2.0977400659     0.9107580378     1.0613322128
   11      H       2.6909973687     0.3345422385    -0.5059768044
   12      H       1.0724208939    -1.4457284846     1.5210508169
   13      H      -2.2505325504    -1.2574488846     0.1017866258
 ----------------------------------------------------------------

    9    -915.4925732167      9.17e-07  Convergence criterion met
 Total energy in the final basis set =     -915.4925732167

                    Orbital Energies (a.u.)
 --------------------------------------------------------------

 Alpha MOs
 -- Occupied --
-88.885 -88.868 -10.252 -10.248 -10.205  -7.948  -7.928  -5.913
 -5.909  -5.902  -5.893  -5.890  -5.882  -0.837  -0.723  -0.716
 -0.670  -0.596  -0.482  -0.461  -0.433  -0.419  -0.399  -0.374
 -0.367  -0.333  -0.291  -0.250  -0.232

 Beta MOs
 -- Occupied --
-88.885 -88.868 -10.252 -10.248 -10.205  -7.948  -7.928  -5.913
 -5.909  -5.902  -5.893  -5.890  -5.882  -0.837  -0.723  -0.716
 -0.670  -0.596  -0.482  -0.461  -0.433  -0.419  -0.399  -0.374
 -0.367  -0.333  -0.291  -0.250  -0.232

          Ground-State Mulliken Net Atomic Charges

     Atom                 Charge (a.u.)    Spin (a.u.)
  --------------------------------------------------------
      1 S                    -0.029235       0.000000
      2 S                    -0.193773       0.000000
      3 C                    -0.215390      -0.000000
      4 C                    -0.229207      -0.000000
      5 C                    -0.315444       0.000000
      6 H                     0.167499       0.000000
      7 H                     0.153230      -0.000000
      8 H                     0.151083      -0.000000
      9 H                     0.118167      -0.000000
     10 H                     0.114026      -0.000000
     11 H                     0.138792      -0.000000
     12 H                     0.057791      -0.000000
     13 H                     0.082462      -0.000000
  --------------------------------------------------------
  Sum of atomic charges =    -0.000000

                    Cartesian Multipole Moments
 -----------------------------------------------------------------
    Charge (ESU x 10^10)
                -0.0000
    Dipole Moment (Debye)
         X       2.8117      Y       1.4380      Z       1.1352
       Tot       3.3559
    Quadrupole Moments (Debye-Ang)
        XX     -54.6302     XY       2.6533     YY     -46.8895
        XZ       0.1318     YZ      -1.2672     ZZ     -45.5657

 Final energy is   -915.492573216745
 **  OPTIMIZATION CONVERGED  **
 Total job time:  23.72s(wall), 272.32s(cpu)
        *  Thank you very much for using Q-Chem.  Have a nice day.  *
