 Q-Chem 5.0, Q-Chem, Inc., Pleasanton, CA (2017)
 Q-Chem 5.0.0 for Intel X86 Linux

User input:
--------------------------------------------------------------
$comment
A single point DFT calculation in with basis
Mo
lanl2dz
**** set projection
$end

$molecule
0  3
C    -0.98640     0.00000     0.69120
C     0.53630     0.00010     0.53380
C    -1.78450    -0.00010    -0.60800
Cl    1.11730    -1.45760    -0.30850
Cl    1.11720     1.45760    -0.30860
H    -1.28430     0.87690     1.28000
H    -1.28420    -0.87680     1.28010
H     1.00350     0.00010     1.52300
H    -1.57530    -0.88750    -1.21210
H    -2.85630    -0.00010    -0.38330
H    -1.57540     0.88740    -1.21220
$end

$rem
JOBTYPE  OPT
UNRESTRICTED TRUE
SYM_IGNORE  TRUE
GEOM_OPT_MAX_CYCLES 400
SCF_MAX_CYCLES 400
METHOD   B3LYP
BASIS   6-31G**
PDB_PRINT 2
SCF_CONVERGENCE 8
THRESH 10
SCF_PRINT 1
$end

--------------------------------------------------------------

   40   -1038.0993599530      4.49E-09 Convergence criterion met
   20   -1038.1323112766      8.87E-09 Convergence criterion met
   19   -1038.1513382094      7.35E-09 Convergence criterion met
   20   -1038.1612132192      5.91E-09 Convergence criterion met
   19   -1038.1660313330      9.59E-09 Convergence criterion met
   21   -1038.1713751260      7.71E-09 Convergence criterion met
   21   -1038.1769910708      2.42E-09 Convergence criterion met
   20   -1038.1838524037      5.57E-09 Convergence criterion met
   20   -1038.1928590575      5.26E-09 Convergence criterion met
   20   -1038.2038345047      9.36E-09 Convergence criterion met
   19   -1038.2140519019      9.65E-09 Convergence criterion met
   19   -1038.2192874258      4.88E-09 Convergence criterion met
   18   -1038.2216733744      5.44E-09 Convergence criterion met
   17   -1038.2233054892      9.51E-09 Convergence criterion met
   17   -1038.2242201383      4.96E-09 Convergence criterion met
   16   -1038.2271906008      5.69E-09 Convergence criterion met
   16   -1038.2273969664      4.76E-09 Convergence criterion met
   16   -1038.2274835429      7.95E-09 Convergence criterion met
   15   -1038.2276035342      7.39E-09 Convergence criterion met
   15   -1038.2276675928      6.91E-09 Convergence criterion met
   12   -1038.2276858489      9.42E-09 Convergence criterion met
   12   -1038.2276915779      5.09E-09 Convergence criterion met
   11   -1038.2276948552      7.24E-09 Convergence criterion met
   12   -1038.2277037952      6.58E-09 Convergence criterion met
   15   -1038.2277288249      7.42E-09 Convergence criterion met
   15   -1038.2277433008      7.78E-09 Convergence criterion met
   13   -1038.2277775025      9.65E-09 Convergence criterion met
   12   -1038.2277990017      8.39E-09 Convergence criterion met

             Standard Nuclear Orientation (Angstroms)
    I     Atom           X                Y                Z
 ----------------------------------------------------------------
    1      C      -1.1953317338     0.3601864683     0.8051401484
    2      C       0.2299472922    -0.0566336127     0.6944972130
    3      C      -2.0629775074    -0.0079950176    -0.4191207150
    4      Cl      3.2933566627    -1.0970396659    -0.8032687989
    5      Cl      1.2787804130     0.8481820136    -0.3747278147
    6      H      -1.2525779020     1.4413771801     0.9811592180
    7      H      -1.5999876838    -0.1280120244     1.7008811946
    8      H       0.5861186738    -1.0654951231     0.8662465450
    9      H      -2.0587699864    -1.0877555709    -0.5943968461
   10      H      -3.0980434627     0.3090839298    -0.2580078413
   11      H      -1.6926147658     0.4841014226    -1.3230023031
 ----------------------------------------------------------------

   11   -1038.2277997369      4.84E-09 Convergence criterion met
 Final energy is   -1038.22779973686
 **  OPTIMIZATION CONVERGED  **

                    Orbital Energies (a.u.)
 --------------------------------------------------------------

 Alpha MOs
 -- Occupied --
*******-101.548 -10.266 -10.219 -10.197  -9.505  -9.460  -7.267
 -7.262  -7.259  -7.233  -7.213  -7.213  -0.903  -0.801  -0.792
 -0.687  -0.603  -0.499  -0.466  -0.434  -0.424  -0.391  -0.378
 -0.371  -0.363  -0.312  -0.311  -0.310  -0.223

 Beta MOs
 -- Occupied --
*******-101.542 -10.252 -10.219 -10.196  -9.502  -9.455  -7.266
 -7.257  -7.256  -7.214  -7.210  -7.209  -0.886  -0.789  -0.753
 -0.672  -0.588  -0.491  -0.458  -0.426  -0.406  -0.380  -0.364
 -0.356  -0.338  -0.298  -0.296

          Ground-State Mulliken Net Atomic Charges

     Atom                 Charge (a.u.)    Spin (a.u.)
  --------------------------------------------------------
      1 C                    -0.202699      -0.059022
      2 C                    -0.188175       0.957482
      3 C                    -0.315974       0.052445
      4 Cl                   -0.156698       0.828380
      5 Cl                    0.074159       0.223221
      6 H                     0.129389       0.016431
      7 H                     0.129162       0.007995
      8 H                     0.171814      -0.033183
      9 H                     0.117621      -0.001177
     10 H                     0.115727       0.009495
     11 H                     0.125674      -0.002066
  --------------------------------------------------------
  Sum of atomic charges =     0.000000

                    Cartesian Multipole Moments
 -----------------------------------------------------------------
    Charge (ESU x 10^10)
                 0.0000
    Dipole Moment (Debye)
         X      -3.3122      Y       0.4111      Z       1.0841
       Tot       3.5093
    Quadrupole Moments (Debye-Ang)
        XX     -51.0516     XY       1.2497     YY     -44.2287
        XZ       0.9360     YZ      -1.2932     ZZ     -45.4246

 Total job time:  112.76s(wall), 1288.57s(cpu)
        *  Thank you very much for using Q-Chem.  Have a nice day.  *
