 Q-Chem 5.1, Q-Chem, Inc., Pleasanton, CA (2018)
 Q-Chem 5.1.1 for Intel X86 EM64T Linux

User input:
--------------------------------------------------------------

$comment
potential surface scanner
$end

$rem
JOBTYPE  PES_SCAN
UNRESTRICTED TRUE
SYM_IGNORE  TRUE
GEOM_OPT_MAX_CYCLES 400
SCF_MAX_CYCLES 400
METHOD   B3LYP
BASIS   6-31G**
PDB_PRINT 2
SCF_CONVERGENCE 6
THRESH 14
SCF_PRINT 1
$end
$molecule
0 1
C -1.730200 1.249200 0.145700
C -1.070500 -0.000000 -0.441800
Se 0.838900 0.000000 0.000600
H 0.783300 0.000000 1.559600
C -1.730200 -1.249200 0.145700
H -1.260200 2.139200 -0.272800
H -2.792000 1.249200 -0.100300
H -1.608100 1.249200 1.228900
H -1.192500 -0.000000 -1.524900
H -2.792000 -1.249200 -0.100300
H -1.260200 -2.139200 -0.272800
H -1.608100 -1.249200 1.228900
$end
$scan
stre 3 4 1.300000 1.301000 0.100000
$end
--------------------------------------------------------------

    9   -2520.4375567929      9.33e-07  Convergence criterion met
 Total energy in the final basis set =    -2520.4375567929
    9   -2520.4430142722      6.12e-07  Convergence criterion met
 Total energy in the final basis set =    -2520.4430142722
    9   -2520.4296321257      5.78e-07  Convergence criterion met
 Total energy in the final basis set =    -2520.4296321257
    9   -2520.4290480763      5.78e-07  Convergence criterion met
 Total energy in the final basis set =    -2520.4290480763
    9   -2520.4291021215      5.79e-07  Convergence criterion met
 Total energy in the final basis set =    -2520.4291021215
    9   -2520.4291039473      5.79e-07  Convergence criterion met
 Total energy in the final basis set =    -2520.4291039473

             Standard Nuclear Orientation (Angstroms)
    I     Atom           X                Y                Z
 ----------------------------------------------------------------
    1      C      -1.7334832524     1.2735406579     0.1599924325
    2      C      -1.0681312844     0.0000000000    -0.3590470489
    3      Se      0.9043313342     0.0000000000     0.0148640406
    4      H       0.7660828579     0.0000000000     1.3074921122
    5      C      -1.7334832524    -1.2735406579     0.1599924325
    6      H      -1.2567679038     2.1699521434    -0.2429640273
    7      H      -2.7929380626     1.2868358451    -0.1267663676
    8      H      -1.6871977284     1.3275253187     1.2531827304
    9      H      -1.0833090135     0.0000000000    -1.4536986399
   10      H      -2.7929380626    -1.2868358451    -0.1267663676
   11      H      -1.2567679038    -2.1699521434    -0.2429640273
   12      H      -1.6871977284    -1.3275253187     1.2531827304
 ----------------------------------------------------------------

    9   -2520.4291041225      5.79e-07  Convergence criterion met
 Total energy in the final basis set =    -2520.4291041225

                    Orbital Energies (a.u.)
 --------------------------------------------------------------

 Alpha MOs
 -- Occupied --
******* -58.077 -52.134 -52.133 -52.131 -10.228 -10.186 -10.186
 -7.812  -5.757  -5.753  -5.744  -2.092  -2.090  -2.083  -2.080
 -2.078  -0.807  -0.701  -0.693  -0.581  -0.461  -0.443  -0.415
 -0.392  -0.384  -0.354  -0.345  -0.300  -0.222

 Beta MOs
 -- Occupied --
******* -58.077 -52.134 -52.133 -52.131 -10.228 -10.186 -10.186
 -7.812  -5.757  -5.753  -5.744  -2.092  -2.090  -2.083  -2.080
 -2.078  -0.807  -0.701  -0.693  -0.581  -0.461  -0.443  -0.415
 -0.392  -0.384  -0.354  -0.345  -0.300  -0.222

          Ground-State Mulliken Net Atomic Charges

     Atom                 Charge (a.u.)    Spin (a.u.)
  --------------------------------------------------------
      1 C                    -0.302570      -0.000000
      2 C                    -0.143046       0.000000
      3 Se                   -0.116427       0.000000
      4 H                     0.063410      -0.000000
      5 C                    -0.302570      -0.000000
      6 H                     0.125504       0.000000
      7 H                     0.104124       0.000000
      8 H                     0.107841       0.000000
      9 H                     0.126266      -0.000000
     10 H                     0.104124      -0.000000
     11 H                     0.125504       0.000000
     12 H                     0.107841       0.000000
  --------------------------------------------------------
  Sum of atomic charges =    -0.000000

                    Cartesian Multipole Moments
 -----------------------------------------------------------------
    Charge (ESU x 10^10)
                -0.0000
    Dipole Moment (Debye)
         X      -1.7936      Y       0.0000      Z       0.4339
       Tot       1.8454
    Quadrupole Moments (Debye-Ang)
        XX     -38.9743     XY      -0.0000     YY     -40.8320
        XZ       1.3581     YZ       0.0000     ZZ     -36.8716

 Final energy is   -2520.42910412252
 **  OPTIMIZATION CONVERGED  **
 Total job time:  27.79s(wall), 319.69s(cpu)
        *  Thank you very much for using Q-Chem.  Have a nice day.  *
