 Q-Chem 5.1, Q-Chem, Inc., Pleasanton, CA (2018)
 Q-Chem 5.1.1 for Intel X86 EM64T Linux

User input:
--------------------------------------------------------------

$comment
potential surface scanner
$end

$rem
JOBTYPE  PES_SCAN
UNRESTRICTED TRUE
SYM_IGNORE  TRUE
GEOM_OPT_MAX_CYCLES 400
SCF_MAX_CYCLES 400
METHOD   B3LYP
BASIS   6-31G**
PDB_PRINT 2
SCF_CONVERGENCE 6
THRESH 14
SCF_PRINT 1
$end
$molecule
0 1
C -1.732642 1.273150 0.152534
C -1.074808 0.000000 -0.376825
Se 0.903779 0.000000 -0.048196
H 0.776525 0.000000 1.446396
C -1.732642 -1.273150 0.152534
H -1.263686 2.170227 -0.257952
H -2.796923 1.285310 -0.115623
H -1.666294 1.325886 1.244658
H -1.108204 0.000000 -1.472110
H -2.796923 -1.285310 -0.115623
H -1.263686 -2.170227 -0.257952
H -1.666294 -1.325886 1.244658
$end
$scan
stre 3 4 1.600000 1.601000 0.100000
$end
--------------------------------------------------------------

    9   -2520.4449626200      7.96e-07  Convergence criterion met
 Total energy in the final basis set =    -2520.4449626200
    9   -2520.4406540696      7.82e-07  Convergence criterion met
 Total energy in the final basis set =    -2520.4406540696
    9   -2520.4405232787      7.79e-07  Convergence criterion met
 Total energy in the final basis set =    -2520.4405232787

             Standard Nuclear Orientation (Angstroms)
    I     Atom           X                Y                Z
 ----------------------------------------------------------------
    1      C      -1.7325484343     1.2728944218     0.1486988821
    2      C      -1.0785630134     0.0000000000    -0.3857695944
    3      Se      0.9023026805     0.0000000000    -0.0791760484
    4      H       0.7857401317     0.0000000000     1.5165724044
    5      C      -1.7325484343    -1.2728944218     0.1486988821
    6      H      -1.2680459747     2.1703991116    -0.2658808875
    7      H      -2.7992151909     1.2841077837    -0.1097844053
    8      H      -1.6556609751     1.3249831893     1.2400836234
    9      H      -1.1203366487     0.0000000000    -1.4813621872
   10      H      -2.7992151909    -1.2841077837    -0.1097844053
   11      H      -1.2680459747    -2.1703991116    -0.2658808875
   12      H      -1.6556609751    -1.3249831894     1.2400836234
 ----------------------------------------------------------------

    9   -2520.4405238267      7.79e-07  Convergence criterion met
 Total energy in the final basis set =    -2520.4405238267

                    Orbital Energies (a.u.)
 --------------------------------------------------------------

 Alpha MOs
 -- Occupied --
******* -58.086 -52.144 -52.143 -52.140 -10.228 -10.185 -10.185
 -7.819  -5.764  -5.760  -5.750  -2.098  -2.097  -2.089  -2.086
 -2.084  -0.805  -0.693  -0.678  -0.573  -0.461  -0.438  -0.415
 -0.392  -0.371  -0.354  -0.341  -0.300  -0.222

 Beta MOs
 -- Occupied --
******* -58.086 -52.144 -52.143 -52.140 -10.228 -10.185 -10.185
 -7.819  -5.764  -5.760  -5.750  -2.098  -2.097  -2.089  -2.086
 -2.084  -0.805  -0.693  -0.678  -0.573  -0.461  -0.438  -0.415
 -0.392  -0.371  -0.354  -0.341  -0.300  -0.222

          Ground-State Mulliken Net Atomic Charges

     Atom                 Charge (a.u.)    Spin (a.u.)
  --------------------------------------------------------
      1 C                    -0.300645       0.000000
      2 C                    -0.146979      -0.000000
      3 Se                   -0.089781      -0.000000
      4 H                     0.036791      -0.000000
      5 C                    -0.300645       0.000000
      6 H                     0.124338      -0.000000
      7 H                     0.103901      -0.000000
      8 H                     0.109840      -0.000000
      9 H                     0.125100      -0.000000
     10 H                     0.103901      -0.000000
     11 H                     0.124338       0.000000
     12 H                     0.109840      -0.000000
  --------------------------------------------------------
  Sum of atomic charges =    -0.000000

                    Cartesian Multipole Moments
 -----------------------------------------------------------------
    Charge (ESU x 10^10)
                -0.0000
    Dipole Moment (Debye)
         X      -1.7545      Y       0.0000      Z       0.2093
       Tot       1.7670
    Quadrupole Moments (Debye-Ang)
        XX     -39.0239     XY      -0.0000     YY     -41.1135
        XZ       1.1223     YZ      -0.0000     ZZ     -37.1320

 Final energy is   -2520.44052382669
 **  OPTIMIZATION CONVERGED  **
 Total job time:  15.83s(wall), 182.20s(cpu)
        *  Thank you very much for using Q-Chem.  Have a nice day.  *
