 Q-Chem 5.1, Q-Chem, Inc., Pleasanton, CA (2018)
 Q-Chem 5.1.1 for Intel X86 EM64T Linux

User input:
--------------------------------------------------------------

$comment
potential surface scanner
$end

$rem
JOBTYPE  PES_SCAN
UNRESTRICTED TRUE
SYM_IGNORE  TRUE
GEOM_OPT_MAX_CYCLES 400
SCF_MAX_CYCLES 400
METHOD   B3LYP
BASIS   6-31G**
PDB_PRINT 2
SCF_CONVERGENCE 6
THRESH 14
SCF_PRINT 1
$end
$molecule
0 1
C -1.730200 1.249200 0.145700
C -1.070500 -0.000000 -0.441800
Se 0.838900 0.000000 0.000600
H 0.783300 0.000000 1.559600
C -1.730200 -1.249200 0.145700
H -1.260200 2.139200 -0.272800
H -2.792000 1.249200 -0.100300
H -1.608100 1.249200 1.228900
H -1.192500 -0.000000 -1.524900
H -2.792000 -1.249200 -0.100300
H -1.260200 -2.139200 -0.272800
H -1.608100 -1.249200 1.228900
$end
$scan
stre 3 4 1.400000 1.401000 0.100000
$end
--------------------------------------------------------------

    9   -2520.4375567929      9.33e-07  Convergence criterion met
 Total energy in the final basis set =    -2520.4375567929
    9   -2520.4430142722      6.12e-07  Convergence criterion met
 Total energy in the final basis set =    -2520.4430142722
    9   -2520.4425266960      6.16e-07  Convergence criterion met
 Total energy in the final basis set =    -2520.4425266960
    9   -2520.4427432509      6.24e-07  Convergence criterion met
 Total energy in the final basis set =    -2520.4427432509
    9   -2520.4427644588      6.26e-07  Convergence criterion met
 Total energy in the final basis set =    -2520.4427644588

             Standard Nuclear Orientation (Angstroms)
    I     Atom           X                Y                Z
 ----------------------------------------------------------------
    1      C      -1.7332220447     1.2733800619     0.1563213224
    2      C      -1.0713550050     0.0000000000    -0.3672506818
    3      Se      0.9043556315     0.0000000000    -0.0171216806
    4      H       0.7731449667     0.0000000000     1.3767157027
    5      C      -1.7332220447    -1.2733800619     0.1563213224
    6      H      -1.2600549935     2.1700680294    -0.2502068749
    7      H      -2.7949255780     1.2861892238    -0.1219667705
    8      H      -1.6778325616     1.3272505278     1.2490658131
    9      H      -1.0958752373     0.0000000000    -1.4622703205
   10      H      -2.7949255780    -1.2861892238    -0.1219667705
   11      H      -1.2600549935    -2.1700680294    -0.2502068749
   12      H      -1.6778325616    -1.3272505278     1.2490658131
 ----------------------------------------------------------------

    9   -2520.4427651658      6.25e-07  Convergence criterion met
 Total energy in the final basis set =    -2520.4427651658

                    Orbital Energies (a.u.)
 --------------------------------------------------------------

 Alpha MOs
 -- Occupied --
******* -58.080 -52.137 -52.136 -52.134 -10.228 -10.185 -10.185
 -7.814  -5.759  -5.755  -5.746  -2.093  -2.092  -2.084  -2.081
 -2.080  -0.806  -0.693  -0.690  -0.578  -0.461  -0.441  -0.415
 -0.392  -0.380  -0.354  -0.344  -0.300  -0.222

 Beta MOs
 -- Occupied --
******* -58.080 -52.137 -52.136 -52.134 -10.228 -10.185 -10.185
 -7.814  -5.759  -5.755  -5.746  -2.093  -2.092  -2.084  -2.081
 -2.080  -0.806  -0.693  -0.690  -0.578  -0.461  -0.441  -0.415
 -0.392  -0.380  -0.354  -0.344  -0.300  -0.222

          Ground-State Mulliken Net Atomic Charges

     Atom                 Charge (a.u.)    Spin (a.u.)
  --------------------------------------------------------
      1 C                    -0.301872      -0.000000
      2 C                    -0.144499      -0.000000
      3 Se                   -0.108604      -0.000000
      4 H                     0.056391      -0.000000
      5 C                    -0.301872       0.000000
      6 H                     0.125084       0.000000
      7 H                     0.104000       0.000000
      8 H                     0.108298       0.000000
      9 H                     0.125693       0.000000
     10 H                     0.104000      -0.000000
     11 H                     0.125084      -0.000000
     12 H                     0.108298      -0.000000
  --------------------------------------------------------
  Sum of atomic charges =     0.000000

                    Cartesian Multipole Moments
 -----------------------------------------------------------------
    Charge (ESU x 10^10)
                -0.0000
    Dipole Moment (Debye)
         X      -1.7717      Y       0.0000      Z       0.3689
       Tot       1.8097
    Quadrupole Moments (Debye-Ang)
        XX     -38.9966     XY      -0.0000     YY     -40.9408
        XZ       1.2899     YZ       0.0000     ZZ     -36.9516

 Final energy is   -2520.44276516576
 **  OPTIMIZATION CONVERGED  **
 Total job time:  25.43s(wall), 283.53s(cpu)
        *  Thank you very much for using Q-Chem.  Have a nice day.  *
