 Q-Chem 5.1, Q-Chem, Inc., Pleasanton, CA (2018)
 Q-Chem 5.1.1 for Intel X86 EM64T Linux

User input:
--------------------------------------------------------------

$comment
potential surface scanner
$end

$rem
JOBTYPE  PES_SCAN
UNRESTRICTED TRUE
SYM_IGNORE  TRUE
GEOM_OPT_MAX_CYCLES 400
SCF_MAX_CYCLES 400
METHOD   B3LYP
BASIS   6-31G**
PDB_PRINT 2
SCF_CONVERGENCE 6
THRESH 14
SCF_PRINT 1
$end
$molecule
0 1
C -1.713006 1.273965 0.086224
C -1.149595 0.000000 -0.543465
Se 0.822971 0.000000 -0.610988
H 0.864570 0.000000 2.688750
C -1.713006 -1.273965 0.086224
H -1.326945 2.173511 -0.398191
H -2.807259 1.277295 0.008098
H -1.447426 1.316956 1.147580
H -1.370474 0.000000 -1.625226
H -2.807259 -1.277295 0.008098
H -1.326945 -2.173511 -0.398191
H -1.447426 -1.316956 1.147580
$end
$scan
stre 3 4 3.400000 3.401000 0.100000
$end
--------------------------------------------------------------

   17   -2520.2828017882      6.68e-07  Convergence criterion met
 Total energy in the final basis set =    -2520.2828017882
   21   -2520.2782816792      1.28e-07  Convergence criterion met
 Total energy in the final basis set =    -2520.2782816792
   21   -2520.2782522001      4.33e-07  Convergence criterion met
 Total energy in the final basis set =    -2520.2782522001
   21   -2520.2782902052      2.26e-07  Convergence criterion met
 Total energy in the final basis set =    -2520.2782902052
   21   -2520.2782921382      2.29e-07  Convergence criterion met
 Total energy in the final basis set =    -2520.2782921382
   21   -2520.2782970868      2.75e-07  Convergence criterion met
 Total energy in the final basis set =    -2520.2782970868

             Standard Nuclear Orientation (Angstroms)
    I     Atom           X                Y                Z
 ----------------------------------------------------------------
    1      C      -1.7084312804     1.2745093165     0.0845273211
    2      C      -1.1541750364     0.0000000000    -0.5522828577
    3      Se      0.8160938490     0.0000000000    -0.6523303795
    4      H       0.8468125643     0.0000000000     2.7475305767
    5      C      -1.7084312804    -1.2745093166     0.0845273211
    6      H      -1.3222183117     2.1732025719    -0.4010828799
    7      H      -2.8032401314     1.2820718654     0.0144434668
    8      H      -1.4349278786     1.3137933185     1.1442912491
    9      H      -1.3928961723     0.0000000000    -1.6307826535
   10      H      -2.8032401315    -1.2820718654     0.0144434668
   11      H      -1.3222183118    -2.1732025721    -0.4010828799
   12      H      -1.4349278786    -1.3137933185     1.1442912491
 ----------------------------------------------------------------

   21   -2520.2782974255      2.89e-07  Convergence criterion met
 Total energy in the final basis set =    -2520.2782974255

                    Orbital Energies (a.u.)
 --------------------------------------------------------------

 Alpha MOs
 -- Occupied --
******* -58.110 -52.169 -52.167 -52.164 -10.239 -10.190 -10.190
 -7.842  -5.789  -5.784  -5.772  -2.122  -2.122  -2.112  -2.108
 -2.106  -0.814  -0.698  -0.678  -0.571  -0.468  -0.441  -0.420
 -0.395  -0.362  -0.360  -0.317  -0.250  -0.232

 Beta MOs
 -- Occupied --
******* -58.110 -52.169 -52.167 -52.164 -10.239 -10.190 -10.190
 -7.842  -5.789  -5.784  -5.772  -2.122  -2.122  -2.112  -2.108
 -2.106  -0.814  -0.698  -0.678  -0.571  -0.468  -0.441  -0.420
 -0.395  -0.362  -0.360  -0.317  -0.250  -0.232

          Ground-State Mulliken Net Atomic Charges

     Atom                 Charge (a.u.)    Spin (a.u.)
  --------------------------------------------------------
      1 C                    -0.300623      -0.000001
      2 C                    -0.163038       0.000000
      3 Se                   -0.050295       0.000000
      4 H                    -0.035160      -0.000000
      5 C                    -0.300623       0.000001
      6 H                     0.124849       0.000000
      7 H                     0.106614      -0.000000
      8 H                     0.123862       0.000000
      9 H                     0.139088       0.000000
     10 H                     0.106614       0.000000
     11 H                     0.124849      -0.000000
     12 H                     0.123862      -0.000000
  --------------------------------------------------------
  Sum of atomic charges =    -0.000000

                    Cartesian Multipole Moments
 -----------------------------------------------------------------
    Charge (ESU x 10^10)
                 0.0000
    Dipole Moment (Debye)
         X      -2.0819      Y       0.0000      Z      -0.7370
       Tot       2.2085
    Quadrupole Moments (Debye-Ang)
        XX     -38.5813     XY       0.0000     YY     -41.2451
        XZ       0.6095     YZ      -0.0000     ZZ     -39.0116

 Final energy is   -2520.27829742553
 **  OPTIMIZATION CONVERGED  **
 Total job time:  47.31s(wall), 555.79s(cpu)
        *  Thank you very much for using Q-Chem.  Have a nice day.  *
