 Q-Chem 5.1, Q-Chem, Inc., Pleasanton, CA (2018)
 Q-Chem 5.1.1 for Intel X86 EM64T Linux

User input:
--------------------------------------------------------------

$comment
potential surface scanner
$end

$rem
JOBTYPE  PES_SCAN
UNRESTRICTED TRUE
SYM_IGNORE  TRUE
GEOM_OPT_MAX_CYCLES 400
SCF_MAX_CYCLES 400
METHOD   B3LYP
BASIS   6-31G**
PDB_PRINT 2
SCF_CONVERGENCE 6
THRESH 14
SCF_PRINT 1
$end
$molecule
0 1
C -1.732550 1.273314 0.121696
C -1.108737 0.000000 -0.446010
Se 0.873855 0.000000 -0.292428
H 0.871733 0.000000 2.007570
C -1.732550 -1.273314 0.121696
H -1.294424 2.171288 -0.319608
H -2.812425 1.281432 -0.072932
H -1.585031 1.320874 1.205552
H -1.209787 0.000000 -1.542054
H -2.812425 -1.281432 -0.072932
H -1.294424 -2.171288 -0.319608
H -1.585031 -1.320874 1.205552
$end
$scan
stre 3 4 2.400000 2.401000 0.100000
$end
--------------------------------------------------------------

   11   -2520.3597132737      1.19e-07  Convergence criterion met
 Total energy in the final basis set =    -2520.3597132737
   11   -2520.3491563855      3.56e-07  Convergence criterion met
 Total energy in the final basis set =    -2520.3491563855
   11   -2520.3489222961      3.64e-07  Convergence criterion met
 Total energy in the final basis set =    -2520.3489222961

             Standard Nuclear Orientation (Angstroms)
    I     Atom           X                Y                Z
 ----------------------------------------------------------------
    1      C      -1.7327736084     1.2735107684     0.1177464666
    2      C      -1.1130886161     0.0000000000    -0.4542388948
    3      Se      0.8686149403     0.0000000000    -0.3219560892
    4      H       0.8880253335     0.0000000000     2.0779652034
    5      C      -1.7327736084    -1.2735107684     0.1177464666
    6      H      -1.2981589870     2.1714361692    -0.3270996061
    7      H      -2.8140595571     1.2811569342    -0.0686191610
    8      H      -1.5763244366     1.3207282912     1.2003529161
    9      H      -1.2227144795     0.0000000000    -1.5500374506
   10      H      -2.8140595571    -1.2811569342    -0.0686191610
   11      H      -1.2981589870    -2.1714361692    -0.3270996061
   12      H      -1.5763244366    -1.3207282912     1.2003529161
 ----------------------------------------------------------------

   11   -2520.3489227609      3.64e-07  Convergence criterion met
 Total energy in the final basis set =    -2520.3489227609

                    Orbital Energies (a.u.)
 --------------------------------------------------------------

 Alpha MOs
 -- Occupied --
******* -58.105 -52.164 -52.162 -52.158 -10.234 -10.187 -10.187
 -7.837  -5.784  -5.778  -5.767  -2.117  -2.116  -2.107  -2.103
 -2.101  -0.809  -0.695  -0.673  -0.569  -0.464  -0.438  -0.417
 -0.393  -0.360  -0.357  -0.313  -0.287  -0.227

 Beta MOs
 -- Occupied --
******* -58.105 -52.164 -52.162 -52.158 -10.234 -10.187 -10.187
 -7.837  -5.784  -5.778  -5.767  -2.117  -2.116  -2.107  -2.103
 -2.101  -0.809  -0.695  -0.673  -0.569  -0.464  -0.438  -0.417
 -0.393  -0.360  -0.357  -0.313  -0.287  -0.227

          Ground-State Mulliken Net Atomic Charges

     Atom                 Charge (a.u.)    Spin (a.u.)
  --------------------------------------------------------
      1 C                    -0.298830      -0.000000
      2 C                    -0.155350       0.000000
      3 Se                   -0.060348      -0.000000
      4 H                    -0.010409       0.000000
      5 C                    -0.298830       0.000000
      6 H                     0.123455      -0.000000
      7 H                     0.104750      -0.000000
      8 H                     0.118867       0.000000
      9 H                     0.129623      -0.000000
     10 H                     0.104750      -0.000000
     11 H                     0.123455      -0.000000
     12 H                     0.118867      -0.000000
  --------------------------------------------------------
  Sum of atomic charges =     0.000000

                    Cartesian Multipole Moments
 -----------------------------------------------------------------
    Charge (ESU x 10^10)
                 0.0000
    Dipole Moment (Debye)
         X      -1.8968      Y      -0.0000      Z      -0.4181
       Tot       1.9424
    Quadrupole Moments (Debye-Ang)
        XX     -38.9307     XY      -0.0000     YY     -41.3366
        XZ       0.5938     YZ      -0.0000     ZZ     -37.7838

 Final energy is   -2520.34892276090
 **  OPTIMIZATION CONVERGED  **
 Total job time:  18.64s(wall), 210.80s(cpu)
        *  Thank you very much for using Q-Chem.  Have a nice day.  *
