 Q-Chem 5.1, Q-Chem, Inc., Pleasanton, CA (2018)
 Q-Chem 5.1.1 for Intel X86 EM64T Linux

User input:
--------------------------------------------------------------

$comment
potential surface scanner
$end

$rem
JOBTYPE  PES_SCAN
UNRESTRICTED TRUE
SYM_IGNORE  TRUE
GEOM_OPT_MAX_CYCLES 400
SCF_MAX_CYCLES 400
METHOD   B3LYP
BASIS   6-31G**
PDB_PRINT 2
SCF_CONVERGENCE 6
THRESH 14
SCF_PRINT 1
$end
$molecule
0 1
C -1.716806 1.274444 0.091048
C -1.148192 0.000000 -0.532446
Se 0.825656 0.000000 -0.584091
H 0.887801 0.000000 2.615305
C -1.716806 -1.274444 0.091048
H -1.309877 2.172691 -0.378181
H -2.808697 1.288617 -0.015157
H -1.477657 1.309086 1.159140
H -1.360989 0.000000 -1.615977
H -2.808697 -1.288617 -0.015157
H -1.309877 -2.172691 -0.378181
H -1.477657 -1.309086 1.159140
$end
$scan
stre 3 4 3.300000 3.301000 0.100000
$end
--------------------------------------------------------------

   15   -2520.2877558354      6.99e-07  Convergence criterion met
 Total energy in the final basis set =    -2520.2877558354
   17   -2520.2827861536      6.64e-07  Convergence criterion met
 Total energy in the final basis set =    -2520.2827861536
   17   -2520.2827383314      6.78e-07  Convergence criterion met
 Total energy in the final basis set =    -2520.2827383314
   17   -2520.2827744285      6.74e-07  Convergence criterion met
 Total energy in the final basis set =    -2520.2827744285
   17   -2520.2827761643      6.73e-07  Convergence criterion met
 Total energy in the final basis set =    -2520.2827761643
   17   -2520.2827829900      6.68e-07  Convergence criterion met
 Total energy in the final basis set =    -2520.2827829900
   17   -2520.2827839166      6.67e-07  Convergence criterion met
 Total energy in the final basis set =    -2520.2827839166
   17   -2520.2827871682      6.63e-07  Convergence criterion met
 Total energy in the final basis set =    -2520.2827871682
   17   -2520.2827892154      6.61e-07  Convergence criterion met
 Total energy in the final basis set =    -2520.2827892154
   17   -2520.2827922978      6.59e-07  Convergence criterion met
 Total energy in the final basis set =    -2520.2827922978
   17   -2520.2827956279      6.60e-07  Convergence criterion met
 Total energy in the final basis set =    -2520.2827956279
   17   -2520.2827991466      6.63e-07  Convergence criterion met
 Total energy in the final basis set =    -2520.2827991466
   17   -2520.2828010754      6.66e-07  Convergence criterion met
 Total energy in the final basis set =    -2520.2828010754

             Standard Nuclear Orientation (Angstroms)
    I     Atom           X                Y                Z
 ----------------------------------------------------------------
    1      C      -1.7130055557     1.2739646336     0.0862236901
    2      C      -1.1495949039     0.0000000000    -0.5434654362
    3      Se      0.8229714606     0.0000000000    -0.6109875295
    4      H       0.8645696653     0.0000000000     2.6887499936
    5      C      -1.7130055581    -1.2739646310     0.0862236894
    6      H      -1.3269452603     2.1735112406    -0.3981914576
    7      H      -2.8072585228     1.2772949563     0.0080977980
    8      H      -1.4474255614     1.3169555442     1.1475798937
    9      H      -1.3704744228     0.0000000000    -1.6252258697
   10      H      -2.8072585245    -1.2772949592     0.0080977916
   11      H      -1.3269452563    -2.1735112367    -0.3981914560
   12      H      -1.4474255599    -1.3169555460     1.1475798926
 ----------------------------------------------------------------

   17   -2520.2828018110      6.68e-07  Convergence criterion met
 Total energy in the final basis set =    -2520.2828018110

                    Orbital Energies (a.u.)
 --------------------------------------------------------------

 Alpha MOs
 -- Occupied --
******* -58.110 -52.169 -52.167 -52.163 -10.239 -10.190 -10.190
 -7.842  -5.789  -5.783  -5.772  -2.122  -2.122  -2.112  -2.108
 -2.106  -0.813  -0.697  -0.677  -0.571  -0.467  -0.441  -0.420
 -0.395  -0.362  -0.360  -0.317  -0.252  -0.231

 Beta MOs
 -- Occupied --
******* -58.110 -52.169 -52.167 -52.163 -10.239 -10.190 -10.190
 -7.842  -5.789  -5.783  -5.772  -2.122  -2.122  -2.112  -2.108
 -2.106  -0.813  -0.697  -0.677  -0.571  -0.467  -0.441  -0.420
 -0.395  -0.362  -0.360  -0.317  -0.252  -0.231

          Ground-State Mulliken Net Atomic Charges

     Atom                 Charge (a.u.)    Spin (a.u.)
  --------------------------------------------------------
      1 C                    -0.300451      -0.000000
      2 C                    -0.162588       0.000000
      3 Se                   -0.051332       0.000000
      4 H                    -0.032956      -0.000000
      5 C                    -0.300451       0.000000
      6 H                     0.124447       0.000000
      7 H                     0.106393      -0.000000
      8 H                     0.123886       0.000000
      9 H                     0.138325       0.000000
     10 H                     0.106393       0.000000
     11 H                     0.124447      -0.000000
     12 H                     0.123886      -0.000000
  --------------------------------------------------------
  Sum of atomic charges =     0.000000

                    Cartesian Multipole Moments
 -----------------------------------------------------------------
    Charge (ESU x 10^10)
                -0.0000
    Dipole Moment (Debye)
         X      -2.0702      Y      -0.0000      Z      -0.7265
       Tot       2.1939
    Quadrupole Moments (Debye-Ang)
        XX     -38.6320     XY       0.0000     YY     -41.2563
        XZ       0.5715     YZ       0.0000     ZZ     -38.8219

 Final energy is   -2520.28280181102
 **  OPTIMIZATION CONVERGED  **
 Total job time:  81.18s(wall), 956.79s(cpu)
        *  Thank you very much for using Q-Chem.  Have a nice day.  *
