 Q-Chem 5.1, Q-Chem, Inc., Pleasanton, CA (2018)
 Q-Chem 5.1.1 for Intel X86 EM64T Linux

User input:
--------------------------------------------------------------

$comment
potential surface scanner
$end

$rem
JOBTYPE  PES_SCAN
UNRESTRICTED TRUE
SYM_IGNORE  TRUE
GEOM_OPT_MAX_CYCLES 400
SCF_MAX_CYCLES 400
METHOD   B3LYP
BASIS   6-31G**
PDB_PRINT 2
SCF_CONVERGENCE 6
THRESH 14
SCF_PRINT 1
$end
$molecule
0 1
C -1.734322 1.272930 0.137283
C -1.091512 0.000000 -0.409534
Se 0.891897 0.000000 -0.172119
H 0.835927 0.000000 1.727056
C -1.734322 -1.272930 0.137283
H -1.279990 2.170688 -0.287828
H -2.806426 1.282537 -0.097156
H -1.630351 1.323152 1.226228
H -1.155929 0.000000 -1.505963
H -2.806426 -1.282537 -0.097156
H -1.279990 -2.170688 -0.287828
H -1.630351 -1.323152 1.226228
$end
$scan
stre 3 4 2.000000 2.001000 0.100000
$end
--------------------------------------------------------------

   10   -2520.4084489305      6.10e-07  Convergence criterion met
 Total energy in the final basis set =    -2520.4084489305
   10   -2520.3960772409      7.38e-07  Convergence criterion met
 Total energy in the final basis set =    -2520.3960772409

             Standard Nuclear Orientation (Angstroms)
    I     Atom           X                Y                Z
 ----------------------------------------------------------------
    1      C      -1.7335257777     1.2729930538     0.1334909943
    2      C      -1.0960309797     0.0000000000    -0.4190673943
    3      Se      0.8875787683     0.0000000000    -0.2026606770
    4      H       0.8423262624     0.0000000000     1.7968269307
    5      C      -1.7335257777    -1.2729930538     0.1334909943
    6      H      -1.2831637514     2.1708775344    -0.2955908158
    7      H      -2.8077806640     1.2825429174    -0.0907824168
    8      H      -1.6184211179     1.3222236069     1.2212788263
    9      H      -1.1698864290     0.0000000000    -1.5153980355
   10      H      -2.8077806640    -1.2825429174    -0.0907824168
   11      H      -1.2831637514    -2.1708775344    -0.2955908158
   12      H      -1.6184211179    -1.3222236069     1.2212788263
 ----------------------------------------------------------------

   10   -2520.3957650619      7.42e-07  Convergence criterion met
 Total energy in the final basis set =    -2520.3957650619

                    Orbital Energies (a.u.)
 --------------------------------------------------------------

 Alpha MOs
 -- Occupied --
******* -58.097 -52.156 -52.154 -52.151 -10.231 -10.186 -10.186
 -7.829  -5.776  -5.771  -5.760  -2.109  -2.108  -2.100  -2.096
 -2.094  -0.806  -0.694  -0.671  -0.569  -0.463  -0.437  -0.416
 -0.392  -0.360  -0.355  -0.322  -0.301  -0.224

 Beta MOs
 -- Occupied --
******* -58.097 -52.156 -52.154 -52.151 -10.231 -10.186 -10.186
 -7.829  -5.776  -5.771  -5.760  -2.109  -2.108  -2.100  -2.096
 -2.094  -0.806  -0.694  -0.671  -0.569  -0.463  -0.437  -0.416
 -0.392  -0.360  -0.355  -0.322  -0.301  -0.224

          Ground-State Mulliken Net Atomic Charges

     Atom                 Charge (a.u.)    Spin (a.u.)
  --------------------------------------------------------
      1 C                    -0.298986       0.000000
      2 C                    -0.151100      -0.000000
      3 Se                   -0.068375       0.000000
      4 H                     0.006863       0.000000
      5 C                    -0.298986       0.000000
      6 H                     0.123549      -0.000000
      7 H                     0.104121      -0.000000
      8 H                     0.114451       0.000000
      9 H                     0.126340       0.000000
     10 H                     0.104121      -0.000000
     11 H                     0.123549      -0.000000
     12 H                     0.114451      -0.000000
  --------------------------------------------------------
  Sum of atomic charges =     0.000000

                    Cartesian Multipole Moments
 -----------------------------------------------------------------
    Charge (ESU x 10^10)
                 0.0000
    Dipole Moment (Debye)
         X      -1.8010      Y       0.0000      Z      -0.1341
       Tot       1.8060
    Quadrupole Moments (Debye-Ang)
        XX     -39.0058     XY      -0.0000     YY     -41.2962
        XZ       0.8129     YZ       0.0000     ZZ     -37.4904

 Final energy is   -2520.39576506195
 **  OPTIMIZATION CONVERGED  **
 Total job time:  13.40s(wall), 148.23s(cpu)
        *  Thank you very much for using Q-Chem.  Have a nice day.  *
