 Q-Chem 5.1, Q-Chem, Inc., Pleasanton, CA (2018)
 Q-Chem 5.1.1 for Intel X86 EM64T Linux

User input:
--------------------------------------------------------------

$comment
potential surface scanner
$end

$rem
JOBTYPE  PES_SCAN
UNRESTRICTED TRUE
SYM_IGNORE  TRUE
GEOM_OPT_MAX_CYCLES 400
SCF_MAX_CYCLES 400
METHOD   B3LYP
BASIS   6-31G**
PDB_PRINT 2
SCF_CONVERGENCE 6
THRESH 14
SCF_PRINT 1
$end
$molecule
0 1
C -1.703725 1.274388 0.082681
C -1.158382 0.000000 -0.562176
Se 0.809507 0.000000 -0.693203
H 0.827179 0.000000 2.806752
C -1.703725 -1.274388 0.082681
H -1.319146 2.173234 -0.403803
H -2.799080 1.285043 0.022159
H -1.420838 1.309838 1.139986
H -1.414523 0.000000 -1.636927
H -2.799080 -1.285043 0.022159
H -1.319146 -2.173234 -0.403803
H -1.420838 -1.309838 1.139986
$end
$scan
stre 3 4 3.600000 3.601000 0.100000
$end
--------------------------------------------------------------

   20   -2520.2742202764      3.19e-08  Convergence criterion met
 Total energy in the final basis set =    -2520.2742202764
   22   -2520.2705162985      3.80e-07  Convergence criterion met
 Total energy in the final basis set =    -2520.2705162985
   22   -2520.2704905028      3.63e-07  Convergence criterion met
 Total energy in the final basis set =    -2520.2704905028
   22   -2520.2705317807      6.18e-07  Convergence criterion met
 Total energy in the final basis set =    -2520.2705317807
   22   -2520.2705335725      5.77e-07  Convergence criterion met
 Total energy in the final basis set =    -2520.2705335725
   22   -2520.2705427431      3.44e-07  Convergence criterion met
 Total energy in the final basis set =    -2520.2705427431
   22   -2520.2705441961      3.24e-07  Convergence criterion met
 Total energy in the final basis set =    -2520.2705441961
   22   -2520.2705486164      3.09e-07  Convergence criterion met
   22   -2520.2705604783      7.60e-07  Convergence criterion met
 Total energy in the final basis set =    -2520.2705604783
   24   -2520.2705687651      8.78e-08  Convergence criterion met
 Total energy in the final basis set =    -2520.2705687651
   38   -2520.2705799869      2.40e-07  Convergence criterion met
 Total energy in the final basis set =    -2520.2705799869
   23   -2520.2705923781      4.18e-07  Convergence criterion met
 Total energy in the final basis set =    -2520.2705923781
   19   -2520.2706010127      7.93e-07  Convergence criterion met
 Total energy in the final basis set =    -2520.2706010127
   19   -2520.2706043950      2.83e-07  Convergence criterion met
 Total energy in the final basis set =    -2520.2706043950

             Standard Nuclear Orientation (Angstroms)
    I     Atom           X                Y                Z
 ----------------------------------------------------------------
    1      C      -1.6784134929     1.2721399668     0.0900471814
    2      C      -1.1556496948     0.0000016894    -0.5769124230
    3      Se      0.8024889276     0.0000000554    -0.7824042138
    4      H       0.6301110463    -0.0000045424     2.8134662216
    5      C      -1.6784119836    -1.2721385329     0.0900484737
    6      H      -1.3167590357     2.1745800318    -0.4075170199
    7      H      -2.7752517611     1.2794785176     0.0736736008
    8      H      -1.3514919020     1.3022643278     1.1353839025
    9      H      -1.4549217576    -0.0000014132    -1.6408394459
   10      H      -2.7752504109    -1.2794774951     0.0736752558
   11      H      -1.3167570197    -2.1745795050    -0.4075150276
   12      H      -1.3514899156    -1.3022630964     1.1353854944
 ----------------------------------------------------------------

   20   -2520.2706053545      3.79e-07  Convergence criterion met
 Total energy in the final basis set =    -2520.2706053545

                    Orbital Energies (a.u.)
 --------------------------------------------------------------

 Alpha MOs
 -- Occupied --
******* -58.110 -52.169 -52.167 -52.163 -10.240 -10.190 -10.190
 -7.842  -5.789  -5.784  -5.772  -2.122  -2.122  -2.112  -2.108
 -2.106  -0.814  -0.698  -0.679  -0.571  -0.468  -0.441  -0.420
 -0.395  -0.362  -0.361  -0.318  -0.246  -0.232

 Beta MOs
 -- Occupied --
******* -58.110 -52.169 -52.167 -52.163 -10.240 -10.190 -10.190
 -7.842  -5.789  -5.784  -5.772  -2.122  -2.122  -2.112  -2.108
 -2.106  -0.814  -0.698  -0.679  -0.571  -0.468  -0.441  -0.420
 -0.395  -0.362  -0.361  -0.318  -0.246  -0.232

          Ground-State Mulliken Net Atomic Charges

     Atom                 Charge (a.u.)    Spin (a.u.)
  --------------------------------------------------------
      1 C                    -0.300182       0.000000
      2 C                    -0.163531      -0.000000
      3 Se                   -0.046092      -0.000000
      4 H                    -0.041399       0.000000
      5 C                    -0.300185      -0.000000
      6 H                     0.124907      -0.000000
      7 H                     0.106850       0.000000
      8 H                     0.123261      -0.000000
      9 H                     0.141351      -0.000000
     10 H                     0.106852      -0.000000
     11 H                     0.124910       0.000000
     12 H                     0.123260       0.000000
  --------------------------------------------------------
  Sum of atomic charges =    -0.000000

                    Cartesian Multipole Moments
 -----------------------------------------------------------------
    Charge (ESU x 10^10)
                -0.0000
    Dipole Moment (Debye)
         X      -2.0512      Y      -0.0000      Z      -0.7420
       Tot       2.1813
    Quadrupole Moments (Debye-Ang)
        XX     -38.4012     XY       0.0000     YY     -41.2240
        XZ       0.8350     YZ      -0.0003     ZZ     -39.5102

 Final energy is   -2520.27060535446
 **  OPTIMIZATION CONVERGED  **
 Total job time:  115.58s(wall), 1364.74s(cpu)
        *  Thank you very much for using Q-Chem.  Have a nice day.  *
