 Q-Chem 5.1, Q-Chem, Inc., Pleasanton, CA (2018)
 Q-Chem 5.1.1 for Intel X86 EM64T Linux

User input:
--------------------------------------------------------------

$comment
potential surface scanner
$end

$rem
JOBTYPE  PES_SCAN
UNRESTRICTED TRUE
SYM_IGNORE  TRUE
GEOM_OPT_MAX_CYCLES 400
SCF_MAX_CYCLES 400
METHOD   B3LYP
BASIS   6-31G**
PDB_PRINT 2
SCF_CONVERGENCE 6
THRESH 14
SCF_PRINT 1
$end
$molecule
0 1
C -1.708431 1.274509 0.084527
C -1.154175 0.000000 -0.552283
Se 0.816094 0.000000 -0.652330
H 0.846813 0.000000 2.747531
C -1.708431 -1.274509 0.084527
H -1.322218 2.173203 -0.401083
H -2.803240 1.282072 0.014443
H -1.434928 1.313793 1.144291
H -1.392896 0.000000 -1.630783
H -2.803240 -1.282072 0.014443
H -1.322218 -2.173203 -0.401083
H -1.434928 -1.313793 1.144291
$end
$scan
stre 3 4 3.500000 3.501000 0.100000
$end
--------------------------------------------------------------

   21   -2520.2782974235      2.89e-07  Convergence criterion met
 Total energy in the final basis set =    -2520.2782974235
   20   -2520.2742071765      2.76e-08  Convergence criterion met
 Total energy in the final basis set =    -2520.2742071765
   20   -2520.2741696570      3.44e-08  Convergence criterion met
 Total energy in the final basis set =    -2520.2741696570
   19   -2520.2742119294      7.90e-08  Convergence criterion met
 Total energy in the final basis set =    -2520.2742119294
   18   -2520.2742134728      8.70e-07  Convergence criterion met
 Total energy in the final basis set =    -2520.2742134728
   20   -2520.2742196459      2.47e-08  Convergence criterion met
 Total energy in the final basis set =    -2520.2742196459

             Standard Nuclear Orientation (Angstroms)
    I     Atom           X                Y                Z
 ----------------------------------------------------------------
    1      C      -1.7037253373     1.2743876467     0.0826808194
    2      C      -1.1583820127     0.0000000000    -0.5621764393
    3      Se      0.8095070108     0.0000000000    -0.6932033452
    4      H       0.8271787200     0.0000000000     2.8067517817
    5      C      -1.7037253373    -1.2743876467     0.0826808194
    6      H      -1.3191459032     2.1732341813    -0.4038029668
    7      H      -2.7990800334     1.2850428825     0.0221591078
    8      H      -1.4208381605     1.3098377965     1.1399859241
    9      H      -1.4145228494     0.0000000000    -1.6369267663
   10      H      -2.7990800334    -1.2850428825     0.0221591078
   11      H      -1.3191459031    -2.1732341813    -0.4038029668
   12      H      -1.4208381605    -1.3098377965     1.1399859242
 ----------------------------------------------------------------

   20   -2520.2742202721      3.19e-08  Convergence criterion met
 Total energy in the final basis set =    -2520.2742202721

                    Orbital Energies (a.u.)
 --------------------------------------------------------------

 Alpha MOs
 -- Occupied --
******* -58.110 -52.169 -52.167 -52.163 -10.239 -10.190 -10.190
 -7.842  -5.789  -5.784  -5.772  -2.122  -2.122  -2.112  -2.108
 -2.106  -0.814  -0.698  -0.678  -0.571  -0.468  -0.441  -0.420
 -0.395  -0.362  -0.360  -0.317  -0.248  -0.232

 Beta MOs
 -- Occupied --
******* -58.110 -52.169 -52.167 -52.163 -10.239 -10.190 -10.190
 -7.842  -5.789  -5.784  -5.772  -2.122  -2.122  -2.112  -2.108
 -2.106  -0.814  -0.698  -0.678  -0.571  -0.468  -0.441  -0.420
 -0.395  -0.362  -0.360  -0.317  -0.248  -0.232

          Ground-State Mulliken Net Atomic Charges

     Atom                 Charge (a.u.)    Spin (a.u.)
  --------------------------------------------------------
      1 C                    -0.300820      -0.000000
      2 C                    -0.163512      -0.000000
      3 Se                   -0.049201      -0.000000
      4 H                    -0.037143       0.000000
      5 C                    -0.300820       0.000000
      6 H                     0.125145       0.000000
      7 H                     0.106830      -0.000000
      8 H                     0.123840       0.000000
      9 H                     0.139867      -0.000000
     10 H                     0.106830       0.000000
     11 H                     0.125145      -0.000000
     12 H                     0.123840      -0.000000
  --------------------------------------------------------
  Sum of atomic charges =     0.000000

                    Cartesian Multipole Moments
 -----------------------------------------------------------------
    Charge (ESU x 10^10)
                -0.0000
    Dipole Moment (Debye)
         X      -2.0899      Y       0.0000      Z      -0.7425
       Tot       2.2179
    Quadrupole Moments (Debye-Ang)
        XX     -38.5301     XY      -0.0000     YY     -41.2358
        XZ       0.6545     YZ      -0.0000     ZZ     -39.2081

 Final energy is   -2520.27422027210
 **  OPTIMIZATION CONVERGED  **
 Total job time:  45.91s(wall), 539.89s(cpu)
        *  Thank you very much for using Q-Chem.  Have a nice day.  *
