 Q-Chem 5.1, Q-Chem, Inc., Pleasanton, CA (2018)
 Q-Chem 5.1.1 for Intel X86 EM64T Linux

User input:
--------------------------------------------------------------

$comment
potential surface scanner
$end

$rem
JOBTYPE  PES_SCAN
UNRESTRICTED TRUE
SYM_IGNORE  TRUE
GEOM_OPT_MAX_CYCLES 400
SCF_MAX_CYCLES 400
METHOD   B3LYP
BASIS   6-31G**
PDB_PRINT 2
SCF_CONVERGENCE 6
THRESH 14
SCF_PRINT 1
$end
$molecule
0 1
C -1.730200 1.249200 0.145700
C -1.070500 -0.000000 -0.441800
Se 0.838900 0.000000 0.000600
H 0.783300 0.000000 1.559600
C -1.730200 -1.249200 0.145700
H -1.260200 2.139200 -0.272800
H -2.792000 1.249200 -0.100300
H -1.608100 1.249200 1.228900
H -1.192500 -0.000000 -1.524900
H -2.792000 -1.249200 -0.100300
H -1.260200 -2.139200 -0.272800
H -1.608100 -1.249200 1.228900
$end
$scan
stre 3 4 1.000000 1.001000 0.100000
$end
--------------------------------------------------------------

    9   -2520.4375567929      9.33e-07  Convergence criterion met
 Total energy in the final basis set =    -2520.4375567929
    9   -2520.4430142722      6.12e-07  Convergence criterion met
 Total energy in the final basis set =    -2520.4430142722
    9   -2520.4235135398      5.66e-07  Convergence criterion met
 Total energy in the final basis set =    -2520.4235135398
    9   -2520.3587237780      5.44e-07  Convergence criterion met
 Total energy in the final basis set =    -2520.3587237780
    9   -2520.2525832328      5.31e-07  Convergence criterion met
 Total energy in the final basis set =    -2520.2525832328
    9   -2520.2366843251      5.29e-07  Convergence criterion met
 Total energy in the final basis set =    -2520.2366843251
    9   -2520.2351285254      5.28e-07  Convergence criterion met
 Total energy in the final basis set =    -2520.2351285254
    9   -2520.2351291591      5.27e-07  Convergence criterion met
 Total energy in the final basis set =    -2520.2351291591

             Standard Nuclear Orientation (Angstroms)
    I     Atom           X                Y                Z
 ----------------------------------------------------------------
    1      C      -1.7348577408     1.2742643482     0.1704639570
    2      C      -1.0592166421     0.0000000000    -0.3342925846
    3      Se      0.9000740652     0.0000000000     0.1127101081
    4      H       0.7545104645     0.0000000000     1.1020590047
    5      C      -1.7348577408    -1.2742643482     0.1704639570
    6      H      -1.2461190779     2.1698708376    -0.2196007283
    7      H      -2.7865055438     1.2900400514    -0.1436075368
    8      H      -1.7180006227     1.3277844962     1.2645542933
    9      H      -1.0462019171     0.0000000000    -1.4275964986
   10      H      -2.7865055438    -1.2900400514    -0.1436075368
   11      H      -1.2461190779    -2.1698708376    -0.2196007283
   12      H      -1.7180006227    -1.3277844962     1.2645542933
 ----------------------------------------------------------------

    9   -2520.2351304309      5.27e-07  Convergence criterion met
 Total energy in the final basis set =    -2520.2351304309

                    Orbital Energies (a.u.)
 --------------------------------------------------------------

 Alpha MOs
 -- Occupied --
******* -58.076 -52.132 -52.131 -52.129 -10.229 -10.187 -10.187
 -7.817  -5.765  -5.758  -5.748  -2.107  -2.096  -2.088  -2.083
 -2.083  -0.817  -0.744  -0.694  -0.587  -0.461  -0.449  -0.416
 -0.393  -0.387  -0.355  -0.346  -0.300  -0.226

 Beta MOs
 -- Occupied --
******* -58.076 -52.132 -52.131 -52.129 -10.229 -10.187 -10.187
 -7.817  -5.765  -5.758  -5.748  -2.107  -2.096  -2.088  -2.083
 -2.083  -0.817  -0.744  -0.694  -0.587  -0.461  -0.449  -0.416
 -0.393  -0.387  -0.355  -0.346  -0.300  -0.226

          Ground-State Mulliken Net Atomic Charges

     Atom                 Charge (a.u.)    Spin (a.u.)
  --------------------------------------------------------
      1 C                    -0.305593       0.000000
      2 C                    -0.138553      -0.000000
      3 Se                   -0.072865       0.000000
      4 H                     0.014123      -0.000000
      5 C                    -0.305593      -0.000000
      6 H                     0.126889       0.000000
      7 H                     0.104891      -0.000000
      8 H                     0.107982      -0.000000
      9 H                     0.128956       0.000000
     10 H                     0.104891      -0.000000
     11 H                     0.126889       0.000000
     12 H                     0.107982       0.000000
  --------------------------------------------------------
  Sum of atomic charges =    -0.000000

                    Cartesian Multipole Moments
 -----------------------------------------------------------------
    Charge (ESU x 10^10)
                 0.0000
    Dipole Moment (Debye)
         X      -1.9030      Y       0.0000      Z       0.5605
       Tot       1.9838
    Quadrupole Moments (Debye-Ang)
        XX     -38.8474     XY       0.0000     YY     -40.4074
        XZ       1.4979     YZ       0.0000     ZZ     -36.7354

 Final energy is   -2520.23513043088
 **  OPTIMIZATION CONVERGED  **
 Total job time:  35.53s(wall), 409.85s(cpu)
        *  Thank you very much for using Q-Chem.  Have a nice day.  *
