 Q-Chem 5.1, Q-Chem, Inc., Pleasanton, CA (2018)
 Q-Chem 5.1.1 for Intel X86 EM64T Linux

User input:
--------------------------------------------------------------

$comment
potential surface scanner
$end

$rem
JOBTYPE  PES_SCAN
UNRESTRICTED TRUE
SYM_IGNORE  TRUE
GEOM_OPT_MAX_CYCLES 400
SCF_MAX_CYCLES 400
METHOD   B3LYP
BASIS   6-31G**
PDB_PRINT 2
SCF_CONVERGENCE 6
THRESH 14
SCF_PRINT 1
$end
$molecule
0 1
C -1.732234 1.273981 0.110011
C -1.121995 0.000000 -0.471674
Se 0.858006 0.000000 -0.381552
H 0.914256 0.000000 2.217839
C -1.732234 -1.273981 0.110011
H -1.304706 2.171776 -0.341891
H -2.816319 1.281382 -0.058836
H -1.557255 1.320389 1.189829
H -1.251035 0.000000 -1.566347
H -2.816319 -1.281382 -0.058836
H -1.304706 -2.171776 -0.341891
H -1.557255 -1.320389 1.189829
$end
$scan
stre 3 4 2.700000 2.701000 0.100000
$end
--------------------------------------------------------------

   12   -2520.3295593398      8.24e-07  Convergence criterion met
 Total energy in the final basis set =    -2520.3295593398
   13   -2520.3211281257      1.21e-07  Convergence criterion met
 Total energy in the final basis set =    -2520.3211281257
   13   -2520.3209608405      1.23e-07  Convergence criterion met
 Total energy in the final basis set =    -2520.3209608405

             Standard Nuclear Orientation (Angstroms)
    I     Atom           X                Y                Z
 ----------------------------------------------------------------
    1      C      -1.7307095901     1.2742199880     0.1063905742
    2      C      -1.1263059590     0.0000000000    -0.4812902142
    3      Se      0.8529035559     0.0000000000    -0.4127008862
    4      H       0.9169565695     0.0000000000     2.2865391128
    5      C      -1.7307095901    -1.2742199881     0.1063905742
    6      H      -1.3076047823     2.1719754595    -0.3497276842
    7      H      -2.8164015941     1.2815884008    -0.0515798691
    8      H      -1.5444114540     1.3202289996     1.1843532067
    9      H      -1.2670953255     0.0000000000    -1.5749284677
   10      H      -2.8164015941    -1.2815884008    -0.0515798690
   11      H      -1.3076047824    -2.1719754595    -0.3497276842
   12      H      -1.5444114540    -1.3202289996     1.1843532067
 ----------------------------------------------------------------

   13   -2520.3209616797      1.24e-07  Convergence criterion met
 Total energy in the final basis set =    -2520.3209616797

                    Orbital Energies (a.u.)
 --------------------------------------------------------------

 Alpha MOs
 -- Occupied --
******* -58.108 -52.167 -52.165 -52.161 -10.236 -10.188 -10.188
 -7.840  -5.787  -5.781  -5.770  -2.120  -2.119  -2.110  -2.106
 -2.104  -0.811  -0.696  -0.675  -0.569  -0.465  -0.439  -0.418
 -0.394  -0.360  -0.358  -0.314  -0.272  -0.229

 Beta MOs
 -- Occupied --
******* -58.108 -52.167 -52.165 -52.161 -10.236 -10.188 -10.188
 -7.840  -5.787  -5.781  -5.770  -2.120  -2.119  -2.110  -2.106
 -2.104  -0.811  -0.696  -0.675  -0.569  -0.465  -0.439  -0.418
 -0.394  -0.360  -0.358  -0.314  -0.272  -0.229

          Ground-State Mulliken Net Atomic Charges

     Atom                 Charge (a.u.)    Spin (a.u.)
  --------------------------------------------------------
      1 C                    -0.299380       0.000000
      2 C                    -0.158444      -0.000000
      3 Se                   -0.056923      -0.000000
      4 H                    -0.019427       0.000000
      5 C                    -0.299380      -0.000000
      6 H                     0.123762      -0.000000
      7 H                     0.105332      -0.000000
      8 H                     0.121377       0.000000
      9 H                     0.132613       0.000000
     10 H                     0.105332       0.000000
     11 H                     0.123762       0.000000
     12 H                     0.121377       0.000000
  --------------------------------------------------------
  Sum of atomic charges =    -0.000000

                    Cartesian Multipole Moments
 -----------------------------------------------------------------
    Charge (ESU x 10^10)
                -0.0000
    Dipole Moment (Debye)
         X      -1.9726      Y       0.0000      Z      -0.5652
       Tot       2.0520
    Quadrupole Moments (Debye-Ang)
        XX     -38.8448     XY       0.0000     YY     -41.3132
        XZ       0.5211     YZ      -0.0000     ZZ     -38.0269

 Final energy is   -2520.32096167971
 **  OPTIMIZATION CONVERGED  **
 Total job time:  19.96s(wall), 228.75s(cpu)
        *  Thank you very much for using Q-Chem.  Have a nice day.  *
