 Q-Chem 5.1, Q-Chem, Inc., Pleasanton, CA (2018)
 Q-Chem 5.1.1 for Intel X86 EM64T Linux

User input:
--------------------------------------------------------------

$comment
potential surface scanner
$end

$rem
JOBTYPE  PES_SCAN
UNRESTRICTED TRUE
SYM_IGNORE  TRUE
GEOM_OPT_MAX_CYCLES 400
SCF_MAX_CYCLES 400
METHOD   B3LYP
BASIS   6-31G**
PDB_PRINT 2
SCF_CONVERGENCE 6
THRESH 14
SCF_PRINT 1
$end
$molecule
0 1
C -1.734144 1.272974 0.144938
C -1.082687 0.000000 -0.392110
Se 0.899227 0.000000 -0.110807
H 0.810156 0.000000 1.586858
C -1.734144 -1.272974 0.144938
H -1.272772 2.170444 -0.273193
H -2.802307 1.282953 -0.107065
H -1.649856 1.325317 1.235664
H -1.130334 0.000000 -1.488132
H -2.802307 -1.282953 -0.107065
H -1.272772 -2.170444 -0.273193
H -1.649856 -1.325317 1.235664
$end
$scan
stre 3 4 1.800000 1.801000 0.100000
$end
--------------------------------------------------------------

   10   -2520.4315394466      3.41e-07  Convergence criterion met
 Total energy in the final basis set =    -2520.4315394466
   10   -2520.4209309075      4.50e-07  Convergence criterion met
 Total energy in the final basis set =    -2520.4209309075
   10   -2520.4206608242      4.54e-07  Convergence criterion met
 Total energy in the final basis set =    -2520.4206608242

             Standard Nuclear Orientation (Angstroms)
    I     Atom           X                Y                Z
 ----------------------------------------------------------------
    1      C      -1.7341293256     1.2728900176     0.1411520205
    2      C      -1.0869934951     0.0000000000    -0.4009361640
    3      Se      0.8962020926     0.0000000000    -0.1416541651
    4      H       0.8220634427     0.0000000000     1.6568180729
    5      C      -1.7341293256    -1.2728900176     0.1411520205
    6      H      -1.2764411198     2.1706215123    -0.2804313001
    7      H      -2.8043274340     1.2826155155    -0.1020157559
    8      H      -1.6399836771     1.3240511515     1.2310304440
    9      H      -1.1433049271     0.0000000000    -1.4972015609
   10      H      -2.8043274341    -1.2826155155    -0.1020157559
   11      H      -1.2764411198    -2.1706215123    -0.2804313001
   12      H      -1.6399836771    -1.3240511515     1.2310304440
 ----------------------------------------------------------------

   10   -2520.4206612800      4.55e-07  Convergence criterion met
 Total energy in the final basis set =    -2520.4206612800

                    Orbital Energies (a.u.)
 --------------------------------------------------------------

 Alpha MOs
 -- Occupied --
******* -58.092 -52.150 -52.149 -52.146 -10.230 -10.186 -10.186
 -7.824  -5.770  -5.766  -5.756  -2.103  -2.103  -2.095  -2.091
 -2.089  -0.805  -0.693  -0.672  -0.570  -0.462  -0.437  -0.415
 -0.392  -0.364  -0.354  -0.333  -0.301  -0.223

 Beta MOs
 -- Occupied --
******* -58.092 -52.150 -52.149 -52.146 -10.230 -10.186 -10.186
 -7.824  -5.770  -5.766  -5.756  -2.103  -2.103  -2.095  -2.091
 -2.089  -0.805  -0.693  -0.672  -0.570  -0.462  -0.437  -0.415
 -0.392  -0.364  -0.354  -0.333  -0.301  -0.223

          Ground-State Mulliken Net Atomic Charges

     Atom                 Charge (a.u.)    Spin (a.u.)
  --------------------------------------------------------
      1 C                    -0.299759      -0.000000
      2 C                    -0.148840      -0.000000
      3 Se                   -0.076549       0.000000
      4 H                     0.019741      -0.000000
      5 C                    -0.299759      -0.000000
      6 H                     0.123833       0.000000
      7 H                     0.103985      -0.000000
      8 H                     0.112107       0.000000
      9 H                     0.125317      -0.000000
     10 H                     0.103985      -0.000000
     11 H                     0.123833       0.000000
     12 H                     0.112107       0.000000
  --------------------------------------------------------
  Sum of atomic charges =     0.000000

                    Cartesian Multipole Moments
 -----------------------------------------------------------------
    Charge (ESU x 10^10)
                 0.0000
    Dipole Moment (Debye)
         X      -1.7678      Y       0.0000      Z       0.0398
       Tot       1.7683
    Quadrupole Moments (Debye-Ang)
        XX     -39.0171     XY       0.0000     YY     -41.2271
        XZ       0.9716     YZ      -0.0000     ZZ     -37.3219

 Final energy is   -2520.42066127998
 **  OPTIMIZATION CONVERGED  **
 Total job time:  17.21s(wall), 194.93s(cpu)
        *  Thank you very much for using Q-Chem.  Have a nice day.  *
