 Q-Chem 5.1, Q-Chem, Inc., Pleasanton, CA (2018)
 Q-Chem 5.1.1 for Intel X86 EM64T Linux

User input:
--------------------------------------------------------------

$comment
potential surface scanner
$end

$rem
JOBTYPE  PES_SCAN
UNRESTRICTED TRUE
SYM_IGNORE  TRUE
GEOM_OPT_MAX_CYCLES 400
SCF_MAX_CYCLES 400
METHOD   B3LYP
BASIS   6-31G**
PDB_PRINT 2
SCF_CONVERGENCE 6
THRESH 14
SCF_PRINT 1
$end
$molecule
0 1
C -1.732507 1.273024 0.129690
C -1.100244 0.000000 -0.428927
Se 0.883878 0.000000 -0.233284
H 0.845793 0.000000 1.866371
C -1.732507 -1.273024 0.129690
H -1.286538 2.171113 -0.303515
H -2.808951 1.282402 -0.083628
H -1.605560 1.321294 1.216174
H -1.184110 0.000000 -1.525107
H -2.808951 -1.282402 -0.083628
H -1.286538 -2.171113 -0.303515
H -1.605560 -1.321294 1.216174
$end
$scan
stre 3 4 2.200000 2.201000 0.100000
$end
--------------------------------------------------------------

   10   -2520.3833658470      7.98e-07  Convergence criterion met
 Total energy in the final basis set =    -2520.3833658470
   10   -2520.3715517946      9.77e-07  Convergence criterion met
 Total energy in the final basis set =    -2520.3715517946
   10   -2520.3712682092      9.88e-07  Convergence criterion met
 Total energy in the final basis set =    -2520.3712682092

             Standard Nuclear Orientation (Angstroms)
    I     Atom           X                Y                Z
 ----------------------------------------------------------------
    1      C      -1.7323080282     1.2731068194     0.1256897649
    2      C      -1.1043986565     0.0000000000    -0.4378097822
    3      Se      0.8792208194     0.0000000000    -0.2629995022
    4      H       0.8560487087     0.0000000000     1.9368782366
    5      C      -1.7323080281    -1.2731068194     0.1256897649
    6      H      -1.2904887220     2.1711907491    -0.3117013984
    7      H      -2.8106233680     1.2818262033    -0.0776246130
    8      H      -1.5942940176     1.3208625924     1.2108298942
    9      H      -1.1972376003     0.0000000000    -1.5339612475
   10      H      -2.8106233679    -1.2818262033    -0.0776246130
   11      H      -1.2904887220    -2.1711907491    -0.3117013984
   12      H      -1.5942940176    -1.3208625923     1.2108298942
 ----------------------------------------------------------------

   10   -2520.3712685221      9.87e-07  Convergence criterion met
 Total energy in the final basis set =    -2520.3712685221

                    Orbital Energies (a.u.)
 --------------------------------------------------------------

 Alpha MOs
 -- Occupied --
******* -58.102 -52.160 -52.158 -52.155 -10.233 -10.187 -10.186
 -7.834  -5.780  -5.775  -5.764  -2.113  -2.113  -2.104  -2.100
 -2.098  -0.808  -0.694  -0.671  -0.569  -0.463  -0.437  -0.416
 -0.393  -0.359  -0.356  -0.315  -0.296  -0.226

 Beta MOs
 -- Occupied --
******* -58.102 -52.160 -52.158 -52.155 -10.233 -10.187 -10.186
 -7.834  -5.780  -5.775  -5.764  -2.113  -2.113  -2.104  -2.100
 -2.098  -0.808  -0.694  -0.671  -0.569  -0.463  -0.437  -0.416
 -0.393  -0.359  -0.356  -0.315  -0.296  -0.226

          Ground-State Mulliken Net Atomic Charges

     Atom                 Charge (a.u.)    Spin (a.u.)
  --------------------------------------------------------
      1 C                    -0.298630      -0.000000
      2 C                    -0.153314      -0.000000
      3 Se                   -0.063405       0.000000
      4 H                    -0.002802      -0.000000
      5 C                    -0.298630      -0.000000
      6 H                     0.123395       0.000000
      7 H                     0.104394       0.000000
      8 H                     0.116693      -0.000000
      9 H                     0.127817       0.000000
     10 H                     0.104394      -0.000000
     11 H                     0.123395      -0.000000
     12 H                     0.116693       0.000000
  --------------------------------------------------------
  Sum of atomic charges =    -0.000000

                    Cartesian Multipole Moments
 -----------------------------------------------------------------
    Charge (ESU x 10^10)
                 0.0000
    Dipole Moment (Debye)
         X      -1.8444      Y       0.0000      Z      -0.2904
       Tot       1.8671
    Quadrupole Moments (Debye-Ang)
        XX     -38.9770     XY      -0.0000     YY     -41.3320
        XZ       0.6788     YZ      -0.0000     ZZ     -37.6407

 Final energy is   -2520.37126852206
 **  OPTIMIZATION CONVERGED  **
 Total job time:  17.80s(wall), 195.11s(cpu)
        *  Thank you very much for using Q-Chem.  Have a nice day.  *
