 Q-Chem 5.1, Q-Chem, Inc., Pleasanton, CA (2018)
 Q-Chem 5.1.1 for Intel X86 EM64T Linux

User input:
--------------------------------------------------------------

$comment
potential surface scanner
$end

$rem
JOBTYPE  PES_SCAN
UNRESTRICTED TRUE
SYM_IGNORE  TRUE
GEOM_OPT_MAX_CYCLES 400
SCF_MAX_CYCLES 400
METHOD   B3LYP
BASIS   6-31G**
PDB_PRINT 2
SCF_CONVERGENCE 6
THRESH 14
SCF_PRINT 1
$end
$molecule
0 1
C -1.730200 1.249200 0.145700
C -1.070500 -0.000000 -0.441800
Se 0.838900 0.000000 0.000600
H 0.783300 0.000000 1.559600
C -1.730200 -1.249200 0.145700
H -1.260200 2.139200 -0.272800
H -2.792000 1.249200 -0.100300
H -1.608100 1.249200 1.228900
H -1.192500 -0.000000 -1.524900
H -2.792000 -1.249200 -0.100300
H -1.260200 -2.139200 -0.272800
H -1.608100 -1.249200 1.228900
$end
$scan
stre 3 4 0.800000 0.801000 0.100000
$end
--------------------------------------------------------------

    9   -2520.4375567929      9.33e-07  Convergence criterion met
 Total energy in the final basis set =    -2520.4375567929
    9   -2520.4430142722      6.12e-07  Convergence criterion met
 Total energy in the final basis set =    -2520.4430142722
    9   -2520.4235135398      5.66e-07  Convergence criterion met
 Total energy in the final basis set =    -2520.4235135398
    9   -2520.3587237780      5.44e-07  Convergence criterion met
 Total energy in the final basis set =    -2520.3587237780
    9   -2520.2511916516      5.31e-07  Convergence criterion met
 Total energy in the final basis set =    -2520.2511916516
    9   -2519.9945112216      5.36e-07  Convergence criterion met
 Total energy in the final basis set =    -2519.9945112216
    9   -2519.8772080221      5.45e-07  Convergence criterion met
 Total energy in the final basis set =    -2519.8772080221
    9   -2519.7914620608      5.52e-07  Convergence criterion met
 Total energy in the final basis set =    -2519.7914620608
    9   -2519.7762601021      5.53e-07  Convergence criterion met
 Total energy in the final basis set =    -2519.7762601021
    9   -2519.7761554414      5.52e-07  Convergence criterion met
 Total energy in the final basis set =    -2519.7761554414
    9   -2519.7762368714      5.49e-07  Convergence criterion met
 Total energy in the final basis set =    -2519.7762368714
    9   -2519.7762399116      5.49e-07  Convergence criterion met
 Total energy in the final basis set =    -2519.7762399116

             Standard Nuclear Orientation (Angstroms)
    I     Atom           X                Y                Z
 ----------------------------------------------------------------
    1      C      -1.7383240231     1.2747856786     0.1774351199
    2      C      -1.0562651543     0.0000000000    -0.3159388048
    3      Se      0.8918861696     0.0000000000     0.1776862651
    4      H       0.7711871833     0.0000000000     0.9685287153
    5      C      -1.7383240231    -1.2747856786     0.1774351199
    6      H      -1.2405496792     2.1689898779    -0.2040596557
    7      H      -2.7833641249     1.2916882123    -0.1578249398
    8      H      -1.7428587533     1.3274734681     1.2714666416
    9      H      -1.0184150376     0.0000000000    -1.4078105076
   10      H      -2.7833641249    -1.2916882123    -0.1578249398
   11      H      -1.2405496792    -2.1689898779    -0.2040596557
   12      H      -1.7428587533    -1.3274734681     1.2714666416
 ----------------------------------------------------------------

    9   -2519.7762466625      5.48e-07  Convergence criterion met
 Total energy in the final basis set =    -2519.7762466625

                    Orbital Energies (a.u.)
 --------------------------------------------------------------

 Alpha MOs
 -- Occupied --
******* -58.097 -52.153 -52.151 -52.149 -10.231 -10.188 -10.188
 -7.849  -5.813  -5.782  -5.772  -2.166  -2.129  -2.120  -2.105
 -2.105  -0.830  -0.765  -0.696  -0.590  -0.462  -0.451  -0.418
 -0.395  -0.382  -0.356  -0.345  -0.301  -0.230

 Beta MOs
 -- Occupied --
******* -58.097 -52.153 -52.151 -52.149 -10.231 -10.188 -10.188
 -7.849  -5.813  -5.782  -5.772  -2.166  -2.129  -2.120  -2.105
 -2.105  -0.830  -0.765  -0.696  -0.590  -0.462  -0.451  -0.418
 -0.395  -0.382  -0.356  -0.345  -0.301  -0.230

          Ground-State Mulliken Net Atomic Charges

     Atom                 Charge (a.u.)    Spin (a.u.)
  --------------------------------------------------------
      1 C                    -0.308228      -0.000000
      2 C                    -0.133631       0.000000
      3 Se                    0.075594       0.000000
      4 H                    -0.143435      -0.000000
      5 C                    -0.308228       0.000000
      6 H                     0.127882       0.000000
      7 H                     0.105654       0.000000
      8 H                     0.109446       0.000000
      9 H                     0.131962      -0.000000
     10 H                     0.105654       0.000000
     11 H                     0.127882       0.000000
     12 H                     0.109446      -0.000000
  --------------------------------------------------------
  Sum of atomic charges =     0.000000

                    Cartesian Multipole Moments
 -----------------------------------------------------------------
    Charge (ESU x 10^10)
                -0.0000
    Dipole Moment (Debye)
         X      -2.0125      Y      -0.0000      Z       0.5972
       Tot       2.0992
    Quadrupole Moments (Debye-Ang)
        XX     -38.7080     XY      -0.0000     YY     -40.0677
        XZ       1.5689     YZ      -0.0000     ZZ     -36.7642

 Final energy is   -2519.77624666255
 **  OPTIMIZATION CONVERGED  **
 Total job time:  51.60s(wall), 585.56s(cpu)
        *  Thank you very much for using Q-Chem.  Have a nice day.  *
