 Q-Chem 5.1, Q-Chem, Inc., Pleasanton, CA (2018)
 Q-Chem 5.1.1 for Intel X86 EM64T Linux

User input:
--------------------------------------------------------------

$comment
potential surface scanner
$end

$rem
JOBTYPE  PES_SCAN
UNRESTRICTED TRUE
SYM_IGNORE  TRUE
GEOM_OPT_MAX_CYCLES 400
SCF_MAX_CYCLES 400
METHOD   B3LYP
BASIS   6-31G**
PDB_PRINT 2
SCF_CONVERGENCE 6
THRESH 14
SCF_PRINT 1
$end
$molecule
0 1
C -1.730200 1.249200 0.145700
C -1.070500 -0.000000 -0.441800
Se 0.838900 0.000000 0.000600
H 0.783300 0.000000 1.559600
C -1.730200 -1.249200 0.145700
H -1.260200 2.139200 -0.272800
H -2.792000 1.249200 -0.100300
H -1.608100 1.249200 1.228900
H -1.192500 -0.000000 -1.524900
H -2.792000 -1.249200 -0.100300
H -1.260200 -2.139200 -0.272800
H -1.608100 -1.249200 1.228900
$end
$scan
stre 3 4 0.900000 0.901000 0.100000
$end
--------------------------------------------------------------

    9   -2520.4375567929      9.33e-07  Convergence criterion met
 Total energy in the final basis set =    -2520.4375567929
    9   -2520.4430142722      6.12e-07  Convergence criterion met
 Total energy in the final basis set =    -2520.4430142722
    9   -2520.4235135398      5.66e-07  Convergence criterion met
 Total energy in the final basis set =    -2520.4235135398
    9   -2520.3587237780      5.44e-07  Convergence criterion met
 Total energy in the final basis set =    -2520.3587237780
    9   -2520.2511916516      5.31e-07  Convergence criterion met
 Total energy in the final basis set =    -2520.2511916516
    9   -2520.0761006454      5.32e-07  Convergence criterion met
 Total energy in the final basis set =    -2520.0761006454
    9   -2520.0651121507      5.31e-07  Convergence criterion met
 Total energy in the final basis set =    -2520.0651121507
    9   -2520.0618708418      5.31e-07  Convergence criterion met
 Total energy in the final basis set =    -2520.0618708418
    9   -2520.0618828466      5.30e-07  Convergence criterion met
 Total energy in the final basis set =    -2520.0618828466
    9   -2520.0619008875      5.27e-07  Convergence criterion met
 Total energy in the final basis set =    -2520.0619008875
    9   -2520.0619017545      5.27e-07  Convergence criterion met
 Total energy in the final basis set =    -2520.0619017545

             Standard Nuclear Orientation (Angstroms)
    I     Atom           X                Y                Z
 ----------------------------------------------------------------
    1      C      -1.7371288791     1.2746141062     0.1742950293
    2      C      -1.0576046502     0.0000000000    -0.3236792521
    3      Se      0.8965743240     0.0000000000     0.1436069563
    4      H       0.7668770245     0.0000000000     1.0342127231
    5      C      -1.7371288791    -1.2746141061     0.1742950293
    6      H      -1.2434057219     2.1692675433    -0.2115270935
    7      H      -2.7851071509     1.2906066038    -0.1518084820
    8      H      -1.7324706009     1.3283589976     1.2683749641
    9      H      -1.0314219927     0.0000000000    -1.4163092630
   10      H      -2.7851071509    -1.2906066038    -0.1518084820
   11      H      -1.2434057219    -2.1692675433    -0.2115270935
   12      H      -1.7324706009    -1.3283589976     1.2683749641
 ----------------------------------------------------------------

    9   -2520.0619039933      5.27e-07  Convergence criterion met
 Total energy in the final basis set =    -2520.0619039933

                    Orbital Energies (a.u.)
 --------------------------------------------------------------

 Alpha MOs
 -- Occupied --
******* -58.082 -52.138 -52.136 -52.135 -10.230 -10.187 -10.187
 -7.827  -5.781  -5.766  -5.756  -2.127  -2.107  -2.098  -2.091
 -2.090  -0.823  -0.757  -0.695  -0.589  -0.462  -0.451  -0.417
 -0.394  -0.386  -0.355  -0.346  -0.301  -0.228

 Beta MOs
 -- Occupied --
******* -58.082 -52.138 -52.136 -52.135 -10.230 -10.187 -10.187
 -7.827  -5.781  -5.766  -5.756  -2.127  -2.107  -2.098  -2.091
 -2.090  -0.823  -0.757  -0.695  -0.589  -0.462  -0.451  -0.417
 -0.394  -0.386  -0.355  -0.346  -0.301  -0.228

          Ground-State Mulliken Net Atomic Charges

     Atom                 Charge (a.u.)    Spin (a.u.)
  --------------------------------------------------------
      1 C                    -0.306819       0.000000
      2 C                    -0.136499       0.000000
      3 Se                   -0.011370      -0.000000
      4 H                    -0.051295       0.000000
      5 C                    -0.306819      -0.000000
      6 H                     0.127367       0.000000
      7 H                     0.105239       0.000000
      8 H                     0.108622       0.000000
      9 H                     0.130347      -0.000000
     10 H                     0.105239       0.000000
     11 H                     0.127367       0.000000
     12 H                     0.108622       0.000000
  --------------------------------------------------------
  Sum of atomic charges =     0.000000

                    Cartesian Multipole Moments
 -----------------------------------------------------------------
    Charge (ESU x 10^10)
                 0.0000
    Dipole Moment (Debye)
         X      -1.9521      Y      -0.0000      Z       0.5899
       Tot       2.0393
    Quadrupole Moments (Debye-Ang)
        XX     -38.7785     XY      -0.0000     YY     -40.2428
        XZ       1.5494     YZ       0.0000     ZZ     -36.7362

 Final energy is   -2520.06190399330
 **  OPTIMIZATION CONVERGED  **
 Total job time:  51.48s(wall), 566.80s(cpu)
        *  Thank you very much for using Q-Chem.  Have a nice day.  *
