 Q-Chem 5.1, Q-Chem, Inc., Pleasanton, CA (2018)
 Q-Chem 5.1.1 for Intel X86 EM64T Linux

User input:
--------------------------------------------------------------

$comment
potential surface scanner
$end

$rem
JOBTYPE  PES_SCAN
UNRESTRICTED TRUE
SYM_IGNORE  TRUE
GEOM_OPT_MAX_CYCLES 400
SCF_MAX_CYCLES 400
METHOD   B3LYP
BASIS   6-31G**
PDB_PRINT 2
SCF_CONVERGENCE 6
THRESH 14
SCF_PRINT 1
$end
$molecule
0 1
C -1.733526 1.272993 0.133491
C -1.096031 0.000000 -0.419067
Se 0.887579 0.000000 -0.202661
H 0.842326 0.000000 1.796827
C -1.733526 -1.272993 0.133491
H -1.283164 2.170878 -0.295591
H -2.807781 1.282543 -0.090782
H -1.618421 1.322224 1.221279
H -1.169886 0.000000 -1.515398
H -2.807781 -1.282543 -0.090782
H -1.283164 -2.170878 -0.295591
H -1.618421 -1.322224 1.221279
$end
$scan
stre 3 4 2.100000 2.101000 0.100000
$end
--------------------------------------------------------------

   10   -2520.3957650114      7.42e-07  Convergence criterion met
 Total energy in the final basis set =    -2520.3957650114
   10   -2520.3836633244      7.94e-07  Convergence criterion met
 Total energy in the final basis set =    -2520.3836633244

             Standard Nuclear Orientation (Angstroms)
    I     Atom           X                Y                Z
 ----------------------------------------------------------------
    1      C      -1.7325072138     1.2730237194     0.1296898129
    2      C      -1.1002440361     0.0000000000    -0.4289265692
    3      Se      0.8838783475     0.0000000000    -0.2332837710
    4      H       0.8457928414     0.0000000000     1.8663705216
    5      C      -1.7325072138    -1.2730237194     0.1296898129
    6      H      -1.2865375490     2.1711130356    -0.3035150038
    7      H      -2.8089514371     1.2824017427    -0.0836283323
    8      H      -1.6055604871     1.3212937958     1.2161742660
    9      H      -1.1841097788     0.0000000000    -1.5251066670
   10      H      -2.8089514371    -1.2824017427    -0.0836283323
   11      H      -1.2865375490    -2.1711130356    -0.3035150038
   12      H      -1.6055604871    -1.3212937958     1.2161742660
 ----------------------------------------------------------------

   10   -2520.3833659328      7.98e-07  Convergence criterion met
 Total energy in the final basis set =    -2520.3833659328

                    Orbital Energies (a.u.)
 --------------------------------------------------------------

 Alpha MOs
 -- Occupied --
******* -58.100 -52.158 -52.156 -52.153 -10.232 -10.186 -10.186
 -7.832  -5.778  -5.773  -5.762  -2.111  -2.111  -2.102  -2.098
 -2.096  -0.807  -0.694  -0.671  -0.569  -0.463  -0.437  -0.416
 -0.392  -0.360  -0.356  -0.317  -0.299  -0.225

 Beta MOs
 -- Occupied --
******* -58.100 -52.158 -52.156 -52.153 -10.232 -10.186 -10.186
 -7.832  -5.778  -5.773  -5.762  -2.111  -2.111  -2.102  -2.098
 -2.096  -0.807  -0.694  -0.671  -0.569  -0.463  -0.437  -0.416
 -0.392  -0.360  -0.356  -0.317  -0.299  -0.225

          Ground-State Mulliken Net Atomic Charges

     Atom                 Charge (a.u.)    Spin (a.u.)
  --------------------------------------------------------
      1 C                    -0.298734      -0.000000
      2 C                    -0.152228       0.000000
      3 Se                   -0.065546       0.000000
      4 H                     0.001700       0.000000
      5 C                    -0.298734       0.000000
      6 H                     0.123452       0.000000
      7 H                     0.104241       0.000000
      8 H                     0.115563       0.000000
      9 H                     0.127031      -0.000000
     10 H                     0.104241      -0.000000
     11 H                     0.123452      -0.000000
     12 H                     0.115563      -0.000000
  --------------------------------------------------------
  Sum of atomic charges =    -0.000000

                    Cartesian Multipole Moments
 -----------------------------------------------------------------
    Charge (ESU x 10^10)
                 0.0000
    Dipole Moment (Debye)
         X      -1.8214      Y       0.0000      Z      -0.2159
       Tot       1.8342
    Quadrupole Moments (Debye-Ang)
        XX     -38.9947     XY       0.0000     YY     -41.3180
        XZ       0.7377     YZ       0.0000     ZZ     -37.5670

 Final energy is   -2520.38336593279
 **  OPTIMIZATION CONVERGED  **
 Total job time:  13.76s(wall), 153.56s(cpu)
        *  Thank you very much for using Q-Chem.  Have a nice day.  *
