 Q-Chem 5.1, Q-Chem, Inc., Pleasanton, CA (2018)
 Q-Chem 5.1.1 for Intel X86 EM64T Linux

User input:
--------------------------------------------------------------

$comment
potential surface scanner
$end

$rem
JOBTYPE  PES_SCAN
UNRESTRICTED TRUE
SYM_IGNORE  TRUE
GEOM_OPT_MAX_CYCLES 400
SCF_MAX_CYCLES 400
METHOD   B3LYP
BASIS   6-31G**
PDB_PRINT 2
SCF_CONVERGENCE 6
THRESH 14
SCF_PRINT 1
$end
$molecule
0 1
C -1.728805 1.274475 0.102805
C -1.130577 0.000000 -0.491133
Se 0.847788 0.000000 -0.444063
H 0.916663 0.000000 2.355089
C -1.728805 -1.274475 0.102805
H -1.310680 2.172195 -0.357952
H -2.816113 1.281632 -0.043445
H -1.530407 1.320312 1.178636
H -1.283661 0.000000 -1.583487
H -2.816113 -1.281632 -0.043445
H -1.310680 -2.172195 -0.357952
H -1.530407 -1.320312 1.178636
$end
$scan
stre 3 4 2.900000 2.901000 0.100000
$end
--------------------------------------------------------------

   13   -2520.3130732190      1.97e-07  Convergence criterion met
 Total energy in the final basis set =    -2520.3130732190
   13   -2520.3059144645      1.82e-07  Convergence criterion met
 Total energy in the final basis set =    -2520.3059144645
   13   -2520.3058072078      1.82e-07  Convergence criterion met
 Total energy in the final basis set =    -2520.3058072078
   13   -2520.3058462549      1.84e-07  Convergence criterion met
 Total energy in the final basis set =    -2520.3058462549
   13   -2520.3058478810      1.85e-07  Convergence criterion met
 Total energy in the final basis set =    -2520.3058478810

             Standard Nuclear Orientation (Angstroms)
    I     Atom           X                Y                Z
 ----------------------------------------------------------------
    1      C      -1.7257140605     1.2744465186     0.1000028977
    2      C      -1.1351302953     0.0000000000    -0.5012361108
    3      Se      0.8426998866     0.0000000000    -0.4794368331
    4      H       0.9106149947     0.0000000000     2.4197677842
    5      C      -1.7257140605    -1.2744465186     0.1000028977
    6      H      -1.3096374069     2.1721939748    -0.3622385707
    7      H      -2.8142378368     1.2837080188    -0.0374975882
    8      H      -1.5183170950     1.3170530334     1.1742638558
    9      H      -1.3041687876     0.0000000000    -1.5916620293
   10      H      -2.8142378367    -1.2837080188    -0.0374975882
   11      H      -1.3096374069    -2.1721939748    -0.3622385707
   12      H      -1.5183170950    -1.3170530334     1.1742638558
 ----------------------------------------------------------------

   13   -2520.3058522547      1.87e-07  Convergence criterion met
 Total energy in the final basis set =    -2520.3058522547

                    Orbital Energies (a.u.)
 --------------------------------------------------------------

 Alpha MOs
 -- Occupied --
******* -58.109 -52.168 -52.166 -52.163 -10.237 -10.189 -10.189
 -7.841  -5.788  -5.782  -5.771  -2.121  -2.120  -2.111  -2.107
 -2.105  -0.812  -0.696  -0.676  -0.570  -0.466  -0.440  -0.419
 -0.394  -0.361  -0.359  -0.315  -0.264  -0.230

 Beta MOs
 -- Occupied --
******* -58.109 -52.168 -52.166 -52.163 -10.237 -10.189 -10.189
 -7.841  -5.788  -5.782  -5.771  -2.121  -2.120  -2.111  -2.107
 -2.105  -0.812  -0.696  -0.676  -0.570  -0.466  -0.440  -0.419
 -0.394  -0.361  -0.359  -0.315  -0.264  -0.230

          Ground-State Mulliken Net Atomic Charges

     Atom                 Charge (a.u.)    Spin (a.u.)
  --------------------------------------------------------
      1 C                    -0.299736      -0.000000
      2 C                    -0.160158      -0.000000
      3 Se                   -0.055013      -0.000000
      4 H                    -0.024448       0.000000
      5 C                    -0.299736      -0.000000
      6 H                     0.124146       0.000000
      7 H                     0.105671      -0.000000
      8 H                     0.122441      -0.000000
      9 H                     0.134575       0.000000
     10 H                     0.105671      -0.000000
     11 H                     0.124146      -0.000000
     12 H                     0.122441       0.000000
  --------------------------------------------------------
  Sum of atomic charges =    -0.000000

                    Cartesian Multipole Moments
 -----------------------------------------------------------------
    Charge (ESU x 10^10)
                -0.0000
    Dipole Moment (Debye)
         X      -2.0144      Y      -0.0000      Z      -0.6357
       Tot       2.1123
    Quadrupole Moments (Debye-Ang)
        XX     -38.7776     XY      -0.0000     YY     -41.2913
        XZ       0.5119     YZ      -0.0000     ZZ     -38.2402

 Final energy is   -2520.30585225474
 **  OPTIMIZATION CONVERGED  **
 Total job time:  29.10s(wall), 339.67s(cpu)
        *  Thank you very much for using Q-Chem.  Have a nice day.  *
