 Q-Chem 5.1, Q-Chem, Inc., Pleasanton, CA (2018)
 Q-Chem 5.1.1 for Intel X86 EM64T Linux

User input:
--------------------------------------------------------------

$comment
potential surface scanner
$end

$rem
JOBTYPE  PES_SCAN
UNRESTRICTED TRUE
SYM_IGNORE  TRUE
GEOM_OPT_MAX_CYCLES 400
SCF_MAX_CYCLES 400
METHOD   B3LYP
BASIS   6-31G**
PDB_PRINT 2
SCF_CONVERGENCE 6
THRESH 14
SCF_PRINT 1
$end
$molecule
0 1
C -1.732774 1.273511 0.117746
C -1.113089 0.000000 -0.454239
Se 0.868615 0.000000 -0.321956
H 0.888025 0.000000 2.077965
C -1.732774 -1.273511 0.117746
H -1.298159 2.171436 -0.327100
H -2.814060 1.281157 -0.068619
H -1.576324 1.320728 1.200353
H -1.222714 0.000000 -1.550037
H -2.814060 -1.281157 -0.068619
H -1.298159 -2.171436 -0.327100
H -1.576324 -1.320728 1.200353
$end
$scan
stre 3 4 2.500000 2.501000 0.100000
$end
--------------------------------------------------------------

   11   -2520.3489227916      3.64e-07  Convergence criterion met
 Total energy in the final basis set =    -2520.3489227916
   12   -2520.3390918448      3.67e-07  Convergence criterion met
 Total energy in the final basis set =    -2520.3390918448
   12   -2520.3388814203      3.76e-07  Convergence criterion met
 Total energy in the final basis set =    -2520.3388814203

             Standard Nuclear Orientation (Angstroms)
    I     Atom           X                Y                Z
 ----------------------------------------------------------------
    1      C      -1.7329013553     1.2737456790     0.1138089557
    2      C      -1.1175511784     0.0000000000    -0.4626187217
    3      Se      0.8632549855     0.0000000000    -0.3513780058
    4      H       0.9043397409     0.0000000000     2.1482842203
    5      C      -1.7329013553    -1.2737456790     0.1138089557
    6      H      -1.3016314005     2.1716003597    -0.3344156369
    7      H      -2.8155182372     1.2811560447    -0.0644245408
    8      H      -1.5677674814     1.3205956881     1.1951405966
    9      H      -1.2362035993     0.0000000000    -1.5580132421
   10      H      -2.8155182371    -1.2811560447    -0.0644245408
   11      H      -1.3016314005    -2.1716003597    -0.3344156369
   12      H      -1.5677674814    -1.3205956881     1.1951405966
 ----------------------------------------------------------------

   12   -2520.3388818693      3.77e-07  Convergence criterion met
 Total energy in the final basis set =    -2520.3388818693

                    Orbital Energies (a.u.)
 --------------------------------------------------------------

 Alpha MOs
 -- Occupied --
******* -58.106 -52.165 -52.163 -52.160 -10.235 -10.187 -10.187
 -7.838  -5.785  -5.779  -5.768  -2.118  -2.117  -2.108  -2.104
 -2.102  -0.810  -0.695  -0.673  -0.569  -0.465  -0.438  -0.418
 -0.393  -0.360  -0.357  -0.313  -0.281  -0.228

 Beta MOs
 -- Occupied --
******* -58.106 -52.165 -52.163 -52.160 -10.235 -10.187 -10.187
 -7.838  -5.785  -5.779  -5.768  -2.118  -2.117  -2.108  -2.104
 -2.102  -0.810  -0.695  -0.673  -0.569  -0.465  -0.438  -0.418
 -0.393  -0.360  -0.357  -0.313  -0.281  -0.228

          Ground-State Mulliken Net Atomic Charges

     Atom                 Charge (a.u.)    Spin (a.u.)
  --------------------------------------------------------
      1 C                    -0.299025      -0.000000
      2 C                    -0.156399       0.000000
      3 Se                   -0.059184      -0.000000
      4 H                    -0.013620      -0.000000
      5 C                    -0.299025       0.000000
      6 H                     0.123547      -0.000000
      7 H                     0.104951       0.000000
      8 H                     0.119828      -0.000000
      9 H                     0.130602      -0.000000
     10 H                     0.104951      -0.000000
     11 H                     0.123547      -0.000000
     12 H                     0.119828      -0.000000
  --------------------------------------------------------
  Sum of atomic charges =     0.000000

                    Cartesian Multipole Moments
 -----------------------------------------------------------------
    Charge (ESU x 10^10)
                 0.0000
    Dipole Moment (Debye)
         X      -1.9240      Y      -0.0000      Z      -0.4719
       Tot       1.9810
    Quadrupole Moments (Debye-Ang)
        XX     -38.9035     XY      -0.0000     YY     -41.3313
        XZ       0.5641     YZ       0.0000     ZZ     -37.8574

 Final energy is   -2520.33888186928
 **  OPTIMIZATION CONVERGED  **
 Total job time:  19.03s(wall), 215.70s(cpu)
        *  Thank you very much for using Q-Chem.  Have a nice day.  *
