 Q-Chem 5.1, Q-Chem, Inc., Pleasanton, CA (2018)
 Q-Chem 5.1.1 for Intel X86 EM64T Linux

User input:
--------------------------------------------------------------

$comment
potential surface scanner
$end

$rem
JOBTYPE  PES_SCAN
UNRESTRICTED TRUE
SYM_IGNORE  TRUE
GEOM_OPT_MAX_CYCLES 400
SCF_MAX_CYCLES 400
METHOD   B3LYP
BASIS   6-31G**
PDB_PRINT 2
SCF_CONVERGENCE 6
THRESH 14
SCF_PRINT 1
$end
$molecule
0 1
C -1.732548 1.272894 0.148699
C -1.078563 0.000000 -0.385770
Se 0.902303 0.000000 -0.079176
H 0.785740 0.000000 1.516572
C -1.732548 -1.272894 0.148699
H -1.268046 2.170399 -0.265881
H -2.799215 1.284108 -0.109784
H -1.655661 1.324983 1.240084
H -1.120337 0.000000 -1.481362
H -2.799215 -1.284108 -0.109784
H -1.268046 -2.170399 -0.265881
H -1.655661 -1.324983 1.240084
$end
$scan
stre 3 4 1.700000 1.701000 0.100000
$end
--------------------------------------------------------------

    9   -2520.4405238566      7.79e-07  Convergence criterion met
 Total energy in the final basis set =    -2520.4405238566
   10   -2520.4317505975      3.38e-07  Convergence criterion met
 Total energy in the final basis set =    -2520.4317505975
   10   -2520.4315367253      3.40e-07  Convergence criterion met
 Total energy in the final basis set =    -2520.4315367253
   10   -2520.4315392443      3.41e-07  Convergence criterion met
 Total energy in the final basis set =    -2520.4315392443

             Standard Nuclear Orientation (Angstroms)
    I     Atom           X                Y                Z
 ----------------------------------------------------------------
    1      C      -1.7341443060     1.2729737887     0.1449384337
    2      C      -1.0826874168     0.0000000000    -0.3921095116
    3      Se      0.8992270229     0.0000000000    -0.1108066090
    4      H       0.8101557531     0.0000000000     1.5868582126
    5      C      -1.7341443060    -1.2729737887     0.1449384337
    6      H      -1.2727715161     2.1704439662    -0.2731929068
    7      H      -2.8023073426     1.2829528109    -0.1070648189
    8      H      -1.6498562400     1.3253167032     1.2356642380
    9      H      -1.1303335499     0.0000000000    -1.4881319839
   10      H      -2.8023073426    -1.2829528109    -0.1070648189
   11      H      -1.2727715161    -2.1704439662    -0.2731929068
   12      H      -1.6498562400    -1.3253167032     1.2356642380
 ----------------------------------------------------------------

   10   -2520.4315394558      3.41e-07  Convergence criterion met
 Total energy in the final basis set =    -2520.4315394558

                    Orbital Energies (a.u.)
 --------------------------------------------------------------

 Alpha MOs
 -- Occupied --
******* -58.089 -52.147 -52.146 -52.143 -10.229 -10.185 -10.185
 -7.822  -5.767  -5.763  -5.753  -2.101  -2.100  -2.092  -2.089
 -2.087  -0.805  -0.693  -0.674  -0.572  -0.461  -0.437  -0.415
 -0.392  -0.367  -0.354  -0.337  -0.301  -0.222

 Beta MOs
 -- Occupied --
******* -58.089 -52.147 -52.146 -52.143 -10.229 -10.185 -10.185
 -7.822  -5.767  -5.763  -5.753  -2.101  -2.100  -2.092  -2.089
 -2.087  -0.805  -0.693  -0.674  -0.572  -0.461  -0.437  -0.415
 -0.392  -0.367  -0.354  -0.337  -0.301  -0.222

          Ground-State Mulliken Net Atomic Charges

     Atom                 Charge (a.u.)    Spin (a.u.)
  --------------------------------------------------------
      1 C                    -0.300213       0.000000
      2 C                    -0.147815      -0.000000
      3 Se                   -0.082555      -0.000000
      4 H                     0.027726       0.000000
      5 C                    -0.300213      -0.000000
      6 H                     0.124050       0.000000
      7 H                     0.103944      -0.000000
      8 H                     0.110988       0.000000
      9 H                     0.125108       0.000000
     10 H                     0.103944       0.000000
     11 H                     0.124050      -0.000000
     12 H                     0.110988       0.000000
  --------------------------------------------------------
  Sum of atomic charges =    -0.000000

                    Cartesian Multipole Moments
 -----------------------------------------------------------------
    Charge (ESU x 10^10)
                -0.0000
    Dipole Moment (Debye)
         X      -1.7579      Y       0.0000      Z       0.1281
       Tot       1.7626
    Quadrupole Moments (Debye-Ang)
        XX     -39.0185     XY       0.0000     YY     -41.1757
        XZ       1.0552     YZ       0.0000     ZZ     -37.2303

 Final energy is   -2520.43153945584
 **  OPTIMIZATION CONVERGED  **
 Total job time:  20.79s(wall), 240.56s(cpu)
        *  Thank you very much for using Q-Chem.  Have a nice day.  *
