 Q-Chem 5.1, Q-Chem, Inc., Pleasanton, CA (2018)
 Q-Chem 5.1.1 for Intel X86 EM64T Linux

User input:
--------------------------------------------------------------

$comment
potential surface scanner
$end

$rem
JOBTYPE  PES_SCAN
UNRESTRICTED TRUE
SYM_IGNORE  TRUE
GEOM_OPT_MAX_CYCLES 400
SCF_MAX_CYCLES 400
METHOD   B3LYP
BASIS   6-31G**
PDB_PRINT 2
SCF_CONVERGENCE 6
THRESH 14
SCF_PRINT 1
$end
$molecule
0 1
C -1.732308 1.273107 0.125690
C -1.104399 0.000000 -0.437810
Se 0.879221 0.000000 -0.263000
H 0.856049 0.000000 1.936878
C -1.732308 -1.273107 0.125690
H -1.290489 2.171191 -0.311701
H -2.810623 1.281826 -0.077625
H -1.594294 1.320863 1.210830
H -1.197238 0.000000 -1.533961
H -2.810623 -1.281826 -0.077625
H -1.290489 -2.171191 -0.311701
H -1.594294 -1.320863 1.210830
$end
$scan
stre 3 4 2.300000 2.301000 0.100000
$end
--------------------------------------------------------------

   10   -2520.3712684910      9.87e-07  Convergence criterion met
 Total energy in the final basis set =    -2520.3712684910
   11   -2520.3599730446      1.19e-07  Convergence criterion met
 Total energy in the final basis set =    -2520.3599730446
   11   -2520.3597127065      1.20e-07  Convergence criterion met
 Total energy in the final basis set =    -2520.3597127065

             Standard Nuclear Orientation (Angstroms)
    I     Atom           X                Y                Z
 ----------------------------------------------------------------
    1      C      -1.7325498529     1.2733140788     0.1216963286
    2      C      -1.1087372975     0.0000000000    -0.4460097776
    3      Se      0.8738553838     0.0000000000    -0.2924283008
    4      H       0.8717330118     0.0000000000     2.0075704724
    5      C      -1.7325498529    -1.2733140787     0.1216963286
    6      H      -1.2944238466     2.1712879449    -0.3196084658
    7      H      -2.8124251920     1.2814315228    -0.0729319405
    8      H      -1.5850306557     1.3208741219     1.2055523465
    9      H      -1.2097870039     0.0000000000    -1.5420539313
   10      H      -2.8124251920    -1.2814315228    -0.0729319405
   11      H      -1.2944238466    -2.1712879449    -0.3196084658
   12      H      -1.5850306556    -1.3208741219     1.2055523465
 ----------------------------------------------------------------

   11   -2520.3597131871      1.19e-07  Convergence criterion met
 Total energy in the final basis set =    -2520.3597131871

                    Orbital Energies (a.u.)
 --------------------------------------------------------------

 Alpha MOs
 -- Occupied --
******* -58.104 -52.162 -52.160 -52.157 -10.233 -10.187 -10.187
 -7.835  -5.782  -5.777  -5.766  -2.115  -2.114  -2.106  -2.101
 -2.099  -0.808  -0.695  -0.672  -0.569  -0.464  -0.438  -0.417
 -0.393  -0.359  -0.356  -0.313  -0.292  -0.226

 Beta MOs
 -- Occupied --
******* -58.104 -52.162 -52.160 -52.157 -10.233 -10.187 -10.187
 -7.835  -5.782  -5.777  -5.766  -2.115  -2.114  -2.106  -2.101
 -2.099  -0.808  -0.695  -0.672  -0.569  -0.464  -0.438  -0.417
 -0.393  -0.359  -0.356  -0.313  -0.292  -0.226

          Ground-State Mulliken Net Atomic Charges

     Atom                 Charge (a.u.)    Spin (a.u.)
  --------------------------------------------------------
      1 C                    -0.298690      -0.000000
      2 C                    -0.154339       0.000000
      3 Se                   -0.061755       0.000000
      4 H                    -0.006790      -0.000000
      5 C                    -0.298690      -0.000000
      6 H                     0.123401      -0.000000
      7 H                     0.104559       0.000000
      8 H                     0.117827       0.000000
      9 H                     0.128688      -0.000000
     10 H                     0.104559       0.000000
     11 H                     0.123401       0.000000
     12 H                     0.117827       0.000000
  --------------------------------------------------------
  Sum of atomic charges =     0.000000

                    Cartesian Multipole Moments
 -----------------------------------------------------------------
    Charge (ESU x 10^10)
                 0.0000
    Dipole Moment (Debye)
         X      -1.8700      Y       0.0000      Z      -0.3570
       Tot       1.9038
    Quadrupole Moments (Debye-Ang)
        XX     -38.9559     XY      -0.0000     YY     -41.3373
        XZ       0.6321     YZ      -0.0000     ZZ     -37.7119

 Final energy is   -2520.35971318708
 **  OPTIMIZATION CONVERGED  **
 Total job time:  17.85s(wall), 203.98s(cpu)
        *  Thank you very much for using Q-Chem.  Have a nice day.  *
