 Q-Chem 5.1, Q-Chem, Inc., Pleasanton, CA (2018)
 Q-Chem 5.1.1 for Intel X86 EM64T Linux

User input:
--------------------------------------------------------------

$comment
potential surface scanner
$end

$rem
JOBTYPE  PES_SCAN
UNRESTRICTED TRUE
SYM_IGNORE  TRUE
GEOM_OPT_MAX_CYCLES 400
SCF_MAX_CYCLES 400
METHOD   B3LYP
BASIS   6-31G**
PDB_PRINT 2
SCF_CONVERGENCE 6
THRESH 14
SCF_PRINT 1
$end
$molecule
0 1
C -1.732901 1.273746 0.113809
C -1.117551 0.000000 -0.462619
Se 0.863255 0.000000 -0.351378
H 0.904340 0.000000 2.148284
C -1.732901 -1.273746 0.113809
H -1.301631 2.171600 -0.334416
H -2.815518 1.281156 -0.064425
H -1.567767 1.320596 1.195141
H -1.236204 0.000000 -1.558013
H -2.815518 -1.281156 -0.064425
H -1.301631 -2.171600 -0.334416
H -1.567767 -1.320596 1.195141
$end
$scan
stre 3 4 2.600000 2.601000 0.100000
$end
--------------------------------------------------------------

   12   -2520.3388818908      3.77e-07  Convergence criterion met
 Total energy in the final basis set =    -2520.3388818908
   12   -2520.3297472077      8.03e-07  Convergence criterion met
 Total energy in the final basis set =    -2520.3297472077
   12   -2520.3295588571      8.20e-07  Convergence criterion met
 Total energy in the final basis set =    -2520.3295588571

             Standard Nuclear Orientation (Angstroms)
    I     Atom           X                Y                Z
 ----------------------------------------------------------------
    1      C      -1.7322338681     1.2739813614     0.1100113576
    2      C      -1.1219954690     0.0000000000    -0.4716743579
    3      Se      0.8580058121     0.0000000000    -0.3815520534
    4      H       0.9142563960     0.0000000000     2.2178392542
    5      C      -1.7322338681    -1.2739813614     0.1100113576
    6      H      -1.3047055013     2.1717762572    -0.3418908961
    7      H      -2.8163185377     1.2813815177    -0.0588360327
    8      H      -1.5572549604     1.3203891001     1.1898288721
    9      H      -1.2510350041     0.0000000000    -1.5663474447
   10      H      -2.8163185377    -1.2813815176    -0.0588360327
   11      H      -1.3047055013    -2.1717762572    -0.3418908961
   12      H      -1.5572549604    -1.3203891001     1.1898288721
 ----------------------------------------------------------------

   12   -2520.3295593111      8.24e-07  Convergence criterion met
 Total energy in the final basis set =    -2520.3295593111

                    Orbital Energies (a.u.)
 --------------------------------------------------------------

 Alpha MOs
 -- Occupied --
******* -58.107 -52.166 -52.164 -52.161 -10.235 -10.188 -10.188
 -7.839  -5.786  -5.780  -5.769  -2.119  -2.118  -2.109  -2.105
 -2.103  -0.810  -0.696  -0.674  -0.569  -0.465  -0.439  -0.418
 -0.394  -0.360  -0.358  -0.314  -0.277  -0.228

 Beta MOs
 -- Occupied --
******* -58.107 -52.166 -52.164 -52.161 -10.235 -10.188 -10.188
 -7.839  -5.786  -5.780  -5.769  -2.119  -2.118  -2.109  -2.105
 -2.103  -0.810  -0.696  -0.674  -0.569  -0.465  -0.439  -0.418
 -0.394  -0.360  -0.358  -0.314  -0.277  -0.228

          Ground-State Mulliken Net Atomic Charges

     Atom                 Charge (a.u.)    Spin (a.u.)
  --------------------------------------------------------
      1 C                    -0.299209       0.000000
      2 C                    -0.157446      -0.000000
      3 Se                   -0.058038       0.000000
      4 H                    -0.016623      -0.000000
      5 C                    -0.299209      -0.000000
      6 H                     0.123654      -0.000000
      7 H                     0.105145       0.000000
      8 H                     0.120660      -0.000000
      9 H                     0.131608       0.000000
     10 H                     0.105145      -0.000000
     11 H                     0.123654       0.000000
     12 H                     0.120660       0.000000
  --------------------------------------------------------
  Sum of atomic charges =    -0.000000

                    Cartesian Multipole Moments
 -----------------------------------------------------------------
    Charge (ESU x 10^10)
                 0.0000
    Dipole Moment (Debye)
         X      -1.9495      Y       0.0000      Z      -0.5211
       Tot       2.0179
    Quadrupole Moments (Debye-Ang)
        XX     -38.8750     XY      -0.0000     YY     -41.3231
        XZ       0.5394     YZ       0.0000     ZZ     -37.9375

 Final energy is   -2520.32955931107
 **  OPTIMIZATION CONVERGED  **
 Total job time:  19.43s(wall), 218.80s(cpu)
        *  Thank you very much for using Q-Chem.  Have a nice day.  *
