 Q-Chem 5.1, Q-Chem, Inc., Pleasanton, CA (2018)
 Q-Chem 5.1.1 for Intel X86 EM64T Linux

User input:
--------------------------------------------------------------

$comment
potential surface scanner
$end

$rem
JOBTYPE  PES_SCAN
UNRESTRICTED TRUE
SYM_IGNORE  TRUE
GEOM_OPT_MAX_CYCLES 400
SCF_MAX_CYCLES 400
METHOD   B3LYP
BASIS   6-31G**
PDB_PRINT 2
SCF_CONVERGENCE 6
THRESH 14
SCF_PRINT 1
$end
$molecule
0 1
C -1.720070 1.274498 0.093983
C -1.144031 0.000000 -0.522193
Se 0.831310 0.000000 -0.548742
H 0.897493 0.000000 2.550551
C -1.720070 -1.274498 0.093983
H -1.309423 2.172533 -0.372483
H -2.810853 1.287524 -0.023292
H -1.491835 1.311468 1.164347
H -1.342207 0.000000 -1.608235
H -2.810853 -1.287524 -0.023292
H -1.309423 -2.172533 -0.372483
H -1.491835 -1.311468 1.164347
$end
$scan
stre 3 4 3.200000 3.201000 0.100000
$end
--------------------------------------------------------------

   15   -2520.2932300111      6.44e-08  Convergence criterion met
 Total energy in the final basis set =    -2520.2932300111
   15   -2520.2877718283      6.58e-07  Convergence criterion met
 Total energy in the final basis set =    -2520.2877718283
   15   -2520.2877105012      6.95e-07  Convergence criterion met
 Total energy in the final basis set =    -2520.2877105012
   15   -2520.2877471496      6.88e-07  Convergence criterion met
 Total energy in the final basis set =    -2520.2877471496
   15   -2520.2877488585      6.89e-07  Convergence criterion met
 Total energy in the final basis set =    -2520.2877488585
   15   -2520.2877550912      6.98e-07  Convergence criterion met
 Total energy in the final basis set =    -2520.2877550912

             Standard Nuclear Orientation (Angstroms)
    I     Atom           X                Y                Z
 ----------------------------------------------------------------
    1      C      -1.7168056294     1.2744444727     0.0910482887
    2      C      -1.1481915137     0.0000000000    -0.5324464734
    3      Se      0.8256561341     0.0000000000    -0.5840910819
    4      H       0.8878014255     0.0000000000     2.6153050951
    5      C      -1.7168056294    -1.2744444727     0.0910482887
    6      H      -1.3098773582     2.1726911058    -0.3781805865
    7      H      -2.8086969887     1.2886169235    -0.0151574576
    8      H      -1.4776568996     1.3090856179     1.1591400492
    9      H      -1.3609892940     0.0000000000    -1.6159771275
   10      H      -2.8086969887    -1.2886169235    -0.0151574576
   11      H      -1.3098773582    -2.1726911058    -0.3781805865
   12      H      -1.4776568996    -1.3090856179     1.1591400492
 ----------------------------------------------------------------

   15   -2520.2877558254      6.99e-07  Convergence criterion met
 Total energy in the final basis set =    -2520.2877558254

                    Orbital Energies (a.u.)
 --------------------------------------------------------------

 Alpha MOs
 -- Occupied --
******* -58.110 -52.168 -52.167 -52.163 -10.238 -10.189 -10.189
 -7.842  -5.789  -5.783  -5.772  -2.122  -2.121  -2.112  -2.108
 -2.106  -0.813  -0.697  -0.677  -0.571  -0.467  -0.440  -0.420
 -0.395  -0.361  -0.360  -0.316  -0.255  -0.231

 Beta MOs
 -- Occupied --
******* -58.110 -52.168 -52.167 -52.163 -10.238 -10.189 -10.189
 -7.842  -5.789  -5.783  -5.772  -2.122  -2.121  -2.112  -2.108
 -2.106  -0.813  -0.697  -0.677  -0.571  -0.467  -0.440  -0.420
 -0.395  -0.361  -0.360  -0.316  -0.255  -0.231

          Ground-State Mulliken Net Atomic Charges

     Atom                 Charge (a.u.)    Spin (a.u.)
  --------------------------------------------------------
      1 C                    -0.300422       0.000000
      2 C                    -0.162063      -0.000000
      3 Se                   -0.052519      -0.000000
      4 H                    -0.030916       0.000000
      5 C                    -0.300422      -0.000000
      6 H                     0.124800      -0.000000
      7 H                     0.106295       0.000000
      8 H                     0.123381      -0.000000
      9 H                     0.137391      -0.000000
     10 H                     0.106295      -0.000000
     11 H                     0.124800       0.000000
     12 H                     0.123381       0.000000
  --------------------------------------------------------
  Sum of atomic charges =    -0.000000

                    Cartesian Multipole Moments
 -----------------------------------------------------------------
    Charge (ESU x 10^10)
                 0.0000
    Dipole Moment (Debye)
         X      -2.0637      Y       0.0000      Z      -0.7040
       Tot       2.1805
    Quadrupole Moments (Debye-Ang)
        XX     -38.6606     XY      -0.0000     YY     -41.2624
        XZ       0.5560     YZ       0.0000     ZZ     -38.6571

 Final energy is   -2520.28775582538
 **  OPTIMIZATION CONVERGED  **
 Total job time:  38.18s(wall), 438.22s(cpu)
        *  Thank you very much for using Q-Chem.  Have a nice day.  *
