 Q-Chem 5.1, Q-Chem, Inc., Pleasanton, CA (2018)
 Q-Chem 5.1.1 for Intel X86 EM64T Linux

User input:
--------------------------------------------------------------

$comment
potential surface scanner
$end

$rem
JOBTYPE  PES_SCAN
UNRESTRICTED TRUE
SYM_IGNORE  TRUE
GEOM_OPT_MAX_CYCLES 400
SCF_MAX_CYCLES 400
METHOD   B3LYP
BASIS   6-31G**
PDB_PRINT 2
SCF_CONVERGENCE 6
THRESH 14
SCF_PRINT 1
$end
$molecule
0 1
C -1.722899 1.274509 0.097042
C -1.139650 0.000000 -0.511627
Se 0.837011 0.000000 -0.514264
H 0.904570 0.000000 2.484975
C -1.722899 -1.274509 0.097042
H -1.309213 2.172423 -0.366970
H -2.812557 1.285858 -0.030820
H -1.505499 1.314033 1.169439
H -1.323391 0.000000 -1.599974
H -2.812557 -1.285858 -0.030820
H -1.309213 -2.172423 -0.366970
H -1.505499 -1.314033 1.169439
$end
$scan
stre 3 4 3.100000 3.101000 0.100000
$end
--------------------------------------------------------------

   13   -2520.2992493586      8.29e-07  Convergence criterion met
 Total energy in the final basis set =    -2520.2992493586
   15   -2520.2932607455      6.80e-08  Convergence criterion met
 Total energy in the final basis set =    -2520.2932607455
   15   -2520.2931845877      6.69e-08  Convergence criterion met
 Total energy in the final basis set =    -2520.2931845877
   15   -2520.2932215595      6.50e-08  Convergence criterion met
 Total energy in the final basis set =    -2520.2932215595
   15   -2520.2932233737      6.49e-08  Convergence criterion met
 Total energy in the final basis set =    -2520.2932233737
   15   -2520.2932294250      6.45e-08  Convergence criterion met
 Total energy in the final basis set =    -2520.2932294250

             Standard Nuclear Orientation (Angstroms)
    I     Atom           X                Y                Z
 ----------------------------------------------------------------
    1      C      -1.7200697494     1.2744975719     0.0939825441
    2      C      -1.1440308542     0.0000000000    -0.5221927769
    3      Se      0.8313098863     0.0000000000    -0.5487419642
    4      H       0.8974925391     0.0000000000     2.5505511055
    5      C      -1.7200697500    -1.2744975753     0.0939825369
    6      H      -1.3094232749     2.1725330040    -0.3724825849
    7      H      -2.8108525365     1.2875240670    -0.0232916215
    8      H      -1.4918345325     1.3114682885     1.1643471247
    9      H      -1.3422074048     0.0000000000    -1.6082352996
   10      H      -2.8108525401    -1.2875240602    -0.0232916005
   11      H      -1.3094232606    -2.1725330065    -0.3724825803
   12      H      -1.4918345225    -1.3114682855     1.1643471165
 ----------------------------------------------------------------

   15   -2520.2932300075      6.44e-08  Convergence criterion met
 Total energy in the final basis set =    -2520.2932300075

                    Orbital Energies (a.u.)
 --------------------------------------------------------------

 Alpha MOs
 -- Occupied --
******* -58.110 -52.168 -52.166 -52.163 -10.238 -10.189 -10.189
 -7.842  -5.789  -5.783  -5.772  -2.122  -2.121  -2.112  -2.107
 -2.106  -0.813  -0.697  -0.677  -0.570  -0.467  -0.440  -0.419
 -0.395  -0.361  -0.359  -0.316  -0.258  -0.231

 Beta MOs
 -- Occupied --
******* -58.110 -52.168 -52.166 -52.163 -10.238 -10.189 -10.189
 -7.842  -5.789  -5.783  -5.772  -2.122  -2.121  -2.112  -2.107
 -2.106  -0.813  -0.697  -0.677  -0.570  -0.467  -0.440  -0.419
 -0.395  -0.361  -0.359  -0.316  -0.258  -0.231

          Ground-State Mulliken Net Atomic Charges

     Atom                 Charge (a.u.)    Spin (a.u.)
  --------------------------------------------------------
      1 C                    -0.300205       0.000000
      2 C                    -0.161506      -0.000000
      3 Se                   -0.053345       0.000000
      4 H                    -0.028853      -0.000000
      5 C                    -0.300205      -0.000000
      6 H                     0.124584      -0.000000
      7 H                     0.106092       0.000000
      8 H                     0.123136       0.000000
      9 H                     0.136490       0.000000
     10 H                     0.106092       0.000000
     11 H                     0.124584      -0.000000
     12 H                     0.123136       0.000000
  --------------------------------------------------------
  Sum of atomic charges =    -0.000000

                    Cartesian Multipole Moments
 -----------------------------------------------------------------
    Charge (ESU x 10^10)
                -0.0000
    Dipole Moment (Debye)
         X      -2.0489      Y       0.0000      Z      -0.6858
       Tot       2.1607
    Quadrupole Moments (Debye-Ang)
        XX     -38.7011     XY      -0.0000     YY     -41.2718
        XZ       0.5350     YZ      -0.0000     ZZ     -38.5045

 Final energy is   -2520.29323000754
 **  OPTIMIZATION CONVERGED  **
 Total job time:  37.51s(wall), 435.21s(cpu)
        *  Thank you very much for using Q-Chem.  Have a nice day.  *
