 Q-Chem 5.1, Q-Chem, Inc., Pleasanton, CA (2018)
 Q-Chem 5.1.1 for Intel X86 EM64T Linux

User input:
--------------------------------------------------------------

$comment
potential surface scanner
$end

$rem
JOBTYPE  PES_SCAN
UNRESTRICTED TRUE
SYM_IGNORE  TRUE
GEOM_OPT_MAX_CYCLES 400
SCF_MAX_CYCLES 400
METHOD   B3LYP
BASIS   6-31G**
PDB_PRINT 2
SCF_CONVERGENCE 6
THRESH 14
SCF_PRINT 1
$end
$molecule
0 1
C -1.734129 1.272890 0.141152
C -1.086993 0.000000 -0.400936
Se 0.896202 0.000000 -0.141654
H 0.822063 0.000000 1.656818
C -1.734129 -1.272890 0.141152
H -1.276441 2.170622 -0.280431
H -2.804327 1.282616 -0.102016
H -1.639984 1.324051 1.231030
H -1.143305 0.000000 -1.497202
H -2.804327 -1.282616 -0.102016
H -1.276441 -2.170622 -0.280431
H -1.639984 -1.324051 1.231030
$end
$scan
stre 3 4 1.900000 1.901000 0.100000
$end
--------------------------------------------------------------

   10   -2520.4206613058      4.55e-07  Convergence criterion met
 Total energy in the final basis set =    -2520.4206613058
   10   -2520.4087540615      6.05e-07  Convergence criterion met
 Total energy in the final basis set =    -2520.4087540615
   10   -2520.4084483688      6.10e-07  Convergence criterion met
 Total energy in the final basis set =    -2520.4084483688

             Standard Nuclear Orientation (Angstroms)
    I     Atom           X                Y                Z
 ----------------------------------------------------------------
    1      C      -1.7343224275     1.2729297168     0.1372834578
    2      C      -1.0915123611     0.0000000000    -0.4095340048
    3      Se      0.8918969394     0.0000000000    -0.1721191221
    4      H       0.8359269851     0.0000000000     1.7270561440
    5      C      -1.7343224275    -1.2729297168     0.1372834578
    6      H      -1.2799896483     2.1706880307    -0.2878275354
    7      H      -2.8064257587     1.2825368117    -0.0971559417
    8      H      -1.6303511870     1.3231524116     1.2262282502
    9      H      -1.1559285204     0.0000000000    -1.5059634789
   10      H      -2.8064257587    -1.2825368117    -0.0971559417
   11      H      -1.2799896483    -2.1706880307    -0.2878275354
   12      H      -1.6303511870    -1.3231524115     1.2262282502
 ----------------------------------------------------------------

   10   -2520.4084488970      6.10e-07  Convergence criterion met
 Total energy in the final basis set =    -2520.4084488970

                    Orbital Energies (a.u.)
 --------------------------------------------------------------

 Alpha MOs
 -- Occupied --
******* -58.095 -52.153 -52.152 -52.149 -10.230 -10.186 -10.186
 -7.827  -5.773  -5.768  -5.758  -2.106  -2.106  -2.097  -2.094
 -2.092  -0.806  -0.694  -0.671  -0.569  -0.462  -0.437  -0.416
 -0.392  -0.362  -0.355  -0.327  -0.301  -0.223

 Beta MOs
 -- Occupied --
******* -58.095 -52.153 -52.152 -52.149 -10.230 -10.186 -10.186
 -7.827  -5.773  -5.768  -5.758  -2.106  -2.106  -2.097  -2.094
 -2.092  -0.806  -0.694  -0.671  -0.569  -0.462  -0.437  -0.416
 -0.392  -0.362  -0.355  -0.327  -0.301  -0.223

          Ground-State Mulliken Net Atomic Charges

     Atom                 Charge (a.u.)    Spin (a.u.)
  --------------------------------------------------------
      1 C                    -0.299355      -0.000000
      2 C                    -0.149932       0.000000
      3 Se                   -0.071977       0.000000
      4 H                     0.012837       0.000000
      5 C                    -0.299355       0.000000
      6 H                     0.123669       0.000000
      7 H                     0.104053      -0.000000
      8 H                     0.113296       0.000000
      9 H                     0.125745       0.000000
     10 H                     0.104053       0.000000
     11 H                     0.123669      -0.000000
     12 H                     0.113296      -0.000000
  --------------------------------------------------------
  Sum of atomic charges =    -0.000000

                    Cartesian Multipole Moments
 -----------------------------------------------------------------
    Charge (ESU x 10^10)
                -0.0000
    Dipole Moment (Debye)
         X      -1.7827      Y       0.0000      Z      -0.0477
       Tot       1.7833
    Quadrupole Moments (Debye-Ang)
        XX     -39.0115     XY      -0.0000     YY     -41.2668
        XZ       0.8934     YZ       0.0000     ZZ     -37.4094

 Final energy is   -2520.40844889702
 **  OPTIMIZATION CONVERGED  **
 Total job time:  17.45s(wall), 196.69s(cpu)
        *  Thank you very much for using Q-Chem.  Have a nice day.  *
