 Q-Chem 5.1, Q-Chem, Inc., Pleasanton, CA (2018)
 Q-Chem 5.1.1 for Intel X86 EM64T Linux

User input:
--------------------------------------------------------------

$comment
potential surface scanner
$end

$rem
JOBTYPE  PES_SCAN
UNRESTRICTED TRUE
SYM_IGNORE  TRUE
GEOM_OPT_MAX_CYCLES 400
SCF_MAX_CYCLES 400
METHOD   B3LYP
BASIS   6-31G**
PDB_PRINT 2
SCF_CONVERGENCE 6
THRESH 14
SCF_PRINT 1
$end
$molecule
0 1
C -1.730200 1.249200 0.145700
C -1.070500 -0.000000 -0.441800
Se 0.838900 0.000000 0.000600
H 0.783300 0.000000 1.559600
C -1.730200 -1.249200 0.145700
H -1.260200 2.139200 -0.272800
H -2.792000 1.249200 -0.100300
H -1.608100 1.249200 1.228900
H -1.192500 -0.000000 -1.524900
H -2.792000 -1.249200 -0.100300
H -1.260200 -2.139200 -0.272800
H -1.608100 -1.249200 1.228900
$end
$scan
stre 3 4 1.500000 1.501000 0.100000
$end
--------------------------------------------------------------

    9   -2520.4375567929      9.33e-07  Convergence criterion met
 Total energy in the final basis set =    -2520.4375567929
    9   -2520.4442847362      7.15e-07  Convergence criterion met
 Total energy in the final basis set =    -2520.4442847362
    9   -2520.4448180141      7.62e-07  Convergence criterion met
 Total energy in the final basis set =    -2520.4448180141
    9   -2520.4449597196      8.00e-07  Convergence criterion met
 Total energy in the final basis set =    -2520.4449597196
    9   -2520.4449622408      7.98e-07  Convergence criterion met
 Total energy in the final basis set =    -2520.4449622408

             Standard Nuclear Orientation (Angstroms)
    I     Atom           X                Y                Z
 ----------------------------------------------------------------
    1      C      -1.7326420035     1.2731502048     0.1525341611
    2      C      -1.0748078357     0.0000000000    -0.3768247106
    3      Se      0.9037788347     0.0000000000    -0.0481963007
    4      H       0.7765248612     0.0000000000     1.4463963121
    5      C      -1.7326420033    -1.2731502047     0.1525341612
    6      H      -1.2636861604     2.1702268778    -0.2579519135
    7      H      -2.7969234964     1.2853100092    -0.1156227807
    8      H      -1.6662941235     1.3258857926     1.2446577251
    9      H      -1.1082042935     0.0000000000    -1.4721096850
   10      H      -2.7969234962    -1.2853100092    -0.1156227807
   11      H      -1.2636861602    -2.1702268777    -0.2579519135
   12      H      -1.6662941233    -1.3258857924     1.2446577251
 ----------------------------------------------------------------

    9   -2520.4449626181      7.96e-07  Convergence criterion met
 Total energy in the final basis set =    -2520.4449626181

                    Orbital Energies (a.u.)
 --------------------------------------------------------------

 Alpha MOs
 -- Occupied --
******* -58.083 -52.140 -52.139 -52.137 -10.228 -10.185 -10.185
 -7.816  -5.762  -5.758  -5.748  -2.095  -2.095  -2.087  -2.083
 -2.082  -0.805  -0.693  -0.683  -0.576  -0.461  -0.439  -0.415
 -0.392  -0.375  -0.354  -0.343  -0.300  -0.222

 Beta MOs
 -- Occupied --
******* -58.083 -52.140 -52.139 -52.137 -10.228 -10.185 -10.185
 -7.816  -5.762  -5.758  -5.748  -2.095  -2.095  -2.087  -2.083
 -2.082  -0.805  -0.693  -0.683  -0.576  -0.461  -0.439  -0.415
 -0.392  -0.375  -0.354  -0.343  -0.300  -0.222

          Ground-State Mulliken Net Atomic Charges

     Atom                 Charge (a.u.)    Spin (a.u.)
  --------------------------------------------------------
      1 C                    -0.301220       0.000000
      2 C                    -0.145880      -0.000000
      3 Se                   -0.098854       0.000000
      4 H                     0.046710       0.000000
      5 C                    -0.301220      -0.000000
      6 H                     0.124696      -0.000000
      7 H                     0.103933       0.000000
      8 H                     0.108958       0.000000
      9 H                     0.125289       0.000000
     10 H                     0.103933      -0.000000
     11 H                     0.124696       0.000000
     12 H                     0.108958       0.000000
  --------------------------------------------------------
  Sum of atomic charges =    -0.000000

                    Cartesian Multipole Moments
 -----------------------------------------------------------------
    Charge (ESU x 10^10)
                 0.0000
    Dipole Moment (Debye)
         X      -1.7590      Y      -0.0000      Z       0.2916
       Tot       1.7831
    Quadrupole Moments (Debye-Ang)
        XX     -39.0148     XY      -0.0000     YY     -41.0351
        XZ       1.2044     YZ       0.0000     ZZ     -37.0390

 Final energy is   -2520.44496261811
 **  OPTIMIZATION CONVERGED  **
 Total job time:  24.07s(wall), 274.72s(cpu)
        *  Thank you very much for using Q-Chem.  Have a nice day.  *
