 Q-Chem 5.1, Q-Chem, Inc., Pleasanton, CA (2018)
 Q-Chem 5.1.1 for Intel X86 EM64T Linux

User input:
--------------------------------------------------------------

$comment
potential surface scanner
$end

$rem
JOBTYPE  PES_SCAN
UNRESTRICTED TRUE
SYM_IGNORE  TRUE
GEOM_OPT_MAX_CYCLES 400
SCF_MAX_CYCLES 400
METHOD   B3LYP
BASIS   6-31G**
PDB_PRINT 2
SCF_CONVERGENCE 6
THRESH 14
SCF_PRINT 1
$end
$molecule
0 1
C -1.730200 1.249200 0.145700
C -1.070500 -0.000000 -0.441800
Se 0.838900 0.000000 0.000600
H 0.783300 0.000000 1.559600
C -1.730200 -1.249200 0.145700
H -1.260200 2.139200 -0.272800
H -2.792000 1.249200 -0.100300
H -1.608100 1.249200 1.228900
H -1.192500 -0.000000 -1.524900
H -2.792000 -1.249200 -0.100300
H -1.260200 -2.139200 -0.272800
H -1.608100 -1.249200 1.228900
$end
$scan
stre 3 4 1.200000 1.201000 0.100000
$end
--------------------------------------------------------------

    9   -2520.4375567929      9.33e-07  Convergence criterion met
 Total energy in the final basis set =    -2520.4375567929
    9   -2520.4430142722      6.12e-07  Convergence criterion met
 Total energy in the final basis set =    -2520.4430142722
    9   -2520.4235135398      5.66e-07  Convergence criterion met
 Total energy in the final basis set =    -2520.4235135398
    9   -2520.3980382344      5.54e-07  Convergence criterion met
 Total energy in the final basis set =    -2520.3980382344
    9   -2520.3976651172      5.54e-07  Convergence criterion met
 Total energy in the final basis set =    -2520.3976651172
    9   -2520.3977598742      5.55e-07  Convergence criterion met
 Total energy in the final basis set =    -2520.3977598742
    9   -2520.3977705629      5.55e-07  Convergence criterion met
 Total energy in the final basis set =    -2520.3977705629

             Standard Nuclear Orientation (Angstroms)
    I     Atom           X                Y                Z
 ----------------------------------------------------------------
    1      C      -1.7341375572     1.2738917648     0.1635768631
    2      C      -1.0649622874     0.0000000000    -0.3499911208
    3      Se      0.9044036839     0.0000000000     0.0465973944
    4      H       0.7639076821     0.0000000000     1.2383443339
    5      C      -1.7341375572    -1.2738917648     0.1635768631
    6      H      -1.2534376930     2.1701881721    -0.2349906043
    7      H      -2.7909762039     1.2879291811    -0.1328921784
    8      H      -1.6985736315     1.3285044375     1.2572011546
    9      H      -1.0708989073     0.0000000000    -1.4442410774
   10      H      -2.7909762040    -1.2879291811    -0.1328921784
   11      H      -1.2534376930    -2.1701881721    -0.2349906043
   12      H      -1.6985736315    -1.3285044375     1.2572011546
 ----------------------------------------------------------------

    9   -2520.3977777373      5.55e-07  Convergence criterion met
 Total energy in the final basis set =    -2520.3977777373

                    Orbital Energies (a.u.)
 --------------------------------------------------------------

 Alpha MOs
 -- Occupied --
******* -58.075 -52.132 -52.131 -52.129 -10.228 -10.186 -10.186
 -7.811  -5.757  -5.753  -5.743  -2.093  -2.090  -2.082  -2.079
 -2.078  -0.809  -0.714  -0.694  -0.583  -0.461  -0.445  -0.415
 -0.393  -0.386  -0.354  -0.345  -0.300  -0.223

 Beta MOs
 -- Occupied --
******* -58.075 -52.132 -52.131 -52.129 -10.228 -10.186 -10.186
 -7.811  -5.757  -5.753  -5.743  -2.093  -2.090  -2.082  -2.079
 -2.078  -0.809  -0.714  -0.694  -0.583  -0.461  -0.445  -0.415
 -0.393  -0.386  -0.354  -0.345  -0.300  -0.223

          Ground-State Mulliken Net Atomic Charges

     Atom                 Charge (a.u.)    Spin (a.u.)
  --------------------------------------------------------
      1 C                    -0.303484       0.000000
      2 C                    -0.141386      -0.000000
      3 Se                   -0.118133      -0.000000
      4 H                     0.063570       0.000000
      5 C                    -0.303484      -0.000000
      6 H                     0.125953       0.000000
      7 H                     0.104331       0.000000
      8 H                     0.107662      -0.000000
      9 H                     0.127024      -0.000000
     10 H                     0.104331       0.000000
     11 H                     0.125953       0.000000
     12 H                     0.107662       0.000000
  --------------------------------------------------------
  Sum of atomic charges =    -0.000000

                    Cartesian Multipole Moments
 -----------------------------------------------------------------
    Charge (ESU x 10^10)
                -0.0000
    Dipole Moment (Debye)
         X      -1.8232      Y       0.0000      Z       0.4899
       Tot       1.8879
    Quadrupole Moments (Debye-Ang)
        XX     -38.9373     XY       0.0000     YY     -40.7032
        XZ       1.4214     YZ       0.0000     ZZ     -36.8110

 Final energy is   -2520.39777773729
 **  OPTIMIZATION CONVERGED  **
 Total job time:  31.41s(wall), 363.46s(cpu)
        *  Thank you very much for using Q-Chem.  Have a nice day.  *
