 Q-Chem 5.1, Q-Chem, Inc., Pleasanton, CA (2018)
 Q-Chem 5.1.1 for Intel X86 EM64T Linux

User input:
--------------------------------------------------------------

$comment
potential surface scanner
$end

$rem
JOBTYPE  PES_SCAN
UNRESTRICTED TRUE
SYM_IGNORE  TRUE
GEOM_OPT_MAX_CYCLES 400
SCF_MAX_CYCLES 400
METHOD   B3LYP
BASIS   6-31G**
PDB_PRINT 2
SCF_CONVERGENCE 6
THRESH 14
SCF_PRINT 1
$end
$molecule
0 1
C -1.730710 1.274220 0.106391
C -1.126306 0.000000 -0.481290
Se 0.852904 0.000000 -0.412701
H 0.916957 0.000000 2.286539
C -1.730710 -1.274220 0.106391
H -1.307605 2.171975 -0.349728
H -2.816402 1.281588 -0.051580
H -1.544411 1.320229 1.184353
H -1.267095 0.000000 -1.574928
H -2.816402 -1.281588 -0.051580
H -1.307605 -2.171975 -0.349728
H -1.544411 -1.320229 1.184353
$end
$scan
stre 3 4 2.800000 2.801000 0.100000
$end
--------------------------------------------------------------

   13   -2520.3209616796      1.24e-07  Convergence criterion met
 Total energy in the final basis set =    -2520.3209616796
   12   -2520.3132210075      9.57e-07  Convergence criterion met
 Total energy in the final basis set =    -2520.3132210075
   13   -2520.3130720096      1.94e-07  Convergence criterion met
 Total energy in the final basis set =    -2520.3130720096

             Standard Nuclear Orientation (Angstroms)
    I     Atom           X                Y                Z
 ----------------------------------------------------------------
    1      C      -1.7288053246     1.2744747555     0.1028050056
    2      C      -1.1305765883     0.0000000000    -0.4911333309
    3      Se      0.8477883280     0.0000000000    -0.4440634868
    4      H       0.9166632084     0.0000000000     2.3550891876
    5      C      -1.7288053246    -1.2744747555     0.1028050056
    6      H      -1.3106797246     2.1721948746    -0.3579523285
    7      H      -2.8161129552     1.2816321862    -0.0434453953
    8      H      -1.5304070384     1.3203123976     1.1786357907
    9      H      -1.2836608624     0.0000000000    -1.5834865149
   10      H      -2.8161129552    -1.2816321862    -0.0434453953
   11      H      -1.3106797246    -2.1721948746    -0.3579523285
   12      H      -1.5304070384    -1.3203123976     1.1786357907
 ----------------------------------------------------------------

   13   -2520.3130731684      1.97e-07  Convergence criterion met
 Total energy in the final basis set =    -2520.3130731684

                    Orbital Energies (a.u.)
 --------------------------------------------------------------

 Alpha MOs
 -- Occupied --
******* -58.109 -52.167 -52.165 -52.162 -10.237 -10.188 -10.188
 -7.840  -5.788  -5.782  -5.770  -2.120  -2.120  -2.111  -2.106
 -2.104  -0.811  -0.696  -0.675  -0.570  -0.466  -0.439  -0.419
 -0.394  -0.360  -0.359  -0.315  -0.268  -0.229

 Beta MOs
 -- Occupied --
******* -58.109 -52.167 -52.165 -52.162 -10.237 -10.188 -10.188
 -7.840  -5.788  -5.782  -5.770  -2.120  -2.120  -2.111  -2.106
 -2.104  -0.811  -0.696  -0.675  -0.570  -0.466  -0.439  -0.419
 -0.394  -0.360  -0.359  -0.315  -0.268  -0.229

          Ground-State Mulliken Net Atomic Charges

     Atom                 Charge (a.u.)    Spin (a.u.)
  --------------------------------------------------------
      1 C                    -0.299565      -0.000000
      2 C                    -0.159372       0.000000
      3 Se                   -0.055899      -0.000000
      4 H                    -0.022025       0.000000
      5 C                    -0.299565       0.000000
      6 H                     0.123876       0.000000
      7 H                     0.105514      -0.000000
      8 H                     0.122013       0.000000
      9 H                     0.133620      -0.000000
     10 H                     0.105514       0.000000
     11 H                     0.123876      -0.000000
     12 H                     0.122013      -0.000000
  --------------------------------------------------------
  Sum of atomic charges =    -0.000000

                    Cartesian Multipole Moments
 -----------------------------------------------------------------
    Charge (ESU x 10^10)
                 0.0000
    Dipole Moment (Debye)
         X      -1.9941      Y       0.0000      Z      -0.6041
       Tot       2.0836
    Quadrupole Moments (Debye-Ang)
        XX     -38.8135     XY      -0.0000     YY     -41.3023
        XZ       0.5105     YZ      -0.0000     ZZ     -38.1272

 Final energy is   -2520.31307316840
 **  OPTIMIZATION CONVERGED  **
 Total job time:  19.51s(wall), 226.02s(cpu)
        *  Thank you very much for using Q-Chem.  Have a nice day.  *
