 Q-Chem 5.1, Q-Chem, Inc., Pleasanton, CA (2018)
 Q-Chem 5.1.1 for Intel X86 EM64T Linux

User input:
--------------------------------------------------------------

$comment
potential surface scanner
$end

$rem
JOBTYPE  PES_SCAN
UNRESTRICTED TRUE
SYM_IGNORE  TRUE
GEOM_OPT_MAX_CYCLES 400
SCF_MAX_CYCLES 400
METHOD   B3LYP
BASIS   6-31G**
PDB_PRINT 2
SCF_CONVERGENCE 6
THRESH 14
SCF_PRINT 1
$end
$molecule
0 1
C -1.725714 1.274447 0.100003
C -1.135130 0.000000 -0.501236
Se 0.842700 0.000000 -0.479437
H 0.910615 0.000000 2.419768
C -1.725714 -1.274447 0.100003
H -1.309637 2.172194 -0.362239
H -2.814238 1.283708 -0.037498
H -1.518317 1.317053 1.174264
H -1.304169 0.000000 -1.591662
H -2.814238 -1.283708 -0.037498
H -1.309637 -2.172194 -0.362239
H -1.518317 -1.317053 1.174264
$end
$scan
stre 3 4 3.000000 3.001000 0.100000
$end
--------------------------------------------------------------

   13   -2520.3058522283      1.87e-07  Convergence criterion met
 Total energy in the final basis set =    -2520.3058522283
   13   -2520.2992951349      8.87e-07  Convergence criterion met
 Total energy in the final basis set =    -2520.2992951349
   13   -2520.2992040863      8.98e-07  Convergence criterion met
 Total energy in the final basis set =    -2520.2992040863
   13   -2520.2992420305      8.68e-07  Convergence criterion met
 Total energy in the final basis set =    -2520.2992420305
   13   -2520.2992439018      8.62e-07  Convergence criterion met
 Total energy in the final basis set =    -2520.2992439018

             Standard Nuclear Orientation (Angstroms)
    I     Atom           X                Y                Z
 ----------------------------------------------------------------
    1      C      -1.7228992219     1.2745094885     0.0970424508
    2      C      -1.1396496459     0.0000000000    -0.5116271110
    3      Se      0.8370109585     0.0000000000    -0.5142637961
    4      H       0.9045700764     0.0000000000     2.4849749529
    5      C      -1.7228992219    -1.2745094885     0.0970424508
    6      H      -1.3092125886     2.1724225988    -0.3669698212
    7      H      -2.8125574514     1.2858584668    -0.0308201245
    8      H      -1.5054988743     1.3140327639     1.1694387963
    9      H      -1.3233911167     0.0000000000    -1.5999736489
   10      H      -2.8125574513    -1.2858584668    -0.0308201243
   11      H      -1.3092125887    -2.1724225987    -0.3669698212
   12      H      -1.5054988742    -1.3140327640     1.1694387963
 ----------------------------------------------------------------

   13   -2520.2992493741      8.29e-07  Convergence criterion met
 Total energy in the final basis set =    -2520.2992493741

                    Orbital Energies (a.u.)
 --------------------------------------------------------------

 Alpha MOs
 -- Occupied --
******* -58.110 -52.168 -52.166 -52.163 -10.237 -10.189 -10.189
 -7.841  -5.789  -5.783  -5.771  -2.121  -2.121  -2.112  -2.107
 -2.105  -0.812  -0.697  -0.676  -0.570  -0.466  -0.440  -0.419
 -0.395  -0.361  -0.359  -0.316  -0.261  -0.230

 Beta MOs
 -- Occupied --
******* -58.110 -52.168 -52.166 -52.163 -10.237 -10.189 -10.189
 -7.841  -5.789  -5.783  -5.771  -2.121  -2.121  -2.112  -2.107
 -2.105  -0.812  -0.697  -0.676  -0.570  -0.466  -0.440  -0.419
 -0.395  -0.361  -0.359  -0.316  -0.261  -0.230

          Ground-State Mulliken Net Atomic Charges

     Atom                 Charge (a.u.)    Spin (a.u.)
  --------------------------------------------------------
      1 C                    -0.299969       0.000000
      2 C                    -0.160869      -0.000000
      3 Se                   -0.054230      -0.000000
      4 H                    -0.026674       0.000000
      5 C                    -0.299969       0.000000
      6 H                     0.124381       0.000000
      7 H                     0.105875      -0.000000
      8 H                     0.122829      -0.000000
      9 H                     0.135539      -0.000000
     10 H                     0.105875      -0.000000
     11 H                     0.124381       0.000000
     12 H                     0.122829      -0.000000
  --------------------------------------------------------
  Sum of atomic charges =    -0.000000

                    Cartesian Multipole Moments
 -----------------------------------------------------------------
    Charge (ESU x 10^10)
                -0.0000
    Dipole Moment (Debye)
         X      -2.0328      Y      -0.0000      Z      -0.6621
       Tot       2.1379
    Quadrupole Moments (Debye-Ang)
        XX     -38.7399     XY      -0.0000     YY     -41.2802
        XZ       0.5208     YZ      -0.0000     ZZ     -38.3651

 Final energy is   -2520.29924937406
 **  OPTIMIZATION CONVERGED  **
 Total job time:  29.02s(wall), 339.11s(cpu)
        *  Thank you very much for using Q-Chem.  Have a nice day.  *
