 Q-Chem 5.1, Q-Chem, Inc., Pleasanton, CA (2018)
 Q-Chem 5.1.1 for Intel X86 EM64T Linux

User input:
--------------------------------------------------------------

$comment
potential surface scanner
$end

$rem
JOBTYPE  PES_SCAN
UNRESTRICTED TRUE
SYM_IGNORE  TRUE
GEOM_OPT_MAX_CYCLES 400
SCF_MAX_CYCLES 400
METHOD   B3LYP
BASIS   6-31G**
PDB_PRINT 2
SCF_CONVERGENCE 6
THRESH 14
SCF_PRINT 1
$end
$molecule
0 1
C -1.730200 1.249200 0.145700
C -1.070500 -0.000000 -0.441800
Se 0.838900 0.000000 0.000600
H 0.783300 0.000000 1.559600
C -1.730200 -1.249200 0.145700
H -1.260200 2.139200 -0.272800
H -2.792000 1.249200 -0.100300
H -1.608100 1.249200 1.228900
H -1.192500 -0.000000 -1.524900
H -2.792000 -1.249200 -0.100300
H -1.260200 -2.139200 -0.272800
H -1.608100 -1.249200 1.228900
$end
$scan
stre 3 4 1.100000 1.101000 0.100000
$end
--------------------------------------------------------------

    9   -2520.4375567929      9.33e-07  Convergence criterion met
 Total energy in the final basis set =    -2520.4375567929
    9   -2520.4430142722      6.12e-07  Convergence criterion met
 Total energy in the final basis set =    -2520.4430142722
    9   -2520.4235135398      5.66e-07  Convergence criterion met
 Total energy in the final basis set =    -2520.4235135398
    9   -2520.3587237780      5.44e-07  Convergence criterion met
 Total energy in the final basis set =    -2520.3587237780
    9   -2520.3391288602      5.39e-07  Convergence criterion met
 Total energy in the final basis set =    -2520.3391288602
    9   -2520.3382924957      5.39e-07  Convergence criterion met
 Total energy in the final basis set =    -2520.3382924957
    9   -2520.3383105477      5.38e-07  Convergence criterion met
 Total energy in the final basis set =    -2520.3383105477
    9   -2520.3383137933      5.38e-07  Convergence criterion met
 Total energy in the final basis set =    -2520.3383137933
    9   -2520.3383161379      5.38e-07  Convergence criterion met
 Total energy in the final basis set =    -2520.3383161379

             Standard Nuclear Orientation (Angstroms)
    I     Atom           X                Y                Z
 ----------------------------------------------------------------
    1      C      -1.7339411645     1.2739294926     0.1669272364
    2      C      -1.0621655593     0.0000000000    -0.3431388842
    3      Se      0.9023749471     0.0000000000     0.0805436826
    4      H       0.7535895931     0.0000000000     1.1704349363
    5      C      -1.7339411645    -1.2739294926     0.1669272364
    6      H      -1.2496331936     2.1698080423    -0.2280360864
    7      H      -2.7886299223     1.2887637864    -0.1369273312
    8      H      -1.7062456046     1.3276590876     1.2608207378
    9      H      -1.0586992110     0.0000000000    -1.4369088478
   10      H      -2.7886299223    -1.2887637864    -0.1369273312
   11      H      -1.2496331935    -2.1698080423    -0.2280360864
   12      H      -1.7062456046    -1.3276590876     1.2608207378
 ----------------------------------------------------------------

    9   -2520.3383164987      5.38e-07  Convergence criterion met
 Total energy in the final basis set =    -2520.3383164987

                    Orbital Energies (a.u.)
 --------------------------------------------------------------

 Alpha MOs
 -- Occupied --
******* -58.074 -52.131 -52.129 -52.128 -10.228 -10.186 -10.186
 -7.812  -5.759  -5.754  -5.744  -2.097  -2.091  -2.083  -2.080
 -2.079  -0.812  -0.729  -0.694  -0.585  -0.461  -0.447  -0.416
 -0.393  -0.387  -0.354  -0.346  -0.300  -0.224

 Beta MOs
 -- Occupied --
******* -58.074 -52.131 -52.129 -52.128 -10.228 -10.186 -10.186
 -7.812  -5.759  -5.754  -5.744  -2.097  -2.091  -2.083  -2.080
 -2.079  -0.812  -0.729  -0.694  -0.585  -0.461  -0.447  -0.416
 -0.393  -0.387  -0.354  -0.346  -0.300  -0.224

          Ground-State Mulliken Net Atomic Charges

     Atom                 Charge (a.u.)    Spin (a.u.)
  --------------------------------------------------------
      1 C                    -0.304396      -0.000000
      2 C                    -0.140063       0.000000
      3 Se                   -0.106354       0.000000
      4 H                     0.049982      -0.000000
      5 C                    -0.304396       0.000000
      6 H                     0.126436      -0.000000
      7 H                     0.104567       0.000000
      8 H                     0.107669       0.000000
      9 H                     0.127885       0.000000
     10 H                     0.104567       0.000000
     11 H                     0.126436      -0.000000
     12 H                     0.107669      -0.000000
  --------------------------------------------------------
  Sum of atomic charges =     0.000000

                    Cartesian Multipole Moments
 -----------------------------------------------------------------
    Charge (ESU x 10^10)
                -0.0000
    Dipole Moment (Debye)
         X      -1.8613      Y      -0.0000      Z       0.5274
       Tot       1.9345
    Quadrupole Moments (Debye-Ang)
        XX     -38.9018     XY      -0.0000     YY     -40.5635
        XZ       1.4554     YZ      -0.0000     ZZ     -36.7597

 Final energy is   -2520.33831649866
 **  OPTIMIZATION CONVERGED  **
 Total job time:  38.84s(wall), 452.46s(cpu)
        *  Thank you very much for using Q-Chem.  Have a nice day.  *
