 Q-Chem 5.1, Q-Chem, Inc., Pleasanton, CA (2018)
 Q-Chem 5.1.1 for Intel X86 EM64T Linux

User input:
--------------------------------------------------------------

$comment
potential surface scanner
$end

$rem
JOBTYPE  PES_SCAN
UNRESTRICTED TRUE
SYM_IGNORE  TRUE
GEOM_OPT_MAX_CYCLES 400
SCF_MAX_CYCLES 400
METHOD   B3LYP
BASIS   6-31G**
PDB_PRINT 2
SCF_CONVERGENCE 6
THRESH 14
SCF_PRINT 1
$end
$molecule
0 3
S 2.653771 0.529141 0.405563
S -2.896317 -0.074707 0.005779
C -0.067235 0.118475 0.134757
C 1.269226 -0.608885 -0.041725
C -1.244451 -0.801405 -0.207254
H -0.170594 0.470827 1.166344
H -0.097497 1.005438 -0.506584
H 1.309044 -1.491499 0.603820
H 1.394809 -0.933032 -1.079245
H -1.236950 -1.701548 0.424553
H -1.182622 -1.168280 -1.240319
H 3.656750 -0.334174 0.150998
H -2.279732 2.413246 1.362213
$end
$scan
stre 2 13 2.800000 2.801000 0.100000
$end
--------------------------------------------------------------

   10    -915.3829249742      9.45e-07  Convergence criterion met
 Total energy in the final basis set =     -915.3829249742
   10    -915.3829579458      9.38e-07  Convergence criterion met
 Total energy in the final basis set =     -915.3829579458
   10    -915.3829794612      9.36e-07  Convergence criterion met
 Total energy in the final basis set =     -915.3829794612
   10    -915.3830066343      9.28e-07  Convergence criterion met
 Total energy in the final basis set =     -915.3830066343
   10    -915.3830098310      9.27e-07  Convergence criterion met
 Total energy in the final basis set =     -915.3830098310

             Standard Nuclear Orientation (Angstroms)
    I     Atom           X                Y                Z
 ----------------------------------------------------------------
    1      S       2.6638619312     0.5192955383     0.4032205923
    2      S      -2.8911536328    -0.0552619439     0.0225908048
    3      C      -0.0603547606     0.1249272241     0.1415113220
    4      C       1.2712502839    -0.6092989915    -0.0427072100
    5      C      -1.2434972338    -0.7883374231    -0.1991154159
    6      H      -0.1580978188     0.4745580384     1.1747197119
    7      H      -0.0887483397     1.0143057592    -0.4964601170
    8      H       1.3085469151    -1.4944629767     0.5994980073
    9      H       1.3908754073    -0.9304245059    -1.0818720831
   10      H      -1.2381222539    -1.6905399535     0.4297530944
   11      H      -1.1878648971    -1.1518549308    -1.2337260478
   12      H       3.6609479231    -0.3488524253     0.1420309684
   13      H      -2.3194415239     2.3595435907     1.3194563728
 ----------------------------------------------------------------

   10    -915.3830142401      9.28e-07  Convergence criterion met
 Total energy in the final basis set =     -915.3830142401

                    Orbital Energies (a.u.)
 --------------------------------------------------------------

 Alpha MOs
 -- Occupied --
-88.903 -88.880 -10.239 -10.231 -10.207  -7.963  -7.942  -5.934
 -5.925  -5.917  -5.907  -5.904  -5.897  -0.834  -0.784  -0.711
 -0.630  -0.603  -0.498  -0.458  -0.436  -0.420  -0.390  -0.364
 -0.354  -0.334  -0.298  -0.293  -0.242  -0.237

 Beta MOs
 -- Occupied --
-88.897 -88.880 -10.239 -10.231 -10.207  -7.958  -7.942  -5.921
 -5.916  -5.912  -5.907  -5.904  -5.896  -0.831  -0.775  -0.699
 -0.616  -0.594  -0.494  -0.457  -0.429  -0.414  -0.388  -0.361
 -0.346  -0.333  -0.243  -0.242

          Ground-State Mulliken Net Atomic Charges

     Atom                 Charge (a.u.)    Spin (a.u.)
  --------------------------------------------------------
      1 S                    -0.036975       0.000841
      2 S                     0.043707       1.019688
      3 C                    -0.170185       0.006196
      4 C                    -0.332415      -0.000866
      5 C                    -0.370482      -0.030326
      6 H                     0.136109      -0.001437
      7 H                     0.132883       0.000190
      8 H                     0.135596       0.000226
      9 H                     0.136046       0.000440
     10 H                     0.155712       0.032812
     11 H                     0.154186       0.024827
     12 H                     0.057470      -0.000055
     13 H                    -0.041653       0.947464
  --------------------------------------------------------
  Sum of atomic charges =     0.000000

                    Cartesian Multipole Moments
 -----------------------------------------------------------------
    Charge (ESU x 10^10)
                -0.0000
    Dipole Moment (Debye)
         X       0.9906      Y      -2.6170      Z      -0.9620
       Tot       2.9589
    Quadrupole Moments (Debye-Ang)
        XX     -52.8141     XY      -2.4713     YY     -48.4510
        XZ      -0.7922     YZ      -1.3822     ZZ     -47.9985

 Final energy is   -915.383014240139
 **  OPTIMIZATION CONVERGED  **
 Total job time:  25.57s(wall), 289.20s(cpu)
        *  Thank you very much for using Q-Chem.  Have a nice day.  *
