 Q-Chem 5.1, Q-Chem, Inc., Pleasanton, CA (2018)
 Q-Chem 5.1.1 for Intel X86 EM64T Linux

User input:
--------------------------------------------------------------

$comment
potential surface scanner
$end

$rem
JOBTYPE  PES_SCAN
UNRESTRICTED TRUE
SYM_IGNORE  TRUE
GEOM_OPT_MAX_CYCLES 400
SCF_MAX_CYCLES 400
METHOD   B3LYP
BASIS   6-31G**
PDB_PRINT 2
SCF_CONVERGENCE 6
THRESH 14
SCF_PRINT 1
$end
$molecule
0 1
S 2.764670 0.477692 0.017897
S -2.820168 0.349553 -0.117946
C 0.012408 0.247860 -0.011896
C 1.276033 -0.617719 -0.012615
C -1.256830 -0.606233 -0.012385
H 0.010164 0.892797 0.875054
H 0.008461 0.907975 -0.885491
H 1.296801 -1.269553 0.865677
H 1.312369 -1.242743 -0.909718
H -1.294550 -1.269308 0.856608
H -1.295090 -1.242634 -0.905917
H 3.685848 -0.506271 0.027479
H -2.591914 1.302183 1.392152
$end
$scan
stre 2 13 1.900000 1.901000 0.100000
$end
--------------------------------------------------------------

    9    -915.4761495156      6.21e-07  Convergence criterion met
 Total energy in the final basis set =     -915.4761495156
    9    -915.4622523915      6.06e-07  Convergence criterion met
 Total energy in the final basis set =     -915.4622523915
    9    -915.4618664271      6.07e-07  Convergence criterion met
 Total energy in the final basis set =     -915.4618664271

             Standard Nuclear Orientation (Angstroms)
    I     Atom           X                Y                Z
 ----------------------------------------------------------------
    1      S       2.7617101945     0.4814321705     0.0209666061
    2      S      -2.8208790547     0.3353865380    -0.1379531757
    3      C       0.0106417195     0.2431886435    -0.0200432648
    4      C       1.2767618874    -0.6188096190    -0.0130942097
    5      C      -1.2564534102    -0.6138103207    -0.0227897346
    6      H       0.0016878548     0.8903768169     0.8651070879
    7      H       0.0083768889     0.9007897920    -0.8955362147
    8      H       1.2956206564    -1.2680501396     0.8671647220
    9      H       1.3190343413    -1.2463254355    -0.9082097421
   10      H      -1.2964776071    -1.2753195440     0.8472037513
   11      H      -1.2906463300    -1.2522376780    -0.9158536791
   12      H       3.6860097837    -0.4994971610     0.0383224679
   13      H      -2.5871849245     1.3464749372     1.4536143856
 ----------------------------------------------------------------

    9    -915.4618666683      6.07e-07  Convergence criterion met
 Total energy in the final basis set =     -915.4618666683

                    Orbital Energies (a.u.)
 --------------------------------------------------------------

 Alpha MOs
 -- Occupied --
-88.902 -88.878 -10.232 -10.229 -10.206  -7.959  -7.941  -5.925
 -5.921  -5.913  -5.906  -5.902  -5.895  -0.829  -0.775  -0.702
 -0.622  -0.597  -0.494  -0.455  -0.431  -0.415  -0.385  -0.361
 -0.351  -0.332  -0.318  -0.243  -0.240

 Beta MOs
 -- Occupied --
-88.902 -88.878 -10.232 -10.229 -10.206  -7.959  -7.941  -5.925
 -5.921  -5.913  -5.906  -5.902  -5.895  -0.829  -0.775  -0.702
 -0.622  -0.597  -0.494  -0.455  -0.431  -0.415  -0.385  -0.361
 -0.351  -0.332  -0.318  -0.243  -0.240

          Ground-State Mulliken Net Atomic Charges

     Atom                 Charge (a.u.)    Spin (a.u.)
  --------------------------------------------------------
      1 S                    -0.041541      -0.000000
      2 S                    -0.035723       0.000000
      3 C                    -0.170366       0.000000
      4 C                    -0.330572       0.000000
      5 C                    -0.342970       0.000000
      6 H                     0.123013       0.000000
      7 H                     0.135736      -0.000000
      8 H                     0.136154      -0.000000
      9 H                     0.136699      -0.000000
     10 H                     0.145330      -0.000000
     11 H                     0.143490      -0.000000
     12 H                     0.057445       0.000000
     13 H                     0.043306      -0.000000
  --------------------------------------------------------
  Sum of atomic charges =     0.000000

                    Cartesian Multipole Moments
 -----------------------------------------------------------------
    Charge (ESU x 10^10)
                 0.0000
    Dipole Moment (Debye)
         X       0.7692      Y      -2.0683      Z       0.4116
       Tot       2.2448
    Quadrupole Moments (Debye-Ang)
        XX     -53.7725     XY      -3.9558     YY     -46.6980
        XZ      -0.9316     YZ       1.7854     ZZ     -47.1847

 Final energy is   -915.461866668282
 **  OPTIMIZATION CONVERGED  **
 Total job time:  16.04s(wall), 180.57s(cpu)
        *  Thank you very much for using Q-Chem.  Have a nice day.  *
