 Q-Chem 5.1, Q-Chem, Inc., Pleasanton, CA (2018)
 Q-Chem 5.1.1 for Intel X86 EM64T Linux

User input:
--------------------------------------------------------------

$comment
potential surface scanner
$end

$rem
JOBTYPE  PES_SCAN
UNRESTRICTED TRUE
SYM_IGNORE  TRUE
GEOM_OPT_MAX_CYCLES 400
SCF_MAX_CYCLES 400
METHOD   B3LYP
BASIS   6-31G**
PDB_PRINT 2
SCF_CONVERGENCE 6
THRESH 14
SCF_PRINT 1
$end
$molecule
0 3
S 2.612733 0.623534 0.188585
S -2.902792 0.008227 -0.502383
C -0.094825 0.182953 -0.157697
C 1.216492 -0.578918 0.057078
C -1.274613 -0.780322 -0.328640
H -0.288295 0.850319 0.688950
H -0.012041 0.816619 -1.047837
H 1.167158 -1.171513 0.975478
H 1.406557 -1.255427 -0.781674
H -1.374521 -1.438554 0.547993
H -1.124930 -1.448921 -1.185112
H 3.590770 -0.286562 0.365351
H -1.813491 1.902165 2.358810
$end
$scan
stre 2 13 3.500000 3.501000 0.100000
$end
--------------------------------------------------------------

   11    -915.3821275170      8.87e-07  Convergence criterion met
 Total energy in the final basis set =     -915.3821275170
   13    -915.3820683919      9.27e-07  Convergence criterion met
 Total energy in the final basis set =     -915.3820683919
   13    -915.3820798266      9.39e-07  Convergence criterion met
 Total energy in the final basis set =     -915.3820798266
   13    -915.3820995405      9.64e-07  Convergence criterion met
 Total energy in the final basis set =     -915.3820995405
   13    -915.3821013729      9.67e-07  Convergence criterion met
 Total energy in the final basis set =     -915.3821013729
   13    -915.3821046755      9.76e-07  Convergence criterion met
 Total energy in the final basis set =     -915.3821046755

             Standard Nuclear Orientation (Angstroms)
    I     Atom           X                Y                Z
 ----------------------------------------------------------------
    1      S       2.6233208865     0.6155530059     0.1786624420
    2      S      -2.8996548619     0.0229962394    -0.4753030919
    3      C      -0.0881214850     0.1876169731    -0.1521000227
    4      C       1.2206839582    -0.5803888525     0.0560012459
    5      C      -1.2724410547    -0.7710538884    -0.3188722295
    6      H      -0.2748143445     0.8554089509     0.6956694371
    7      H      -0.0063743032     0.8214080041    -1.0422833555
    8      H       1.1734469400    -1.1718149796     0.9752507544
    9      H       1.4028992442    -1.2586055940    -0.7831169228
   10      H      -1.3688345154    -1.4306958700     0.5572722072
   11      H      -1.1298375822    -1.4372729101    -1.1781505568
   12      H       3.5978684755    -0.2989523225     0.3518249176
   13      H      -1.8699393576     1.8694012437     2.3140471752
 ----------------------------------------------------------------

   13    -915.3821055164      9.81e-07  Convergence criterion met
 Total energy in the final basis set =     -915.3821055164

                    Orbital Energies (a.u.)
 --------------------------------------------------------------

 Alpha MOs
 -- Occupied --
-88.895 -88.879 -10.235 -10.230 -10.206  -7.956  -7.941  -5.927
 -5.917  -5.908  -5.906  -5.903  -5.896  -0.832  -0.781  -0.708
 -0.626  -0.600  -0.496  -0.456  -0.433  -0.417  -0.388  -0.363
 -0.349  -0.333  -0.313  -0.286  -0.247  -0.241

 Beta MOs
 -- Occupied --
-88.890 -88.879 -10.235 -10.230 -10.206  -7.950  -7.941  -5.914
 -5.909  -5.906  -5.905  -5.903  -5.896  -0.829  -0.773  -0.696
 -0.614  -0.591  -0.492  -0.455  -0.427  -0.412  -0.386  -0.360
 -0.342  -0.332  -0.242  -0.235

          Ground-State Mulliken Net Atomic Charges

     Atom                 Charge (a.u.)    Spin (a.u.)
  --------------------------------------------------------
      1 S                    -0.039216       0.000688
      2 S                     0.012769       0.981513
      3 C                    -0.169287       0.015708
      4 C                    -0.331674      -0.000424
      5 C                    -0.365638      -0.030562
      6 H                     0.130448      -0.006050
      7 H                     0.129470       0.001023
      8 H                     0.136251       0.000192
      9 H                     0.135865       0.000710
     10 H                     0.153365       0.035362
     11 H                     0.150682       0.017612
     12 H                     0.057448      -0.000011
     13 H                    -0.000483       0.984238
  --------------------------------------------------------
  Sum of atomic charges =     0.000000

                    Cartesian Multipole Moments
 -----------------------------------------------------------------
    Charge (ESU x 10^10)
                 0.0000
    Dipole Moment (Debye)
         X       0.9317      Y      -2.3069      Z       0.1610
       Tot       2.4932
    Quadrupole Moments (Debye-Ang)
        XX     -53.1627     XY      -3.4849     YY     -47.8358
        XZ      -0.8369     YZ      -0.9193     ZZ     -47.5518

 Final energy is   -915.382105516389
 **  OPTIMIZATION CONVERGED  **
 Total job time:  33.78s(wall), 389.51s(cpu)
        *  Thank you very much for using Q-Chem.  Have a nice day.  *
