 Q-Chem 5.1, Q-Chem, Inc., Pleasanton, CA (2018)
 Q-Chem 5.1.1 for Intel X86 EM64T Linux

User input:
--------------------------------------------------------------

$comment
potential surface scanner
$end

$rem
JOBTYPE  PES_SCAN
UNRESTRICTED TRUE
SYM_IGNORE  TRUE
GEOM_OPT_MAX_CYCLES 400
SCF_MAX_CYCLES 400
METHOD   B3LYP
BASIS   6-31G**
PDB_PRINT 2
SCF_CONVERGENCE 6
THRESH 14
SCF_PRINT 1
$end
$molecule
0 1
S 2.761710 0.481432 0.020967
S -2.820879 0.335387 -0.137953
C 0.010642 0.243189 -0.020043
C 1.276762 -0.618810 -0.013094
C -1.256453 -0.613810 -0.022790
H 0.001688 0.890377 0.865107
H 0.008377 0.900790 -0.895536
H 1.295621 -1.268050 0.867165
H 1.319034 -1.246325 -0.908210
H -1.296478 -1.275320 0.847204
H -1.290646 -1.252238 -0.915854
H 3.686010 -0.499497 0.038322
H -2.587185 1.346475 1.453614
$end
$scan
stre 2 13 2.000000 2.001000 0.100000
$end
--------------------------------------------------------------

    9    -915.4618667670      6.07e-07  Convergence criterion met
 Total energy in the final basis set =     -915.4618667670
    9    -915.4483952524      7.28e-07  Convergence criterion met
 Total energy in the final basis set =     -915.4483952524
    9    -915.4480377714      7.31e-07  Convergence criterion met
 Total energy in the final basis set =     -915.4480377714

             Standard Nuclear Orientation (Angstroms)
    I     Atom           X                Y                Z
 ----------------------------------------------------------------
    1      S       2.7599034934     0.4838931221     0.0226054823
    2      S      -2.8213037957     0.3200620037    -0.1575945474
    3      C       0.0097409323     0.2393121550    -0.0280743608
    4      C       1.2776746015    -0.6198560193    -0.0134853206
    5      C      -1.2554485991    -0.6204534879    -0.0325140758
    6      H      -0.0054583786     0.8889449073     0.8551361311
    7      H       0.0090558053     0.8942697045    -0.9055270846
    8      H       1.2944969580    -1.2660523343     0.8690458749
    9      H       1.3248892306    -1.2503350842    -0.9062942909
   10      H      -1.2963861784    -1.2820072334     0.8374288467
   11      H      -1.2853644321    -1.2603418050    -0.9256307221
   12      H       3.6863168141    -0.4948597728     0.0482271975
   13      H      -2.5899134513     1.3910238441     1.5155758697
 ----------------------------------------------------------------

    9    -915.4480384328      7.30e-07  Convergence criterion met
 Total energy in the final basis set =     -915.4480384328

                    Orbital Energies (a.u.)
 --------------------------------------------------------------

 Alpha MOs
 -- Occupied --
-88.905 -88.879 -10.233 -10.229 -10.206  -7.961  -7.941  -5.928
 -5.924  -5.915  -5.906  -5.902  -5.895  -0.829  -0.776  -0.702
 -0.622  -0.597  -0.494  -0.455  -0.431  -0.415  -0.385  -0.361
 -0.349  -0.332  -0.314  -0.243  -0.241

 Beta MOs
 -- Occupied --
-88.905 -88.879 -10.233 -10.229 -10.206  -7.961  -7.941  -5.928
 -5.924  -5.915  -5.906  -5.902  -5.895  -0.829  -0.776  -0.702
 -0.622  -0.597  -0.494  -0.455  -0.431  -0.415  -0.385  -0.361
 -0.349  -0.332  -0.314  -0.243  -0.241

          Ground-State Mulliken Net Atomic Charges

     Atom                 Charge (a.u.)    Spin (a.u.)
  --------------------------------------------------------
      1 S                    -0.041197       0.000000
      2 S                    -0.032645       0.000000
      3 C                    -0.169969      -0.000000
      4 C                    -0.330767       0.000000
      5 C                    -0.344323       0.000000
      6 H                     0.124078       0.000000
      7 H                     0.135637      -0.000000
      8 H                     0.136278      -0.000000
      9 H                     0.136564      -0.000000
     10 H                     0.146421      -0.000000
     11 H                     0.144285      -0.000000
     12 H                     0.057455      -0.000000
     13 H                     0.038183       0.000000
  --------------------------------------------------------
  Sum of atomic charges =    -0.000000

                    Cartesian Multipole Moments
 -----------------------------------------------------------------
    Charge (ESU x 10^10)
                 0.0000
    Dipole Moment (Debye)
         X       0.7877      Y      -2.1162      Z       0.3559
       Tot       2.2859
    Quadrupole Moments (Debye-Ang)
        XX     -53.7817     XY      -3.8390     YY     -46.7535
        XZ      -0.7329     YZ       1.7559     ZZ     -47.2038

 Final energy is   -915.448038432809
 **  OPTIMIZATION CONVERGED  **
 Total job time:  15.94s(wall), 179.85s(cpu)
        *  Thank you very much for using Q-Chem.  Have a nice day.  *
