 Q-Chem 5.1, Q-Chem, Inc., Pleasanton, CA (2018)
 Q-Chem 5.1.1 for Intel X86 EM64T Linux

User input:
--------------------------------------------------------------

$comment
potential surface scanner
$end

$rem
JOBTYPE  PES_SCAN
UNRESTRICTED TRUE
SYM_IGNORE  TRUE
GEOM_OPT_MAX_CYCLES 400
SCF_MAX_CYCLES 400
METHOD   B3LYP
BASIS   6-31G**
PDB_PRINT 2
SCF_CONVERGENCE 6
THRESH 14
SCF_PRINT 1
$end
$molecule
0 1
S 2.722418 0.521527 0.040579
S -2.834316 0.184266 -0.297922
C -0.015835 0.201259 -0.085757
C 1.272682 -0.623025 -0.014602
C -1.257962 -0.694101 -0.123669
H -0.090712 0.858450 0.789098
H -0.004455 0.847109 -0.969911
H 1.279340 -1.248172 0.883007
H 1.363035 -1.272164 -0.890678
H -1.300776 -1.366577 0.738693
H -1.235706 -1.334459 -1.022195
H 3.670243 -0.429084 0.159083
H -2.459752 1.778573 1.973176
$end
$scan
stre 2 13 2.900000 2.901000 0.100000
$end
--------------------------------------------------------------

   12    -915.3665288094      2.30e-07  Convergence criterion met
 Total energy in the final basis set =     -915.3665288094
   12    -915.3599166127      3.09e-07  Convergence criterion met
 Total energy in the final basis set =     -915.3599166127
   12    -915.3598037468      3.10e-07  Convergence criterion met
 Total energy in the final basis set =     -915.3598037468
   12    -915.3598200819      3.10e-07  Convergence criterion met
 Total energy in the final basis set =     -915.3598200819

             Standard Nuclear Orientation (Angstroms)
    I     Atom           X                Y                Z
 ----------------------------------------------------------------
    1      S       2.7159238084     0.5264773490     0.0443900002
    2      S      -2.8387967356     0.1641781519    -0.3200547956
    3      C      -0.0211541353     0.1980584193    -0.0917631132
    4      C       1.2698312107    -0.6224528729    -0.0143165865
    5      C      -1.2588041833    -0.7029475000    -0.1340223650
    6      H      -0.0997140359     0.8558218024     0.7820045940
    7      H      -0.0077426042     0.8427610997    -0.9766457681
    8      H       1.2744415942    -1.2454078815     0.8847961756
    9      H       1.3661820391    -1.2735040749    -0.8883964130
   10      H      -1.3028817208    -1.3753257973     0.7285277201
   11      H      -1.2254810741    -1.3436351875    -1.0322704614
   12      H       3.6657223465    -0.4209696634     0.1717628409
   13      H      -2.4293225097     1.8205481552     2.0248901719
 ----------------------------------------------------------------

   12    -915.3598210339      3.10e-07  Convergence criterion met
 Total energy in the final basis set =     -915.3598210339

                    Orbital Energies (a.u.)
 --------------------------------------------------------------

 Alpha MOs
 -- Occupied --
-88.911 -88.880 -10.238 -10.231 -10.209  -7.968  -7.942  -5.935
 -5.931  -5.921  -5.907  -5.904  -5.897  -0.833  -0.780  -0.705
 -0.623  -0.599  -0.496  -0.457  -0.433  -0.417  -0.388  -0.362
 -0.349  -0.334  -0.271  -0.246  -0.242

 Beta MOs
 -- Occupied --
-88.911 -88.880 -10.238 -10.231 -10.209  -7.968  -7.942  -5.935
 -5.931  -5.921  -5.907  -5.904  -5.897  -0.833  -0.780  -0.705
 -0.623  -0.599  -0.496  -0.457  -0.433  -0.417  -0.388  -0.362
 -0.349  -0.334  -0.271  -0.246  -0.242

          Ground-State Mulliken Net Atomic Charges

     Atom                 Charge (a.u.)    Spin (a.u.)
  --------------------------------------------------------
      1 S                    -0.037652      -0.000000
      2 S                    -0.008476       0.000000
      3 C                    -0.171558       0.000000
      4 C                    -0.332237      -0.000000
      5 C                    -0.355801       0.000000
      6 H                     0.130857       0.000000
      7 H                     0.136532      -0.000000
      8 H                     0.137624       0.000000
      9 H                     0.136068       0.000000
     10 H                     0.152119      -0.000000
     11 H                     0.153740       0.000000
     12 H                     0.057963       0.000000
     13 H                     0.000820      -0.000000
  --------------------------------------------------------
  Sum of atomic charges =     0.000000

                    Cartesian Multipole Moments
 -----------------------------------------------------------------
    Charge (ESU x 10^10)
                 0.0000
    Dipole Moment (Debye)
         X       1.0322      Y      -2.4460      Z       0.0149
       Tot       2.6549
    Quadrupole Moments (Debye-Ang)
        XX     -53.7795     XY      -3.0032     YY     -46.9861
        XZ       0.6450     YZ       1.3884     ZZ     -47.5373

 Final energy is   -915.359821033870
 **  OPTIMIZATION CONVERGED  **
 Total job time:  23.70s(wall), 269.14s(cpu)
        *  Thank you very much for using Q-Chem.  Have a nice day.  *
