 Q-Chem 5.1, Q-Chem, Inc., Pleasanton, CA (2018)
 Q-Chem 5.1.1 for Intel X86 EM64T Linux

User input:
--------------------------------------------------------------

$comment
potential surface scanner
$end

$rem
JOBTYPE  PES_SCAN
UNRESTRICTED TRUE
SYM_IGNORE  TRUE
GEOM_OPT_MAX_CYCLES 400
SCF_MAX_CYCLES 400
METHOD   B3LYP
BASIS   6-31G**
PDB_PRINT 2
SCF_CONVERGENCE 6
THRESH 14
SCF_PRINT 1
$end
$molecule
0 1
S 2.418688 -0.039210 1.122016
S -2.539107 -0.259148 -0.364849
C 0.207698 -0.310599 -0.501307
C 1.569436 -0.896553 -0.298951
C -0.917939 -0.975563 -0.220567
H -1.282699 3.143196 1.534986
H 0.165402 0.710699 -0.874605
H 1.508461 -1.966672 -0.086837
H 2.188112 -0.746803 -1.188486
H -0.884574 -1.990779 0.165935
H -3.215591 -1.421162 -0.432597
H 3.674936 -0.419300 0.809719
H -1.784619 2.595498 1.514446
$end
$scan
stre 2 13 3.600000 3.601000 0.100000
$end
--------------------------------------------------------------

    9    -915.4674138197      9.87e-07  Convergence criterion met
 Total energy in the final basis set =     -915.4674138197
    9    -915.4673228858      9.83e-07  Convergence criterion met
 Total energy in the final basis set =     -915.4673228858
    9    -915.4673445381      9.84e-07  Convergence criterion met
 Total energy in the final basis set =     -915.4673445381
    9    -915.4673961476      9.90e-07  Convergence criterion met
 Total energy in the final basis set =     -915.4673961476
    9    -915.4673981560      9.90e-07  Convergence criterion met
 Total energy in the final basis set =     -915.4673981560

             Standard Nuclear Orientation (Angstroms)
    I     Atom           X                Y                Z
 ----------------------------------------------------------------
    1      S       2.4061946091    -0.0354459860     1.1255916715
    2      S      -2.5480849741    -0.2915063371    -0.3787076722
    3      C       0.2002993036    -0.3189117402    -0.5030489678
    4      C       1.5656770016    -0.8956636867    -0.2987729087
    5      C      -0.9211560191    -0.9940985309    -0.2301438013
    6      H      -1.2544325202     3.1932366054     1.5520982403
    7      H       0.1519173544     0.7037163663    -0.8717976898
    8      H       1.5116690987    -1.9666141531    -0.0889672494
    9      H       2.1851186034    -0.7399287114    -1.1867955122
   10      H      -0.8809414348    -2.0108811134     0.1516481999
   11      H      -3.2130308409    -1.4597724003    -0.4520888256
   12      H       3.6651084155    -0.4092659423     0.8165944020
   13      H      -1.7601345973     2.6487396298     1.5432931132
 ----------------------------------------------------------------

    9    -915.4674026670      9.87e-07  Convergence criterion met
 Total energy in the final basis set =     -915.4674026670

                    Orbital Energies (a.u.)
 --------------------------------------------------------------

 Alpha MOs
 -- Occupied --
-88.895 -88.876 -10.231 -10.229 -10.204  -7.957  -7.938  -5.922
 -5.919  -5.912  -5.903  -5.899  -5.892  -0.831  -0.783  -0.716
 -0.639  -0.566  -0.479  -0.461  -0.443  -0.422  -0.391  -0.389
 -0.348  -0.337  -0.313  -0.240  -0.227

 Beta MOs
 -- Occupied --
-88.895 -88.876 -10.231 -10.229 -10.204  -7.957  -7.938  -5.922
 -5.919  -5.912  -5.903  -5.899  -5.892  -0.831  -0.783  -0.716
 -0.639  -0.566  -0.479  -0.461  -0.443  -0.422  -0.391  -0.389
 -0.348  -0.337  -0.313  -0.240  -0.227

          Ground-State Mulliken Net Atomic Charges

     Atom                 Charge (a.u.)    Spin (a.u.)
  --------------------------------------------------------
      1 S                    -0.035653       0.000000
      2 S                     0.029332      -0.000000
      3 C                    -0.042533       0.000000
      4 C                    -0.358563      -0.000000
      5 C                    -0.235828       0.000000
      6 H                    -0.008209       0.000000
      7 H                     0.115496       0.000000
      8 H                     0.137477       0.000000
      9 H                     0.146963       0.000000
     10 H                     0.128537      -0.000000
     11 H                     0.062914       0.000000
     12 H                     0.051872      -0.000000
     13 H                     0.008195      -0.000000
  --------------------------------------------------------
  Sum of atomic charges =    -0.000000

                    Cartesian Multipole Moments
 -----------------------------------------------------------------
    Charge (ESU x 10^10)
                 0.0000
    Dipole Moment (Debye)
         X       0.3403      Y      -2.1484      Z      -1.3618
       Tot       2.5663
    Quadrupole Moments (Debye-Ang)
        XX     -42.0991     XY       1.7073     YY     -44.1589
        XZ      -2.4547     YZ       0.0787     ZZ     -51.7322

 Final energy is   -915.467402667043
 **  OPTIMIZATION CONVERGED  **
 Total job time:  22.58s(wall), 256.19s(cpu)
        *  Thank you very much for using Q-Chem.  Have a nice day.  *
