 Q-Chem 5.1, Q-Chem, Inc., Pleasanton, CA (2018)
 Q-Chem 5.1.1 for Intel X86 EM64T Linux

User input:
--------------------------------------------------------------

$comment
potential surface scanner
$end

$rem
JOBTYPE  PES_SCAN
UNRESTRICTED TRUE
SYM_IGNORE  TRUE
GEOM_OPT_MAX_CYCLES 400
SCF_MAX_CYCLES 400
METHOD   B3LYP
BASIS   6-31G**
PDB_PRINT 2
SCF_CONVERGENCE 6
THRESH 14
SCF_PRINT 1
$end
$molecule
0 3
S 2.608563 0.571209 0.413207
S -2.915701 -0.166412 -0.083497
C -0.095904 0.088114 0.099102
C 1.261020 -0.608986 -0.038511
C -1.245083 -0.864610 -0.245172
H -0.225596 0.458635 1.121629
H -0.134369 0.961099 -0.561018
H 1.310991 -1.478257 0.624109
H 1.414305 -0.949028 -1.067250
H -1.230632 -1.751829 0.404528
H -1.154795 -1.251817 -1.268719
H 3.637586 -0.270451 0.192323
H -2.122184 2.685932 1.588169
$end
$scan
stre 2 13 3.300000 3.301000 0.100000
$end
--------------------------------------------------------------

   10    -915.3824778892      7.93e-07  Convergence criterion met
 Total energy in the final basis set =     -915.3824778892
   10    -915.3824997225      7.67e-07  Convergence criterion met
 Total energy in the final basis set =     -915.3824997225
   10    -915.3825128683      7.79e-07  Convergence criterion met
 Total energy in the final basis set =     -915.3825128683
   10    -915.3825477015      8.43e-07  Convergence criterion met
 Total energy in the final basis set =     -915.3825477015
   10    -915.3825493406      8.48e-07  Convergence criterion met
 Total energy in the final basis set =     -915.3825493406

             Standard Nuclear Orientation (Angstroms)
    I     Atom           X                Y                Z
 ----------------------------------------------------------------
    1      S       2.6166655686     0.5639513767     0.4131215277
    2      S      -2.9128084996    -0.1498732510    -0.0637156042
    3      C      -0.0908833161     0.0937442648     0.1071702528
    4      C       1.2623614377    -0.6083954119    -0.0388253187
    5      C      -1.2456417167    -0.8529736557    -0.2378826695
    6      H      -0.2161295677     0.4593735545     1.1320894836
    7      H      -0.1294078103     0.9704256706    -0.5480166031
    8      H       1.3106459875    -1.4810249080     0.6195549503
    9      H       1.4104563097    -0.9440920147    -1.0696784095
   10      H      -1.2318755905    -1.7435345582     0.4070805781
   11      H      -1.1617978740    -1.2340727584    -1.2642981573
   12      H       3.6411401267    -0.2812120211     0.1844815253
   13      H      -2.1445240553     2.6312827122     1.5378184445
 ----------------------------------------------------------------

   10    -915.3825524330      8.61e-07  Convergence criterion met
 Total energy in the final basis set =     -915.3825524330

                    Orbital Energies (a.u.)
 --------------------------------------------------------------

 Alpha MOs
 -- Occupied --
-88.897 -88.879 -10.236 -10.230 -10.206  -7.958  -7.942  -5.928
 -5.919  -5.910  -5.906  -5.903  -5.896  -0.832  -0.781  -0.708
 -0.627  -0.601  -0.496  -0.456  -0.434  -0.418  -0.388  -0.363
 -0.350  -0.333  -0.303  -0.289  -0.246  -0.242

 Beta MOs
 -- Occupied --
-88.892 -88.879 -10.236 -10.230 -10.206  -7.952  -7.941  -5.916
 -5.911  -5.907  -5.906  -5.903  -5.896  -0.829  -0.773  -0.697
 -0.615  -0.592  -0.493  -0.456  -0.428  -0.413  -0.387  -0.360
 -0.343  -0.332  -0.242  -0.237

          Ground-State Mulliken Net Atomic Charges

     Atom                 Charge (a.u.)    Spin (a.u.)
  --------------------------------------------------------
      1 S                    -0.038628       0.000747
      2 S                     0.018580       0.988420
      3 C                    -0.169308       0.004842
      4 C                    -0.332022      -0.000527
      5 C                    -0.368430      -0.030109
      6 H                     0.133185      -0.001782
      7 H                     0.131224       0.000272
      8 H                     0.135527       0.000169
      9 H                     0.136027       0.000384
     10 H                     0.154033       0.031851
     11 H                     0.152755       0.024501
     12 H                     0.057382      -0.000089
     13 H                    -0.010323       0.981321
  --------------------------------------------------------
  Sum of atomic charges =    -0.000000

                    Cartesian Multipole Moments
 -----------------------------------------------------------------
    Charge (ESU x 10^10)
                 0.0000
    Dipole Moment (Debye)
         X       1.0461      Y      -2.2933      Z      -0.7448
       Tot       2.6284
    Quadrupole Moments (Debye-Ang)
        XX     -52.8875     XY      -3.3732     YY     -47.8473
        XZ      -1.2430     YZ      -0.9560     ZZ     -47.7686

 Final energy is   -915.382552433000
 **  OPTIMIZATION CONVERGED  **
 Total job time:  24.81s(wall), 282.98s(cpu)
        *  Thank you very much for using Q-Chem.  Have a nice day.  *
