 Q-Chem 5.1, Q-Chem, Inc., Pleasanton, CA (2018)
 Q-Chem 5.1.1 for Intel X86 EM64T Linux

User input:
--------------------------------------------------------------

$comment
potential surface scanner
$end

$rem
JOBTYPE  PES_SCAN
UNRESTRICTED TRUE
SYM_IGNORE  TRUE
GEOM_OPT_MAX_CYCLES 400
SCF_MAX_CYCLES 400
METHOD   B3LYP
BASIS   6-31G**
PDB_PRINT 2
SCF_CONVERGENCE 6
THRESH 14
SCF_PRINT 1
$end
$molecule
0 1
S 2.733568 0.511100 0.033556
S -2.830790 0.217821 -0.258829
C -0.007987 0.210913 -0.073150
C 1.275090 -0.622844 -0.014274
C -1.256629 -0.674443 -0.100956
H -0.067759 0.867061 0.803450
H 0.000682 0.857804 -0.956505
H 1.283868 -1.250903 0.881272
H 1.354890 -1.269872 -0.892960
H -1.296015 -1.347599 0.760853
H -1.251110 -1.311790 -1.000834
H 3.676013 -0.447049 0.133293
H -2.505618 1.683402 1.863984
$end
$scan
stre 2 13 2.700000 2.701000 0.100000
$end
--------------------------------------------------------------

   11    -915.3820375496      6.75e-07  Convergence criterion met
 Total energy in the final basis set =     -915.3820375496
   11    -915.3740456114      9.68e-07  Convergence criterion met
 Total energy in the final basis set =     -915.3740456114
   11    -915.3738951347      9.72e-07  Convergence criterion met
 Total energy in the final basis set =     -915.3738951347
   11    -915.3739133762      9.70e-07  Convergence criterion met
 Total energy in the final basis set =     -915.3739133762

             Standard Nuclear Orientation (Angstroms)
    I     Atom           X                Y                Z
 ----------------------------------------------------------------
    1      S       2.7279870045     0.5156150025     0.0368987052
    2      S      -2.8337613004     0.1995783868    -0.2813676838
    3      C      -0.0125366393     0.2073406938    -0.0789247542
    4      C       1.2731117337    -0.6227677054    -0.0143246899
    5      C      -1.2571472126    -0.6831125845    -0.1111245644
    6      H      -0.0766756357     0.8643726720     0.7963186840
    7      H      -0.0017251449     0.8530967314    -0.9630566778
    8      H       1.2803103048    -1.2489630145     0.8825327236
    9      H       1.3582903954    -1.2713532469    -0.8913734969
   10      H      -1.2993864275    -1.3550315546     0.7515729238
   11      H      -1.2408552443    -1.3220766310    -1.0102238945
   12      H       3.6727428108    -0.4393730261     0.1443480871
   13      H      -2.4821516445     1.7262752766     1.9176246378
 ----------------------------------------------------------------

   11    -915.3739143692      9.70e-07  Convergence criterion met
 Total energy in the final basis set =     -915.3739143692

                    Orbital Energies (a.u.)
 --------------------------------------------------------------

 Alpha MOs
 -- Occupied --
-88.912 -88.880 -10.237 -10.231 -10.208  -7.968  -7.942  -5.935
 -5.931  -5.921  -5.907  -5.904  -5.897  -0.832  -0.779  -0.704
 -0.622  -0.598  -0.496  -0.457  -0.432  -0.417  -0.387  -0.362
 -0.349  -0.333  -0.278  -0.246  -0.242

 Beta MOs
 -- Occupied --
-88.912 -88.880 -10.237 -10.231 -10.208  -7.968  -7.942  -5.935
 -5.931  -5.921  -5.907  -5.904  -5.897  -0.832  -0.779  -0.704
 -0.622  -0.598  -0.496  -0.457  -0.432  -0.417  -0.387  -0.362
 -0.349  -0.333  -0.278  -0.246  -0.242

          Ground-State Mulliken Net Atomic Charges

     Atom                 Charge (a.u.)    Spin (a.u.)
  --------------------------------------------------------
      1 S                    -0.038582      -0.000000
      2 S                    -0.011382      -0.000000
      3 C                    -0.170840      -0.000000
      4 C                    -0.332021       0.000000
      5 C                    -0.353855       0.000000
      6 H                     0.129920      -0.000000
      7 H                     0.136144      -0.000000
      8 H                     0.137337       0.000000
      9 H                     0.136082       0.000000
     10 H                     0.151289      -0.000000
     11 H                     0.151570      -0.000000
     12 H                     0.057824       0.000000
     13 H                     0.006513       0.000000
  --------------------------------------------------------
  Sum of atomic charges =    -0.000000

                    Cartesian Multipole Moments
 -----------------------------------------------------------------
    Charge (ESU x 10^10)
                 0.0000
    Dipole Moment (Debye)
         X       0.9755      Y      -2.3918      Z       0.0626
       Tot       2.5838
    Quadrupole Moments (Debye-Ang)
        XX     -53.7943     XY      -3.1246     YY     -46.9354
        XZ       0.4718     YZ       1.4913     ZZ     -47.4278

 Final energy is   -915.373914369165
 **  OPTIMIZATION CONVERGED  **
 Total job time:  22.44s(wall), 254.59s(cpu)
        *  Thank you very much for using Q-Chem.  Have a nice day.  *
