 Q-Chem 5.1, Q-Chem, Inc., Pleasanton, CA (2018)
 Q-Chem 5.1.1 for Intel X86 EM64T Linux

User input:
--------------------------------------------------------------

$comment
potential surface scanner
$end

$rem
JOBTYPE  PES_SCAN
UNRESTRICTED TRUE
SYM_IGNORE  TRUE
GEOM_OPT_MAX_CYCLES 400
SCF_MAX_CYCLES 400
METHOD   B3LYP
BASIS   6-31G**
PDB_PRINT 2
SCF_CONVERGENCE 6
THRESH 14
SCF_PRINT 1
$end
$molecule
0 1
S 2.708667 0.533695 0.049043
S -2.840360 0.147388 -0.335090
C -0.025783 0.191686 -0.098160
C 1.268450 -0.622179 -0.013936
C -1.260228 -0.715202 -0.147447
H -0.116369 0.849168 0.775200
H -0.011704 0.836815 -0.982839
H 1.272773 -1.244259 0.885802
H 1.370353 -1.273512 -0.887120
H -1.304129 -1.389919 0.713381
H -1.220096 -1.355360 -1.046320
H 3.661710 -0.408709 0.188893
H -2.395082 1.873990 2.077496
$end
$scan
stre 2 13 3.100000 3.101000 0.100000
$end
--------------------------------------------------------------

   12    -915.3537533212      5.89e-07  Convergence criterion met
 Total energy in the final basis set =     -915.3537533212
   13    -915.3483312610      2.72e-07  Convergence criterion met
 Total energy in the final basis set =     -915.3483312610
   13    -915.3482470265      2.84e-07  Convergence criterion met
 Total energy in the final basis set =     -915.3482470265

             Standard Nuclear Orientation (Angstroms)
    I     Atom           X                Y                Z
 ----------------------------------------------------------------
    1      S       2.7013796882     0.5389872940     0.0533847429
    2      S      -2.8459763504     0.1257352902    -0.3584637349
    3      C      -0.0318851917     0.1889233683    -0.1038013912
    4      C       1.2647785081    -0.6211653325    -0.0131727014
    5      C      -1.2613264042    -0.7240072360    -0.1577297900
    6      H      -0.1251744251     0.8469137028     0.7686754715
    7      H      -0.0156506125     0.8328789794    -0.9891928337
    8      H       1.2668517127    -1.2410014885     0.8880794751
    9      H       1.3729358570    -1.2744354030    -0.8842402076
   10      H      -1.3061382860    -1.3986878610     0.7032950635
   11      H      -1.2094786803    -1.3639215456    -1.0562840016
   12      H       3.6562740972    -0.4002186854     0.2017024803
   13      H      -2.3583879131     1.9136009173     2.1266504271
 ----------------------------------------------------------------

   13    -915.3482623323      2.92e-07  Convergence criterion met
 Total energy in the final basis set =     -915.3482623323

                    Orbital Energies (a.u.)
 --------------------------------------------------------------

 Alpha MOs
 -- Occupied --
-88.911 -88.881 -10.239 -10.231 -10.209  -7.968  -7.943  -5.934
 -5.930  -5.921  -5.908  -5.904  -5.897  -0.834  -0.781  -0.705
 -0.623  -0.599  -0.497  -0.458  -0.433  -0.418  -0.388  -0.363
 -0.350  -0.334  -0.265  -0.246  -0.242

 Beta MOs
 -- Occupied --
-88.911 -88.881 -10.239 -10.231 -10.209  -7.968  -7.943  -5.934
 -5.930  -5.921  -5.908  -5.904  -5.897  -0.834  -0.781  -0.705
 -0.623  -0.599  -0.497  -0.458  -0.433  -0.418  -0.388  -0.363
 -0.350  -0.334  -0.265  -0.246  -0.242

          Ground-State Mulliken Net Atomic Charges

     Atom                 Charge (a.u.)    Spin (a.u.)
  --------------------------------------------------------
      1 S                    -0.036614      -0.000000
      2 S                    -0.006326      -0.000000
      3 C                    -0.172229      -0.000000
      4 C                    -0.332500      -0.000000
      5 C                    -0.357185      -0.000000
      6 H                     0.131387      -0.000000
      7 H                     0.136924       0.000000
      8 H                     0.137940      -0.000000
      9 H                     0.136102       0.000000
     10 H                     0.152601      -0.000000
     11 H                     0.155802      -0.000000
     12 H                     0.058140      -0.000000
     13 H                    -0.004041       0.000000
  --------------------------------------------------------
  Sum of atomic charges =     0.000000

                    Cartesian Multipole Moments
 -----------------------------------------------------------------
    Charge (ESU x 10^10)
                -0.0000
    Dipole Moment (Debye)
         X       1.0909      Y      -2.4889      Z      -0.0222
       Tot       2.7176
    Quadrupole Moments (Debye-Ang)
        XX     -53.7534     XY      -2.9178     YY     -47.0545
        XZ       0.7729     YZ       1.2645     ZZ     -47.6766

 Final energy is   -915.348262332313
 **  OPTIMIZATION CONVERGED  **
 Total job time:  20.12s(wall), 227.29s(cpu)
        *  Thank you very much for using Q-Chem.  Have a nice day.  *
