 Q-Chem 5.1, Q-Chem, Inc., Pleasanton, CA (2018)
 Q-Chem 5.1.1 for Intel X86 EM64T Linux

User input:
--------------------------------------------------------------

$comment
potential surface scanner
$end

$rem
JOBTYPE  PES_SCAN
UNRESTRICTED TRUE
SYM_IGNORE  TRUE
GEOM_OPT_MAX_CYCLES 400
SCF_MAX_CYCLES 400
METHOD   B3LYP
BASIS   6-31G**
PDB_PRINT 2
SCF_CONVERGENCE 6
THRESH 14
SCF_PRINT 1
$end
$molecule
0 1
S 2.749000 0.445300 -0.001100
S -2.750400 0.444400 -0.000400
C 0.000900 0.283600 0.001800
C 1.255600 -0.587300 0.000700
C -1.255100 -0.586000 -0.001000
H 0.001400 0.930000 0.889200
H 0.001400 0.933800 -0.882900
H 1.280200 -1.230100 0.886500
H 1.278600 -1.230200 -0.885100
H -1.279500 -1.231800 0.882600
H -1.278100 -1.225300 -0.889300
H 3.631700 -0.564200 -0.001900
H -2.527500 1.041400 1.179800
$end
$scan
stre 2 13 1.200000 1.201000 0.100000
$end
--------------------------------------------------------------

    9    -915.5215846885      2.52e-07  Convergence criterion met
 Total energy in the final basis set =     -915.5215846885
    9    -915.5104911219      2.64e-07  Convergence criterion met
 Total energy in the final basis set =     -915.5104911219
    9    -915.5095038441      2.63e-07  Convergence criterion met
 Total energy in the final basis set =     -915.5095038441
    9    -915.5095207922      2.61e-07  Convergence criterion met
 Total energy in the final basis set =     -915.5095207922
    9    -915.5095221120      2.61e-07  Convergence criterion met
 Total energy in the final basis set =     -915.5095221120

             Standard Nuclear Orientation (Angstroms)
    I     Atom           X                Y                Z
 ----------------------------------------------------------------
    1      S       2.7829241415     0.4534945166    -0.0154233484
    2      S      -2.8022879434     0.4534859815     0.0106382365
    3      C       0.0254762415     0.2782246243     0.0227830823
    4      C       1.2721148425    -0.6115581481    -0.0018507912
    5      C      -1.2591927358    -0.5544221352     0.0377727158
    6      H       0.0573962575     0.9231949664     0.9090953221
    7      H       0.0200884989     0.9386704074    -0.8507079808
    8      H       1.3014539730    -1.2578391325     0.8803252926
    9      H       1.2738832846    -1.2429224000    -0.8951530621
   10      H      -1.2900679562    -1.2237185241     0.9028987580
   11      H      -1.3260653408    -1.1801474501    -0.8572469146
   12      H       3.6836111421    -0.5489869929    -0.0313969292
   13      H      -2.6311344054     0.9961242867     1.0671656190
 ----------------------------------------------------------------

    9    -915.5095226085      2.61e-07  Convergence criterion met
 Total energy in the final basis set =     -915.5095226085

                    Orbital Energies (a.u.)
 --------------------------------------------------------------

 Alpha MOs
 -- Occupied --
-88.878 -88.867 -10.229 -10.228 -10.205  -7.940  -7.934  -5.905
 -5.902  -5.899  -5.895  -5.895  -5.888  -0.830  -0.784  -0.718
 -0.642  -0.602  -0.494  -0.458  -0.443  -0.420  -0.389  -0.379
 -0.357  -0.333  -0.325  -0.243  -0.240

 Beta MOs
 -- Occupied --
-88.878 -88.867 -10.229 -10.228 -10.205  -7.940  -7.934  -5.905
 -5.902  -5.899  -5.895  -5.895  -5.888  -0.830  -0.784  -0.718
 -0.642  -0.602  -0.494  -0.458  -0.443  -0.420  -0.389  -0.379
 -0.357  -0.333  -0.325  -0.243  -0.240

          Ground-State Mulliken Net Atomic Charges

     Atom                 Charge (a.u.)    Spin (a.u.)
  --------------------------------------------------------
      1 S                    -0.042742      -0.000000
      2 S                    -0.036412       0.000000
      3 C                    -0.175679      -0.000000
      4 C                    -0.330032       0.000000
      5 C                    -0.342221       0.000000
      6 H                     0.118775      -0.000000
      7 H                     0.136515       0.000000
      8 H                     0.135586      -0.000000
      9 H                     0.137382      -0.000000
     10 H                     0.138253      -0.000000
     11 H                     0.143036      -0.000000
     12 H                     0.057464      -0.000000
     13 H                     0.060076      -0.000000
  --------------------------------------------------------
  Sum of atomic charges =     0.000000

                    Cartesian Multipole Moments
 -----------------------------------------------------------------
    Charge (ESU x 10^10)
                 0.0000
    Dipole Moment (Debye)
         X       0.6940      Y      -1.8601      Z       0.8244
       Tot       2.1498
    Quadrupole Moments (Debye-Ang)
        XX     -53.6978     XY      -4.4699     YY     -46.2565
        XZ      -2.3027     YZ       1.8386     ZZ     -46.6423

 Final energy is   -915.509522608474
 **  OPTIMIZATION CONVERGED  **
 Total job time:  23.97s(wall), 270.78s(cpu)
        *  Thank you very much for using Q-Chem.  Have a nice day.  *
