 Q-Chem 5.1, Q-Chem, Inc., Pleasanton, CA (2018)
 Q-Chem 5.1.1 for Intel X86 EM64T Linux

User input:
--------------------------------------------------------------

$comment
potential surface scanner
$end

$rem
JOBTYPE  PES_SCAN
UNRESTRICTED TRUE
SYM_IGNORE  TRUE
GEOM_OPT_MAX_CYCLES 400
SCF_MAX_CYCLES 400
METHOD   B3LYP
BASIS   6-31G**
PDB_PRINT 2
SCF_CONVERGENCE 6
THRESH 14
SCF_PRINT 1
$end
$molecule
0 1
S 2.749000 0.445300 -0.001100
S -2.750400 0.444400 -0.000400
C 0.000900 0.283600 0.001800
C 1.255600 -0.587300 0.000700
C -1.255100 -0.586000 -0.001000
H 0.001400 0.930000 0.889200
H 0.001400 0.933800 -0.882900
H 1.280200 -1.230100 0.886500
H 1.278600 -1.230200 -0.885100
H -1.279500 -1.231800 0.882600
H -1.278100 -1.225300 -0.889300
H 3.631700 -0.564200 -0.001900
H -2.527500 1.041400 1.179800
$end
$scan
stre 2 13 0.800000 0.801000 0.100000
$end
--------------------------------------------------------------

    9    -915.5215846885      2.52e-07  Convergence criterion met
 Total energy in the final basis set =     -915.5215846885
    9    -915.5073768053      2.65e-07  Convergence criterion met
 Total energy in the final basis set =     -915.5073768053
    9    -915.4423840100      3.27e-07  Convergence criterion met
 Total energy in the final basis set =     -915.4423840100
    9    -915.3358320350      3.92e-07  Convergence criterion met
 Total energy in the final basis set =     -915.3358320350
    9    -915.1150083391      4.79e-07  Convergence criterion met
 Total energy in the final basis set =     -915.1150083391
    9    -915.0947995974      4.81e-07  Convergence criterion met
 Total energy in the final basis set =     -915.0947995974
    9    -915.0821980636      4.78e-07  Convergence criterion met
 Total energy in the final basis set =     -915.0821980636
    9    -915.0821663677      4.74e-07  Convergence criterion met
 Total energy in the final basis set =     -915.0821663677
    9    -915.0822029149      4.59e-07  Convergence criterion met
 Total energy in the final basis set =     -915.0822029149
    9    -915.0822036911      4.58e-07  Convergence criterion met
 Total energy in the final basis set =     -915.0822036911

             Standard Nuclear Orientation (Angstroms)
    I     Atom           X                Y                Z
 ----------------------------------------------------------------
    1      S       2.7909430585     0.4407797730    -0.0270051605
    2      S      -2.7842355731     0.4978639836     0.1015640691
    3      C       0.0315872996     0.2948626645     0.0561587048
    4      C       1.2685767720    -0.6070094653    -0.0008212800
    5      C      -1.2591344464    -0.5292798075     0.0802836903
    6      H       0.0846754808     0.9286467060     0.9493141376
    7      H       0.0184245916     0.9651080034    -0.8097561673
    8      H       1.3060378832    -1.2656854120     0.8718346112
    9      H       1.2471056468    -1.2258527577    -0.9025431054
   10      H      -1.2842609073    -1.2037072715     0.9420718825
   11      H      -1.3418208069    -1.1475874774    -0.8171368634
   12      H       3.6795216191    -0.5713427606    -0.0737438276
   13      H      -2.6492206180     0.8468038216     0.8086793085
 ----------------------------------------------------------------

    9    -915.0822062164      4.54e-07  Convergence criterion met
 Total energy in the final basis set =     -915.0822062164

                    Orbital Energies (a.u.)
 --------------------------------------------------------------

 Alpha MOs
 -- Occupied --
-88.879 -88.831 -10.230 -10.229 -10.206  -7.941  -7.934  -5.906
 -5.903  -5.902  -5.895  -5.889  -5.881  -0.859  -0.812  -0.741
 -0.657  -0.604  -0.496  -0.464  -0.449  -0.423  -0.391  -0.381
 -0.358  -0.334  -0.326  -0.248  -0.241

 Beta MOs
 -- Occupied --
-88.879 -88.831 -10.230 -10.229 -10.206  -7.941  -7.934  -5.906
 -5.903  -5.902  -5.895  -5.889  -5.881  -0.859  -0.812  -0.741
 -0.657  -0.604  -0.496  -0.464  -0.449  -0.423  -0.391  -0.381
 -0.358  -0.334  -0.326  -0.248  -0.241

          Ground-State Mulliken Net Atomic Charges

     Atom                 Charge (a.u.)    Spin (a.u.)
  --------------------------------------------------------
      1 S                    -0.042118       0.000000
      2 S                     0.115513       0.000000
      3 C                    -0.180294      -0.000000
      4 C                    -0.330661       0.000000
      5 C                    -0.341419      -0.000000
      6 H                     0.120734       0.000000
      7 H                     0.137517       0.000000
      8 H                     0.135911      -0.000000
      9 H                     0.137782       0.000000
     10 H                     0.138012       0.000000
     11 H                     0.145609       0.000000
     12 H                     0.057763       0.000000
     13 H                    -0.094350      -0.000000
  --------------------------------------------------------
  Sum of atomic charges =    -0.000000

                    Cartesian Multipole Moments
 -----------------------------------------------------------------
    Charge (ESU x 10^10)
                -0.0000
    Dipole Moment (Debye)
         X       0.7678      Y      -1.8891      Z       0.8157
       Tot       2.1963
    Quadrupole Moments (Debye-Ang)
        XX     -53.7129     XY      -4.2943     YY     -45.8461
        XZ      -2.4187     YZ       1.7253     ZZ     -46.4042

 Final energy is   -915.082206216439
 **  OPTIMIZATION CONVERGED  **
 Total job time:  43.52s(wall), 495.30s(cpu)
        *  Thank you very much for using Q-Chem.  Have a nice day.  *
