 Q-Chem 5.1, Q-Chem, Inc., Pleasanton, CA (2018)
 Q-Chem 5.1.1 for Intel X86 EM64T Linux

User input:
--------------------------------------------------------------

$comment
potential surface scanner
$end

$rem
JOBTYPE  PES_SCAN
UNRESTRICTED TRUE
SYM_IGNORE  TRUE
GEOM_OPT_MAX_CYCLES 400
SCF_MAX_CYCLES 400
METHOD   B3LYP
BASIS   6-31G**
PDB_PRINT 2
SCF_CONVERGENCE 6
THRESH 14
SCF_PRINT 1
$end
$molecule
0 3
S 2.592241 0.638198 0.208143
S -2.908708 -0.023585 -0.557082
C -0.107549 0.173649 -0.166470
C 1.208433 -0.576578 0.059524
C -1.278278 -0.798657 -0.346069
H -0.312930 0.838239 0.680025
H -0.024341 0.809436 -1.054888
H 1.155757 -1.172175 0.975799
H 1.413071 -1.249074 -0.779065
H -1.382784 -1.458624 0.528045
H -1.116148 -1.468056 -1.200513
H 3.577499 -0.263579 0.387457
H -1.708061 1.974407 2.443997
$end
$scan
stre 2 13 3.700000 3.701000 0.100000
$end
--------------------------------------------------------------

   10    -915.3821834608      5.65e-07  Convergence criterion met
 Total energy in the final basis set =     -915.3821834608
   10    -915.3821191665      6.87e-07  Convergence criterion met
 Total energy in the final basis set =     -915.3821191665
   10    -915.3821313353      7.01e-07  Convergence criterion met
 Total energy in the final basis set =     -915.3821313353
   10    -915.3821525622      7.29e-07  Convergence criterion met
 Total energy in the final basis set =     -915.3821525622
   10    -915.3821540057      7.28e-07  Convergence criterion met
 Total energy in the final basis set =     -915.3821540057

             Standard Nuclear Orientation (Angstroms)
    I     Atom           X                Y                Z
 ----------------------------------------------------------------
    1      S       2.6024324338     0.6311233784     0.1986178309
    2      S      -2.9059932378    -0.0074578223    -0.5298553811
    3      C      -0.1011331389     0.1782956476    -0.1625758737
    4      C       1.2125028600    -0.5776134875     0.0581620037
    5      C      -1.2766203892    -0.7894435524    -0.3373016260
    6      H      -0.3007283088     0.8446566714     0.6837796433
    7      H      -0.0182981363     0.8127343721    -1.0520741470
    8      H       1.1613514122    -1.1717742129     0.9754566225
    9      H       1.4100792733    -1.2520789826    -0.7805241841
   10      H      -1.3788684026    -1.4482112869     0.5383216312
   11      H      -1.1212115716    -1.4589924866    -1.1924590935
   12      H       3.5839836110    -0.2747277510     0.3776902068
   13      H      -1.7592944050     1.9370905128     2.4016653672
 ----------------------------------------------------------------

   10    -915.3821559147      7.26e-07  Convergence criterion met
 Total energy in the final basis set =     -915.3821559147

                    Orbital Energies (a.u.)
 --------------------------------------------------------------

 Alpha MOs
 -- Occupied --
-88.895 -88.879 -10.235 -10.230 -10.206  -7.955  -7.941  -5.926
 -5.917  -5.908  -5.906  -5.903  -5.896  -0.832  -0.780  -0.708
 -0.626  -0.600  -0.496  -0.456  -0.433  -0.417  -0.387  -0.363
 -0.349  -0.333  -0.314  -0.286  -0.247  -0.241

 Beta MOs
 -- Occupied --
-88.889 -88.879 -10.235 -10.230 -10.206  -7.950  -7.941  -5.914
 -5.909  -5.906  -5.905  -5.903  -5.896  -0.828  -0.773  -0.696
 -0.614  -0.591  -0.492  -0.455  -0.427  -0.412  -0.386  -0.359
 -0.342  -0.332  -0.241  -0.235

          Ground-State Mulliken Net Atomic Charges

     Atom                 Charge (a.u.)    Spin (a.u.)
  --------------------------------------------------------
      1 S                    -0.039355       0.000733
      2 S                     0.011014       0.977973
      3 C                    -0.168333       0.014417
      4 C                    -0.331728      -0.000592
      5 C                    -0.366388      -0.030427
      6 H                     0.129127      -0.005957
      7 H                     0.129781       0.000961
      8 H                     0.136086       0.000212
      9 H                     0.135723       0.000685
     10 H                     0.153246       0.033879
     11 H                     0.151359       0.020464
     12 H                     0.057368      -0.000063
     13 H                     0.002099       0.987715
  --------------------------------------------------------
  Sum of atomic charges =    -0.000000

                    Cartesian Multipole Moments
 -----------------------------------------------------------------
    Charge (ESU x 10^10)
                -0.0000
    Dipole Moment (Debye)
         X       0.9464      Y      -2.2831      Z       0.2052
       Tot       2.4800
    Quadrupole Moments (Debye-Ang)
        XX     -53.1666     XY      -3.5846     YY     -47.9133
        XZ      -0.9733     YZ      -0.7102     ZZ     -47.3992

 Final energy is   -915.382155914703
 **  OPTIMIZATION CONVERGED  **
 Total job time:  25.31s(wall), 284.94s(cpu)
        *  Thank you very much for using Q-Chem.  Have a nice day.  *
