 Q-Chem 5.1, Q-Chem, Inc., Pleasanton, CA (2018)
 Q-Chem 5.1.1 for Intel X86 EM64T Linux

User input:
--------------------------------------------------------------

$comment
potential surface scanner
$end

$rem
JOBTYPE  PES_SCAN
UNRESTRICTED TRUE
SYM_IGNORE  TRUE
GEOM_OPT_MAX_CYCLES 400
SCF_MAX_CYCLES 400
METHOD   B3LYP
BASIS   6-31G**
PDB_PRINT 2
SCF_CONVERGENCE 6
THRESH 14
SCF_PRINT 1
$end
$molecule
0 3
S 2.571771 0.651452 0.226661
S -2.912818 -0.055196 -0.614380
C -0.120404 0.164356 -0.171627
C 1.200048 -0.575150 0.065145
C -1.281216 -0.816573 -0.364685
H -0.337744 0.824243 0.676168
H -0.034157 0.803397 -1.057144
H 1.145100 -1.172007 0.980354
H 1.417348 -1.245085 -0.772413
H -1.391390 -1.479621 0.505937
H -1.102954 -1.484642 -1.217590
H 3.566616 -0.241976 0.394513
H -1.611999 2.050402 2.527963
$end
$scan
stre 2 13 3.900000 3.901000 0.100000
$end
--------------------------------------------------------------

   10    -915.3822251963      4.92e-07  Convergence criterion met
 Total energy in the final basis set =     -915.3822251963
   10    -915.3821679890      4.84e-07  Convergence criterion met
 Total energy in the final basis set =     -915.3821679890
   10    -915.3821809804      4.88e-07  Convergence criterion met
 Total energy in the final basis set =     -915.3821809804
   10    -915.3822033887      4.97e-07  Convergence criterion met
 Total energy in the final basis set =     -915.3822033887
   10    -915.3822048859      4.97e-07  Convergence criterion met
 Total energy in the final basis set =     -915.3822048859
   10    -915.3822070263      4.96e-07  Convergence criterion met
 Total energy in the final basis set =     -915.3822070263

             Standard Nuclear Orientation (Angstroms)
    I     Atom           X                Y                Z
 ----------------------------------------------------------------
    1      S       2.5820386584     0.6448846115     0.2174889293
    2      S      -2.9110479938    -0.0401737071    -0.5844474225
    3      C      -0.1142899548     0.1691599344    -0.1696054404
    4      C       1.2040557633    -0.5756171338     0.0614195991
    5      C      -1.2796536298    -0.8078204565    -0.3551292417
    6      H      -0.3251592087     0.8314861575     0.6772285268
    7      H      -0.0300939032     0.8066056329    -1.0566698043
    8      H       1.1498603020    -1.1722302681     0.9769374187
    9      H       1.4155425320    -1.2465103748    -0.7767598111
   10      H      -1.3865571564    -1.4693014945     0.5172517665
   11      H      -1.1094637115    -1.4763780604    -1.2090218110
   12      H       3.5712230273    -0.2530683065     0.3943510377
   13      H      -1.6582537248     2.0125634654     2.4858582529
 ----------------------------------------------------------------

   10    -915.3822074159      4.97e-07  Convergence criterion met
 Total energy in the final basis set =     -915.3822074159

                    Orbital Energies (a.u.)
 --------------------------------------------------------------

 Alpha MOs
 -- Occupied --
-88.894 -88.879 -10.235 -10.229 -10.205  -7.955  -7.941  -5.926
 -5.917  -5.907  -5.906  -5.903  -5.896  -0.831  -0.780  -0.707
 -0.626  -0.600  -0.495  -0.456  -0.433  -0.417  -0.387  -0.363
 -0.349  -0.332  -0.315  -0.286  -0.247  -0.241

 Beta MOs
 -- Occupied --
-88.889 -88.879 -10.235 -10.229 -10.205  -7.950  -7.941  -5.914
 -5.908  -5.906  -5.904  -5.903  -5.896  -0.828  -0.773  -0.696
 -0.614  -0.591  -0.492  -0.455  -0.427  -0.412  -0.386  -0.359
 -0.342  -0.332  -0.241  -0.235

          Ground-State Mulliken Net Atomic Charges

     Atom                 Charge (a.u.)    Spin (a.u.)
  --------------------------------------------------------
      1 S                    -0.039482       0.000764
      2 S                     0.010309       0.975919
      3 C                    -0.167717       0.012984
      4 C                    -0.331815      -0.000704
      5 C                    -0.367075      -0.030499
      6 H                     0.128153      -0.005543
      7 H                     0.130303       0.000849
      8 H                     0.136051       0.000226
      9 H                     0.135517       0.000636
     10 H                     0.153112       0.031939
     11 H                     0.152054       0.023571
     12 H                     0.057308      -0.000091
     13 H                     0.003281       0.989950
  --------------------------------------------------------
  Sum of atomic charges =    -0.000000

                    Cartesian Multipole Moments
 -----------------------------------------------------------------
    Charge (ESU x 10^10)
                 0.0000
    Dipole Moment (Debye)
         X       0.9625      Y      -2.2665      Z       0.2302
       Tot       2.4731
    Quadrupole Moments (Debye-Ang)
        XX     -53.1452     XY      -3.6680     YY     -47.9773
        XZ      -1.0981     YZ      -0.4966     ZZ     -47.3127

 Final energy is   -915.382207415866
 **  OPTIMIZATION CONVERGED  **
 Total job time:  30.20s(wall), 334.44s(cpu)
        *  Thank you very much for using Q-Chem.  Have a nice day.  *
