 Q-Chem 5.1, Q-Chem, Inc., Pleasanton, CA (2018)
 Q-Chem 5.1.1 for Intel X86 EM64T Linux

User input:
--------------------------------------------------------------

$comment
potential surface scanner
$end

$rem
JOBTYPE  PES_SCAN
UNRESTRICTED TRUE
SYM_IGNORE  TRUE
GEOM_OPT_MAX_CYCLES 400
SCF_MAX_CYCLES 400
METHOD   B3LYP
BASIS   6-31G**
PDB_PRINT 2
SCF_CONVERGENCE 6
THRESH 14
SCF_PRINT 1
$end
$molecule
0 3
S 2.663862 0.519296 0.403221
S -2.891154 -0.055262 0.022591
C -0.060355 0.124927 0.141511
C 1.271250 -0.609299 -0.042707
C -1.243497 -0.788337 -0.199115
H -0.158098 0.474558 1.174720
H -0.088748 1.014306 -0.496460
H 1.308547 -1.494463 0.599498
H 1.390875 -0.930425 -1.081872
H -1.238122 -1.690540 0.429753
H -1.187865 -1.151855 -1.233726
H 3.660948 -0.348852 0.142031
H -2.319442 2.359544 1.319456
$end
$scan
stre 2 13 2.700000 2.701000 0.100000
$end
--------------------------------------------------------------

   10    -915.3830142406      9.28e-07  Convergence criterion met
 Total energy in the final basis set =     -915.3830142406
   10    -915.3830103055      9.09e-07  Convergence criterion met
 Total energy in the final basis set =     -915.3830103055
   10    -915.3830304719      9.07e-07  Convergence criterion met
 Total energy in the final basis set =     -915.3830304719
   10    -915.3830567925      9.01e-07  Convergence criterion met
 Total energy in the final basis set =     -915.3830567925
   10    -915.3830601422      9.00e-07  Convergence criterion met
 Total energy in the final basis set =     -915.3830601422
   10    -915.3830649706      9.02e-07  Convergence criterion met
 Total energy in the final basis set =     -915.3830649706

             Standard Nuclear Orientation (Angstroms)
    I     Atom           X                Y                Z
 ----------------------------------------------------------------
    1      S       2.6726637512     0.5103257644     0.4011833678
    2      S      -2.8876919284    -0.0374652959     0.0384777079
    3      C      -0.0546347093     0.1316025054     0.1488860597
    4      C       1.2723630590    -0.6090970648    -0.0434553836
    5      C      -1.2430811707    -0.7748215875    -0.1903799079
    6      H      -0.1455790839     0.4780032477     1.1834724405
    7      H      -0.0809179293     1.0232861690    -0.4858810865
    8      H       1.3072971627    -1.4968323698     0.5953340196
    9      H       1.3861831528    -0.9270044593    -1.0842601520
   10      H      -1.2389310446    -1.6796809914     0.4346771477
   11      H      -1.1925310349    -1.1344990756    -1.2266559468
   12      H       3.6637971707    -0.3625891120     0.1333676470
   13      H      -2.3507363952     2.3023702698     1.2741350866
 ----------------------------------------------------------------

   10    -915.3830656093      9.06e-07  Convergence criterion met
 Total energy in the final basis set =     -915.3830656093

                    Orbital Energies (a.u.)
 --------------------------------------------------------------

 Alpha MOs
 -- Occupied --
-88.905 -88.880 -10.239 -10.231 -10.208  -7.965  -7.942  -5.936
 -5.926  -5.919  -5.907  -5.904  -5.897  -0.835  -0.785  -0.712
 -0.630  -0.603  -0.498  -0.458  -0.436  -0.420  -0.390  -0.364
 -0.355  -0.334  -0.298  -0.294  -0.242  -0.233

 Beta MOs
 -- Occupied --
-88.899 -88.880 -10.240 -10.231 -10.208  -7.959  -7.942  -5.923
 -5.918  -5.913  -5.907  -5.904  -5.897  -0.831  -0.776  -0.699
 -0.617  -0.595  -0.495  -0.457  -0.430  -0.415  -0.389  -0.361
 -0.346  -0.333  -0.245  -0.242

          Ground-State Mulliken Net Atomic Charges

     Atom                 Charge (a.u.)    Spin (a.u.)
  --------------------------------------------------------
      1 S                    -0.036484       0.000868
      2 S                     0.052268       1.029493
      3 C                    -0.170387       0.006575
      4 C                    -0.332569      -0.000957
      5 C                    -0.371101      -0.030360
      6 H                     0.136893      -0.001319
      7 H                     0.133440       0.000171
      8 H                     0.135613       0.000244
      9 H                     0.136042       0.000453
     10 H                     0.156174       0.032893
     11 H                     0.154679       0.025216
     12 H                     0.057504      -0.000045
     13 H                    -0.052072       0.936770
  --------------------------------------------------------
  Sum of atomic charges =     0.000000

                    Cartesian Multipole Moments
 -----------------------------------------------------------------
    Charge (ESU x 10^10)
                -0.0000
    Dipole Moment (Debye)
         X       0.9846      Y      -2.7075      Z      -1.0153
       Tot       3.0547
    Quadrupole Moments (Debye-Ang)
        XX     -52.7919     XY      -2.2182     YY     -48.6490
        XZ      -0.6677     YZ      -1.4880     ZZ     -48.0384

 Final energy is   -915.383065609345
 **  OPTIMIZATION CONVERGED  **
 Total job time:  31.04s(wall), 345.91s(cpu)
        *  Thank you very much for using Q-Chem.  Have a nice day.  *
