 Q-Chem 5.1, Q-Chem, Inc., Pleasanton, CA (2018)
 Q-Chem 5.1.1 for Intel X86 EM64T Linux

User input:
--------------------------------------------------------------

$comment
potential surface scanner
$end

$rem
JOBTYPE  PES_SCAN
UNRESTRICTED TRUE
SYM_IGNORE  TRUE
GEOM_OPT_MAX_CYCLES 400
SCF_MAX_CYCLES 400
METHOD   B3LYP
BASIS   6-31G**
PDB_PRINT 2
SCF_CONVERGENCE 6
THRESH 14
SCF_PRINT 1
$end
$molecule
0 3
S 2.688811 0.488034 0.406634
S -2.906991 0.044936 0.116628
C -0.050021 0.190759 0.207124
C 1.250189 -0.581453 -0.037447
C -1.262768 -0.684569 -0.130494
H -0.108073 0.513755 1.250674
H -0.069222 1.099742 -0.401433
H 1.276163 -1.488292 0.574636
H 1.332481 -0.871846 -1.089362
H -1.264058 -1.606739 0.468279
H -1.236639 -1.019006 -1.176662
H 3.649473 -0.405037 0.097121
H -2.191145 1.743315 0.893208
$end
$scan
stre 2 13 1.900000 1.901000 0.100000
$end
--------------------------------------------------------------

   10    -915.3775002057      6.95e-07  Convergence criterion met
 Total energy in the final basis set =     -915.3775002057
   10    -915.3744529179      7.09e-07  Convergence criterion met
 Total energy in the final basis set =     -915.3744529179
   10    -915.3744365601      7.08e-07  Convergence criterion met
 Total energy in the final basis set =     -915.3744365601

             Standard Nuclear Orientation (Angstroms)
    I     Atom           X                Y                Z
 ----------------------------------------------------------------
    1      S       2.6938337093     0.4826225399     0.4037097165
    2      S      -2.9127668507     0.0552202268     0.1209569767
    3      C      -0.0475607052     0.2036738193     0.2130510383
    4      C       1.2466874124    -0.5774987858    -0.0354112954
    5      C      -1.2647084510    -0.6669691067    -0.1230131628
    6      H      -0.1010182117     0.5272915800     1.2563609924
    7      H      -0.0627230772     1.1129692674    -0.3948245598
    8      H       1.2689233091    -1.4843193016     0.5769027112
    9      H       1.3242337131    -0.8689080630    -1.0874508422
   10      H      -1.2681388858    -1.5895333431     0.4750936839
   11      H      -1.2409556645    -1.0011684606    -1.1691817903
   12      H       3.6479604790    -0.4165014044     0.0912316275
   13      H      -2.1755667768     1.6467200319     0.8514809039
 ----------------------------------------------------------------

   10    -915.3744533346      7.30e-07  Convergence criterion met
 Total energy in the final basis set =     -915.3744533346

                    Orbital Energies (a.u.)
 --------------------------------------------------------------

 Alpha MOs
 -- Occupied --
-88.922 -88.880 -10.245 -10.231 -10.208  -7.982  -7.942  -5.952
 -5.942  -5.937  -5.907  -5.904  -5.897  -0.840  -0.791  -0.718
 -0.637  -0.607  -0.501  -0.461  -0.440  -0.426  -0.395  -0.367
 -0.365  -0.335  -0.329  -0.307  -0.242  -0.149

 Beta MOs
 -- Occupied --
-88.915 -88.880 -10.245 -10.231 -10.207  -7.975  -7.942  -5.938
 -5.933  -5.929  -5.907  -5.904  -5.896  -0.834  -0.780  -0.703
 -0.620  -0.600  -0.496  -0.459  -0.432  -0.418  -0.391  -0.362
 -0.353  -0.334  -0.283  -0.242

          Ground-State Mulliken Net Atomic Charges

     Atom                 Charge (a.u.)    Spin (a.u.)
  --------------------------------------------------------
      1 S                    -0.033280       0.002118
      2 S                     0.168460       1.166490
      3 C                    -0.173840       0.024064
      4 C                    -0.333055      -0.001372
      5 C                    -0.370569      -0.040612
      6 H                     0.143758       0.000204
      7 H                     0.139736       0.000335
      8 H                     0.134682       0.000831
      9 H                     0.134878       0.001242
     10 H                     0.160908       0.031392
     11 H                     0.160245       0.026696
     12 H                     0.056598       0.000331
     13 H                    -0.188521       0.788281
  --------------------------------------------------------
  Sum of atomic charges =     0.000000

                    Cartesian Multipole Moments
 -----------------------------------------------------------------
    Charge (ESU x 10^10)
                 0.0000
    Dipole Moment (Debye)
         X       0.6398      Y      -3.1999      Z      -1.2684
       Tot       3.5011
    Quadrupole Moments (Debye-Ang)
        XX     -51.4550     XY      -1.2979     YY     -49.8401
        XZ      -0.3655     YZ      -1.9782     ZZ     -47.9775

 Final energy is   -915.374453334626
 **  OPTIMIZATION CONVERGED  **
 Total job time:  18.59s(wall), 203.08s(cpu)
        *  Thank you very much for using Q-Chem.  Have a nice day.  *
