 Q-Chem 5.1, Q-Chem, Inc., Pleasanton, CA (2018)
 Q-Chem 5.1.1 for Intel X86 EM64T Linux

User input:
--------------------------------------------------------------

$comment
potential surface scanner
$end

$rem
JOBTYPE  PES_SCAN
UNRESTRICTED TRUE
SYM_IGNORE  TRUE
GEOM_OPT_MAX_CYCLES 400
SCF_MAX_CYCLES 400
METHOD   B3LYP
BASIS   6-31G**
PDB_PRINT 2
SCF_CONVERGENCE 6
THRESH 14
SCF_PRINT 1
$end
$molecule
0 1
S 2.393399 -0.032877 1.129718
S -2.556437 -0.323749 -0.391841
C 0.192968 -0.327591 -0.504781
C 1.562038 -0.894930 -0.298871
C -0.924106 -1.013054 -0.239658
H -1.226880 3.244074 1.568929
H 0.138048 0.696347 -0.868903
H 1.515261 -1.966841 -0.092201
H 2.182306 -0.732331 -1.185115
H -0.876997 -2.031406 0.137168
H -3.210493 -1.497728 -0.471212
H 3.655209 -0.399162 0.823646
H -1.736113 2.702851 1.572023
$end
$scan
stre 2 13 3.800000 3.801000 0.100000
$end
--------------------------------------------------------------

    9    -915.4673931249      9.87e-07  Convergence criterion met
 Total energy in the final basis set =     -915.4673931249
    9    -915.4672976307      9.83e-07  Convergence criterion met
 Total energy in the final basis set =     -915.4672976307
    9    -915.4673207101      9.84e-07  Convergence criterion met
 Total energy in the final basis set =     -915.4673207101
    9    -915.4673770776      9.90e-07  Convergence criterion met
 Total energy in the final basis set =     -915.4673770776
    9    -915.4673793658      9.90e-07  Convergence criterion met
 Total energy in the final basis set =     -915.4673793658
    9    -915.4673849202      9.88e-07  Convergence criterion met
 Total energy in the final basis set =     -915.4673849202

             Standard Nuclear Orientation (Angstroms)
    I     Atom           X                Y                Z
 ----------------------------------------------------------------
    1      S       2.3804361814    -0.0311791516     1.1340357473
    2      S      -2.5641111751    -0.3557107034    -0.4041510466
    3      C       0.1859225625    -0.3368167499    -0.5066480354
    4      C       1.5586583724    -0.8944854267    -0.2993085727
    5      C      -0.9266875694    -1.0324718671    -0.2491053817
    6      H      -1.2004738535     3.2958639892     1.5858711186
    7      H       0.1239673613     0.6884993020    -0.8660834284
    8      H       1.5193064321    -1.9674040421    -0.0962572059
    9      H       2.1797712660    -0.7244766779    -1.1835883484
   10      H      -0.8730104203    -2.0523686515     0.1226557866
   11      H      -3.2079932311    -1.5348101046    -0.4902209137
   12      H       3.6453188824    -0.3890553819     0.8308265081
   13      H      -1.7129018085     2.7580184656     1.6008757724
 ----------------------------------------------------------------

    9    -915.4673853746      9.87e-07  Convergence criterion met
 Total energy in the final basis set =     -915.4673853746

                    Orbital Energies (a.u.)
 --------------------------------------------------------------

 Alpha MOs
 -- Occupied --
-88.895 -88.876 -10.231 -10.229 -10.204  -7.957  -7.938  -5.922
 -5.918  -5.912  -5.903  -5.899  -5.892  -0.831  -0.783  -0.716
 -0.639  -0.566  -0.479  -0.461  -0.443  -0.423  -0.391  -0.389
 -0.348  -0.337  -0.313  -0.240  -0.227

 Beta MOs
 -- Occupied --
-88.895 -88.876 -10.231 -10.229 -10.204  -7.957  -7.938  -5.922
 -5.918  -5.912  -5.903  -5.899  -5.892  -0.831  -0.783  -0.716
 -0.639  -0.566  -0.479  -0.461  -0.443  -0.423  -0.391  -0.389
 -0.348  -0.337  -0.313  -0.240  -0.227

          Ground-State Mulliken Net Atomic Charges

     Atom                 Charge (a.u.)    Spin (a.u.)
  --------------------------------------------------------
      1 S                    -0.035741      -0.000000
      2 S                     0.029350      -0.000000
      3 C                    -0.042627      -0.000000
      4 C                    -0.358520      -0.000000
      5 C                    -0.235902       0.000000
      6 H                    -0.006325       0.000000
      7 H                     0.115387      -0.000000
      8 H                     0.137401      -0.000000
      9 H                     0.146993       0.000000
     10 H                     0.128497      -0.000000
     11 H                     0.063146       0.000000
     12 H                     0.051875      -0.000000
     13 H                     0.006464      -0.000000
  --------------------------------------------------------
  Sum of atomic charges =    -0.000000

                    Cartesian Multipole Moments
 -----------------------------------------------------------------
    Charge (ESU x 10^10)
                 0.0000
    Dipole Moment (Debye)
         X       0.3781      Y      -2.1317      Z      -1.3710
       Tot       2.5625
    Quadrupole Moments (Debye-Ang)
        XX     -42.1593     XY       1.7687     YY     -43.9698
        XZ      -2.3652     YZ       0.1524     ZZ     -51.7508

 Final energy is   -915.467385374617
 **  OPTIMIZATION CONVERGED  **
 Total job time:  26.42s(wall), 298.37s(cpu)
        *  Thank you very much for using Q-Chem.  Have a nice day.  *
