 Q-Chem 5.1, Q-Chem, Inc., Pleasanton, CA (2018)
 Q-Chem 5.1.1 for Intel X86 EM64T Linux

User input:
--------------------------------------------------------------

$comment
potential surface scanner
$end

$rem
JOBTYPE  PES_SCAN
UNRESTRICTED TRUE
SYM_IGNORE  TRUE
GEOM_OPT_MAX_CYCLES 400
SCF_MAX_CYCLES 400
METHOD   B3LYP
BASIS   6-31G**
PDB_PRINT 2
SCF_CONVERGENCE 6
THRESH 14
SCF_PRINT 1
$end
$molecule
0 1
S 2.772974 0.467668 0.005792
S -2.815876 0.385061 -0.080671
C 0.017795 0.259672 0.001004
C 1.275021 -0.615345 -0.009382
C -1.256687 -0.587105 0.005591
H 0.028850 0.904816 0.887713
H 0.013245 0.919674 -0.872741
H 1.298567 -1.266321 0.869497
H 1.298077 -1.241764 -0.905929
H -1.293420 -1.250318 0.874640
H -1.302714 -1.221664 -0.887131
H 3.685790 -0.524048 0.005244
H -2.613421 1.193274 1.285273
$end
$scan
stre 2 13 1.700000 1.701000 0.100000
$end
--------------------------------------------------------------

    9    -915.5037555268      3.15e-07  Convergence criterion met
 Total energy in the final basis set =     -915.5037555268
    9    -915.4906857996      4.56e-07  Convergence criterion met
 Total energy in the final basis set =     -915.4906857996
    9    -915.4903119666      4.60e-07  Convergence criterion met
 Total energy in the final basis set =     -915.4903119666

             Standard Nuclear Orientation (Angstroms)
    I     Atom           X                Y                Z
 ----------------------------------------------------------------
    1      S       2.7713840947     0.4703582115     0.0081563100
    2      S      -2.8163087096     0.3715072963    -0.1039701673
    3      C       0.0170307454     0.2555219454    -0.0060742042
    4      C       1.2763433467    -0.6165689708    -0.0097615764
    5      C      -1.2556187355    -0.5935701794    -0.0037020908
    6      H       0.0218631550     0.9027607717     0.8790760699
    7      H       0.0141165359     0.9132679929    -0.8815078892
    8      H       1.2982667706    -1.2654177058     0.8707269192
    9      H       1.3043433362    -1.2450605311    -0.9047383289
   10      H      -1.2955372709    -1.2546896457     0.8666464681
   11      H      -1.2974214111    -1.2306931943    -0.8956398886
   12      H       3.6868044981    -0.5189685588     0.0129969966
   13      H      -2.6170653556     1.2351525682     1.3466913818
 ----------------------------------------------------------------

    9    -915.4903124141      4.60e-07  Convergence criterion met
 Total energy in the final basis set =     -915.4903124141

                    Orbital Energies (a.u.)
 --------------------------------------------------------------

 Alpha MOs
 -- Occupied --
-88.896 -88.878 -10.231 -10.229 -10.205  -7.954  -7.941  -5.920
 -5.916  -5.908  -5.905  -5.902  -5.895  -0.828  -0.775  -0.703
 -0.624  -0.598  -0.494  -0.455  -0.432  -0.415  -0.385  -0.365
 -0.355  -0.333  -0.323  -0.242  -0.240

 Beta MOs
 -- Occupied --
-88.896 -88.878 -10.231 -10.229 -10.205  -7.954  -7.941  -5.920
 -5.916  -5.908  -5.905  -5.902  -5.895  -0.828  -0.775  -0.703
 -0.624  -0.598  -0.494  -0.455  -0.432  -0.415  -0.385  -0.365
 -0.355  -0.333  -0.323  -0.242  -0.240

          Ground-State Mulliken Net Atomic Charges

     Atom                 Charge (a.u.)    Spin (a.u.)
  --------------------------------------------------------
      1 S                    -0.042086       0.000000
      2 S                    -0.039621       0.000000
      3 C                    -0.171160      -0.000000
      4 C                    -0.330351       0.000000
      5 C                    -0.341539       0.000000
      6 H                     0.121269       0.000000
      7 H                     0.135758      -0.000000
      8 H                     0.135895       0.000000
      9 H                     0.136859       0.000000
     10 H                     0.143192      -0.000000
     11 H                     0.142386      -0.000000
     12 H                     0.057400      -0.000000
     13 H                     0.051999       0.000000
  --------------------------------------------------------
  Sum of atomic charges =    -0.000000

                    Cartesian Multipole Moments
 -----------------------------------------------------------------
    Charge (ESU x 10^10)
                 0.0000
    Dipole Moment (Debye)
         X       0.7188      Y      -1.9797      Z       0.5572
       Tot       2.1786
    Quadrupole Moments (Debye-Ang)
        XX     -53.7434     XY      -4.2091     YY     -46.6162
        XZ      -1.4249     YZ       1.8165     ZZ     -47.0491

 Final energy is   -915.490312414101
 **  OPTIMIZATION CONVERGED  **
 Total job time:  16.15s(wall), 181.77s(cpu)
        *  Thank you very much for using Q-Chem.  Have a nice day.  *
