 Q-Chem 5.1, Q-Chem, Inc., Pleasanton, CA (2018)
 Q-Chem 5.1.1 for Intel X86 EM64T Linux

User input:
--------------------------------------------------------------

$comment
potential surface scanner
$end

$rem
JOBTYPE  PES_SCAN
UNRESTRICTED TRUE
SYM_IGNORE  TRUE
GEOM_OPT_MAX_CYCLES 400
SCF_MAX_CYCLES 400
METHOD   B3LYP
BASIS   6-31G**
PDB_PRINT 2
SCF_CONVERGENCE 6
THRESH 14
SCF_PRINT 1
$end
$molecule
0 3
S 2.670353 0.511339 0.405638
S -2.891976 -0.029198 0.055476
C -0.057738 0.137361 0.160720
C 1.267737 -0.603344 -0.043108
C -1.248173 -0.765671 -0.180355
H -0.143902 0.476034 1.198366
H -0.086066 1.033627 -0.467242
H 1.304604 -1.496572 0.587913
H 1.377026 -0.912482 -1.087059
H -1.242598 -1.676594 0.435689
H -1.202912 -1.116912 -1.220051
H 3.659683 -0.361570 0.131164
H -2.297838 2.227582 1.201752
$end
$scan
stre 2 13 2.500000 2.501000 0.100000
$end
--------------------------------------------------------------

   10    -915.3830612855      8.77e-07  Convergence criterion met
 Total energy in the final basis set =     -915.3830612855
   10    -915.3828848494      8.29e-07  Convergence criterion met
 Total energy in the final basis set =     -915.3828848494
   10    -915.3829178316      8.21e-07  Convergence criterion met
 Total energy in the final basis set =     -915.3829178316
   10    -915.3829350519      8.13e-07  Convergence criterion met
 Total energy in the final basis set =     -915.3829350519
   10    -915.3829390995      8.14e-07  Convergence criterion met
 Total energy in the final basis set =     -915.3829390995
   10    -915.3829417504      8.19e-07  Convergence criterion met
 Total energy in the final basis set =     -915.3829417504
   10    -915.3829432935      8.24e-07  Convergence criterion met
 Total energy in the final basis set =     -915.3829432935
   10    -915.3829453819      8.32e-07  Convergence criterion met
 Total energy in the final basis set =     -915.3829453819
   10    -915.3829473329      8.35e-07  Convergence criterion met
 Total energy in the final basis set =     -915.3829473329
   10    -915.3829485475      8.31e-07  Convergence criterion met
 Total energy in the final basis set =     -915.3829485475

             Standard Nuclear Orientation (Angstroms)
    I     Atom           X                Y                Z
 ----------------------------------------------------------------
    1      S       2.6722159679     0.5088011733     0.4073489862
    2      S      -2.8937739113    -0.0167962607     0.0694074921
    3      C      -0.0575006688     0.1434919614     0.1712985407
    4      C       1.2650635950    -0.5994071450    -0.0429438154
    5      C      -1.2512390892    -0.7545296193    -0.1709334029
    6      H      -0.1380901553     0.4757201278     1.2112264531
    7      H      -0.0865544641     1.0438740799    -0.4506040244
    8      H       1.3022918766    -1.4968263750     0.5821329236
    9      H       1.3694219629    -0.9020691987    -1.0893103008
   10      H      -1.2465123653    -1.6691113924     0.4395789444
   11      H      -1.2096838355    -1.0999339358    -1.2128662834
   12      H       3.6577376271    -0.3659313582     0.1251541249
   13      H      -2.2751765399     2.1563179428     1.1394133620
 ----------------------------------------------------------------

   10    -915.3829488758      8.25e-07  Convergence criterion met
 Total energy in the final basis set =     -915.3829488758

                    Orbital Energies (a.u.)
 --------------------------------------------------------------

 Alpha MOs
 -- Occupied --
-88.909 -88.880 -10.241 -10.231 -10.208  -7.969  -7.942  -5.940
 -5.930  -5.923  -5.907  -5.904  -5.897  -0.836  -0.786  -0.713
 -0.632  -0.604  -0.499  -0.459  -0.438  -0.422  -0.391  -0.365
 -0.358  -0.334  -0.302  -0.297  -0.242  -0.220

 Beta MOs
 -- Occupied --
-88.903 -88.880 -10.241 -10.231 -10.208  -7.963  -7.942  -5.927
 -5.921  -5.917  -5.907  -5.904  -5.897  -0.832  -0.777  -0.700
 -0.618  -0.596  -0.495  -0.458  -0.431  -0.416  -0.389  -0.362
 -0.348  -0.334  -0.250  -0.242

          Ground-State Mulliken Net Atomic Charges

     Atom                 Charge (a.u.)    Spin (a.u.)
  --------------------------------------------------------
      1 S                    -0.035316       0.001014
      2 S                     0.073428       1.055353
      3 C                    -0.170496       0.008761
      4 C                    -0.332850      -0.001170
      5 C                    -0.372154      -0.031845
      6 H                     0.138417      -0.001087
      7 H                     0.135146      -0.000028
      8 H                     0.135495       0.000348
      9 H                     0.135884       0.000579
     10 H                     0.157176       0.032435
     11 H                     0.155991       0.026703
     12 H                     0.057394      -0.000022
     13 H                    -0.078113       0.908959
  --------------------------------------------------------
  Sum of atomic charges =     0.000000

                    Cartesian Multipole Moments
 -----------------------------------------------------------------
    Charge (ESU x 10^10)
                -0.0000
    Dipole Moment (Debye)
         X       0.9337      Y      -2.8973      Z      -1.1206
       Tot       3.2437
    Quadrupole Moments (Debye-Ang)
        XX     -52.4857     XY      -1.7743     YY     -49.1264
        XZ      -0.4820     YZ      -1.6582     ZZ     -48.0522

 Final energy is   -915.382948875805
 **  OPTIMIZATION CONVERGED  **
 Total job time:  50.72s(wall), 526.72s(cpu)
        *  Thank you very much for using Q-Chem.  Have a nice day.  *
