 Q-Chem 5.1, Q-Chem, Inc., Pleasanton, CA (2018)
 Q-Chem 5.1.1 for Intel X86 EM64T Linux

User input:
--------------------------------------------------------------

$comment
potential surface scanner
$end

$rem
JOBTYPE  PES_SCAN
UNRESTRICTED TRUE
SYM_IGNORE  TRUE
GEOM_OPT_MAX_CYCLES 400
SCF_MAX_CYCLES 400
METHOD   B3LYP
BASIS   6-31G**
PDB_PRINT 2
SCF_CONVERGENCE 6
THRESH 14
SCF_PRINT 1
$end
$molecule
0 3
S 2.623321 0.615553 0.178662
S -2.899655 0.022996 -0.475303
C -0.088121 0.187617 -0.152100
C 1.220684 -0.580389 0.056001
C -1.272441 -0.771054 -0.318872
H -0.274814 0.855409 0.695669
H -0.006374 0.821408 -1.042283
H 1.173447 -1.171815 0.975251
H 1.402899 -1.258606 -0.783117
H -1.368835 -1.430696 0.557272
H -1.129838 -1.437273 -1.178151
H 3.597868 -0.298952 0.351825
H -1.869939 1.869401 2.314047
$end
$scan
stre 2 13 3.400000 3.401000 0.100000
$end
--------------------------------------------------------------

   13    -915.3821055163      9.81e-07  Convergence criterion met
 Total energy in the final basis set =     -915.3821055163
   14    -915.3820591884      6.22e-07  Convergence criterion met
 Total energy in the final basis set =     -915.3820591884
   14    -915.3820697210      6.23e-07  Convergence criterion met
 Total energy in the final basis set =     -915.3820697210
   14    -915.3820884722      6.15e-07  Convergence criterion met
 Total energy in the final basis set =     -915.3820884722
   14    -915.3820903705      6.13e-07  Convergence criterion met
 Total energy in the final basis set =     -915.3820903705
   14    -915.3820943022      6.09e-07  Convergence criterion met
 Total energy in the final basis set =     -915.3820943022
   14    -915.3820956144      6.11e-07  Convergence criterion met
 Total energy in the final basis set =     -915.3820956144
   14    -915.3820990471      6.22e-07  Convergence criterion met
   10    -915.3824608810      9.01e-07  Convergence criterion met
 Total energy in the final basis set =     -915.3824608810
   10    -915.3824654136      8.93e-07  Convergence criterion met
 Total energy in the final basis set =     -915.3824654136
   10    -915.3824688834      8.36e-07  Convergence criterion met
 Total energy in the final basis set =     -915.3824688834
   10    -915.3824726888      7.60e-07  Convergence criterion met
 Total energy in the final basis set =     -915.3824726888
   10    -915.3824755796      7.30e-07  Convergence criterion met
 Total energy in the final basis set =     -915.3824755796
   10    -915.3824772126      7.53e-07  Convergence criterion met
 Total energy in the final basis set =     -915.3824772126

             Standard Nuclear Orientation (Angstroms)
    I     Atom           X                Y                Z
 ----------------------------------------------------------------
    1      S       2.6085631915     0.5712089433     0.4132072329
    2      S      -2.9157005261    -0.1664119413    -0.0834972050
    3      C      -0.0959036640     0.0881136557     0.0991023451
    4      C       1.2610204083    -0.6089856276    -0.0385110253
    5      C      -1.2450825176    -0.8646097190    -0.2451716937
    6      H      -0.2255964461     0.4586345072     1.1216290278
    7      H      -0.1343692451     0.9610986733    -0.5610175286
    8      H       1.3109908539    -1.4782565094     0.6241094329
    9      H       1.4143047864    -0.9490284819    -1.0672502013
   10      H      -1.2306322130    -1.7518290078     0.4045279682
   11      H      -1.1547954186    -1.2518165955    -1.2687192011
   12      H       3.6375864768    -0.2704505881     0.1923230363
   13      H      -2.1221836863     2.6859316913     1.5881688118
 ----------------------------------------------------------------

   10    -915.3824778895      7.93e-07  Convergence criterion met
 Total energy in the final basis set =     -915.3824778895

                    Orbital Energies (a.u.)
 --------------------------------------------------------------

 Alpha MOs
 -- Occupied --
-88.897 -88.879 -10.236 -10.230 -10.206  -7.957  -7.941  -5.928
 -5.919  -5.910  -5.906  -5.903  -5.896  -0.832  -0.781  -0.708
 -0.627  -0.601  -0.496  -0.456  -0.434  -0.417  -0.388  -0.363
 -0.350  -0.333  -0.304  -0.288  -0.247  -0.241

 Beta MOs
 -- Occupied --
-88.891 -88.879 -10.236 -10.230 -10.206  -7.952  -7.941  -5.915
 -5.910  -5.906  -5.906  -5.903  -5.896  -0.829  -0.773  -0.697
 -0.615  -0.592  -0.493  -0.456  -0.427  -0.413  -0.387  -0.360
 -0.343  -0.332  -0.242  -0.236

          Ground-State Mulliken Net Atomic Charges

     Atom                 Charge (a.u.)    Spin (a.u.)
  --------------------------------------------------------
      1 S                    -0.038841       0.000732
      2 S                     0.016298       0.985069
      3 C                    -0.169147       0.004566
      4 C                    -0.332052      -0.000499
      5 C                    -0.368233      -0.030090
      6 H                     0.132850      -0.001778
      7 H                     0.131115       0.000303
      8 H                     0.135519       0.000160
      9 H                     0.135985       0.000366
     10 H                     0.153836       0.031657
     11 H                     0.152625       0.024630
     12 H                     0.057384      -0.000091
     13 H                    -0.007340       0.984976
  --------------------------------------------------------
  Sum of atomic charges =    -0.000000

                    Cartesian Multipole Moments
 -----------------------------------------------------------------
    Charge (ESU x 10^10)
                -0.0000
    Dipole Moment (Debye)
         X       1.0590      Y      -2.2577      Z      -0.7101
       Tot       2.5928
    Quadrupole Moments (Debye-Ang)
        XX     -52.8915     XY      -3.4792     YY     -47.7931
        XZ      -1.2964     YZ      -0.8956     ZZ     -47.7274

 Final energy is   -915.382477889454
 **  OPTIMIZATION CONVERGED  **
 Total job time:  155.18s(wall), 1792.34s(cpu)
        *  Thank you very much for using Q-Chem.  Have a nice day.  *
