 Q-Chem 5.1, Q-Chem, Inc., Pleasanton, CA (2018)
 Q-Chem 5.1.1 for Intel X86 EM64T Linux

User input:
--------------------------------------------------------------

$comment
potential surface scanner
$end

$rem
JOBTYPE  PES_SCAN
UNRESTRICTED TRUE
SYM_IGNORE  TRUE
GEOM_OPT_MAX_CYCLES 400
SCF_MAX_CYCLES 400
METHOD   B3LYP
BASIS   6-31G**
PDB_PRINT 2
SCF_CONVERGENCE 6
THRESH 14
SCF_PRINT 1
$end
$molecule
0 3
S 2.674912 0.505130 0.408698
S -2.895425 -0.004223 0.081642
C -0.056768 0.150978 0.180706
C 1.262324 -0.595646 -0.042524
C -1.253841 -0.742388 -0.161665
H -0.131863 0.478762 1.222361
H -0.085472 1.054219 -0.436830
H 1.298760 -1.496694 0.577393
H 1.361726 -0.892859 -1.090952
H -1.249913 -1.660019 0.444189
H -1.215714 -1.083415 -1.205312
H 3.656186 -0.371982 0.119152
H -2.256712 2.081739 1.082045
$end
$scan
stre 2 13 2.300000 2.301000 0.100000
$end
--------------------------------------------------------------

   10    -915.3826643143      7.80e-07  Convergence criterion met
 Total energy in the final basis set =     -915.3826643143
   10    -915.3821176687      7.40e-07  Convergence criterion met
 Total energy in the final basis set =     -915.3821176687
   10    -915.3821078577      7.37e-07  Convergence criterion met
 Total energy in the final basis set =     -915.3821078577
   10    -915.3821115399      7.37e-07  Convergence criterion met
 Total energy in the final basis set =     -915.3821115399

             Standard Nuclear Orientation (Angstroms)
    I     Atom           X                Y                Z
 ----------------------------------------------------------------
    1      S       2.6793691566     0.5003374107     0.4080892231
    2      S      -2.8965072211     0.0082043225     0.0909000151
    3      C      -0.0548457071     0.1609944507     0.1864975145
    4      C       1.2596339931    -0.5918765539    -0.0412496532
    5      C      -1.2553408310    -0.7288710371    -0.1549200227
    6      H      -0.1271881605     0.4884921434     1.2283794386
    7      H      -0.0819735843     1.0655052711    -0.4290569032
    8      H       1.2929014937    -1.4942564691     0.5769339363
    9      H       1.3547598186    -0.8878145226    -1.0904639427
   10      H      -1.2527281412    -1.6466595259     0.4506706320
   11      H      -1.2200136355    -1.0685620468    -1.1990181915
   12      H       3.6546402015    -0.3819265444     0.1138726999
   13      H      -2.2445073827     2.0000351014     1.0382682537
 ----------------------------------------------------------------

   10    -915.3821121189      7.39e-07  Convergence criterion met
 Total energy in the final basis set =     -915.3821121189

                    Orbital Energies (a.u.)
 --------------------------------------------------------------

 Alpha MOs
 -- Occupied --
-88.913 -88.880 -10.243 -10.232 -10.208  -7.973  -7.943  -5.944
 -5.934  -5.928  -5.908  -5.904  -5.897  -0.838  -0.788  -0.715
 -0.634  -0.605  -0.500  -0.460  -0.439  -0.423  -0.392  -0.365
 -0.361  -0.334  -0.308  -0.301  -0.243  -0.202

 Beta MOs
 -- Occupied --
-88.907 -88.880 -10.243 -10.232 -10.208  -7.967  -7.943  -5.930
 -5.925  -5.921  -5.908  -5.904  -5.897  -0.833  -0.778  -0.701
 -0.618  -0.598  -0.496  -0.458  -0.432  -0.417  -0.390  -0.362
 -0.350  -0.334  -0.258  -0.243

          Ground-State Mulliken Net Atomic Charges

     Atom                 Charge (a.u.)    Spin (a.u.)
  --------------------------------------------------------
      1 S                    -0.034183       0.001206
      2 S                     0.099790       1.085797
      3 C                    -0.171130       0.011852
      4 C                    -0.333049      -0.001335
      5 C                    -0.372661      -0.033926
      6 H                     0.140319      -0.000815
      7 H                     0.136882      -0.000034
      8 H                     0.135353       0.000465
      9 H                     0.135699       0.000733
     10 H                     0.158406       0.032357
     11 H                     0.157361       0.027360
     12 H                     0.057269       0.000029
     13 H                    -0.110057       0.876311
  --------------------------------------------------------
  Sum of atomic charges =     0.000000

                    Cartesian Multipole Moments
 -----------------------------------------------------------------
    Charge (ESU x 10^10)
                 0.0000
    Dipole Moment (Debye)
         X       0.8686      Y      -3.0759      Z      -1.2097
       Tot       3.4175
    Quadrupole Moments (Debye-Ang)
        XX     -52.1828     XY      -1.3756     YY     -49.5304
        XZ      -0.3315     YZ      -1.8349     ZZ     -48.0748

 Final energy is   -915.382112118864
 **  OPTIMIZATION CONVERGED  **
 Total job time:  21.20s(wall), 238.33s(cpu)
        *  Thank you very much for using Q-Chem.  Have a nice day.  *
