 Q-Chem 5.1, Q-Chem, Inc., Pleasanton, CA (2018)
 Q-Chem 5.1.1 for Intel X86 EM64T Linux

User input:
--------------------------------------------------------------

$comment
potential surface scanner
$end

$rem
JOBTYPE  PES_SCAN
UNRESTRICTED TRUE
SYM_IGNORE  TRUE
GEOM_OPT_MAX_CYCLES 400
SCF_MAX_CYCLES 400
METHOD   B3LYP
BASIS   6-31G**
PDB_PRINT 2
SCF_CONVERGENCE 6
THRESH 14
SCF_PRINT 1
$end
$molecule
0 1
S 2.781313 0.457184 -0.011460
S -2.807436 0.429923 -0.036376
C 0.024306 0.272048 0.006140
C 1.274292 -0.613355 -0.002570
C -1.257236 -0.564806 0.017180
H 0.045110 0.923056 0.888276
H 0.022993 0.926582 -0.871780
H 1.298721 -1.253444 0.884259
H 1.285812 -1.251123 -0.891292
H -1.292256 -1.230437 0.884655
H -1.316065 -1.195333 -0.876096
H 3.685823 -0.542051 -0.011475
H -2.637176 1.065355 1.199439
$end
$scan
stre 2 13 1.500000 1.501000 0.100000
$end
--------------------------------------------------------------

    9    -915.5222223942      2.69e-07  Convergence criterion met
 Total energy in the final basis set =     -915.5222223942
    9    -915.5152617828      3.22e-07  Convergence criterion met
 Total energy in the final basis set =     -915.5152617828
    9    -915.5150625306      3.25e-07  Convergence criterion met
 Total energy in the final basis set =     -915.5150625306

             Standard Nuclear Orientation (Angstroms)
    I     Atom           X                Y                Z
 ----------------------------------------------------------------
    1      S       2.7803915756     0.4591658496    -0.0087516059
    2      S      -2.8096562413     0.4152997962    -0.0604763001
    3      C       0.0236529670     0.2687352807    -0.0006798388
    4      C       1.2754273190    -0.6141972358    -0.0033610309
    5      C      -1.2558850354    -0.5707551615     0.0083637615
    6      H       0.0392073981     0.9217223640     0.8800753579
    7      H       0.0237353698     0.9211892032    -0.8801226214
    8      H       1.2978548346    -1.2528583863     0.8845438113
    9      H       1.2914814595    -1.2534232201    -0.8909991446
   10      H      -1.2929792600    -1.2348187756     0.8767974439
   11      H      -1.3101118611    -1.2036392018    -0.8842577073
   12      H       3.6867356264    -0.5384115381    -0.0028437290
   13      H      -2.6416531522     1.1055900255     1.2606116035
 ----------------------------------------------------------------

    9    -915.5150633314      3.25e-07  Convergence criterion met
 Total energy in the final basis set =     -915.5150633314

                    Orbital Energies (a.u.)
 --------------------------------------------------------------

 Alpha MOs
 -- Occupied --
-88.887 -88.878 -10.230 -10.228 -10.205  -7.947  -7.940  -5.912
 -5.909  -5.905  -5.902  -5.901  -5.895  -0.828  -0.776  -0.706
 -0.629  -0.599  -0.494  -0.455  -0.435  -0.416  -0.385  -0.373
 -0.356  -0.333  -0.325  -0.242  -0.240

 Beta MOs
 -- Occupied --
-88.887 -88.878 -10.230 -10.228 -10.205  -7.947  -7.940  -5.912
 -5.909  -5.905  -5.902  -5.901  -5.895  -0.828  -0.776  -0.706
 -0.629  -0.599  -0.494  -0.455  -0.435  -0.416  -0.385  -0.373
 -0.356  -0.333  -0.325  -0.242  -0.240

          Ground-State Mulliken Net Atomic Charges

     Atom                 Charge (a.u.)    Spin (a.u.)
  --------------------------------------------------------
      1 S                    -0.042473      -0.000000
      2 S                    -0.040422      -0.000000
      3 C                    -0.171739      -0.000000
      4 C                    -0.330227       0.000000
      5 C                    -0.342021      -0.000000
      6 H                     0.119909      -0.000000
      7 H                     0.135644      -0.000000
      8 H                     0.135625       0.000000
      9 H                     0.136941      -0.000000
     10 H                     0.140905       0.000000
     11 H                     0.142237       0.000000
     12 H                     0.057331       0.000000
     13 H                     0.058290       0.000000
  --------------------------------------------------------
  Sum of atomic charges =     0.000000

                    Cartesian Multipole Moments
 -----------------------------------------------------------------
    Charge (ESU x 10^10)
                 0.0000
    Dipole Moment (Debye)
         X       0.6720      Y      -1.9284      Z       0.7126
       Tot       2.1629
    Quadrupole Moments (Debye-Ang)
        XX     -53.6853     XY      -4.3518     YY     -46.5861
        XZ      -1.8724     YZ       1.7980     ZZ     -46.8056

 Final energy is   -915.515063331407
 **  OPTIMIZATION CONVERGED  **
 Total job time:  16.20s(wall), 180.65s(cpu)
        *  Thank you very much for using Q-Chem.  Have a nice day.  *
