 Q-Chem 5.1, Q-Chem, Inc., Pleasanton, CA (2018)
 Q-Chem 5.1.1 for Intel X86 EM64T Linux

User input:
--------------------------------------------------------------

$comment
potential surface scanner
$end

$rem
JOBTYPE  PES_SCAN
UNRESTRICTED TRUE
SYM_IGNORE  TRUE
GEOM_OPT_MAX_CYCLES 400
SCF_MAX_CYCLES 400
METHOD   B3LYP
BASIS   6-31G**
PDB_PRINT 2
SCF_CONVERGENCE 6
THRESH 14
SCF_PRINT 1
$end
$molecule
0 1
S 2.701380 0.538987 0.053385
S -2.845976 0.125735 -0.358464
C -0.031885 0.188923 -0.103801
C 1.264779 -0.621165 -0.013173
C -1.261326 -0.724007 -0.157730
H -0.125174 0.846914 0.768675
H -0.015651 0.832879 -0.989193
H 1.266852 -1.241001 0.888079
H 1.372936 -1.274435 -0.884240
H -1.306138 -1.398688 0.703295
H -1.209479 -1.363922 -1.056284
H 3.656274 -0.400219 0.201702
H -2.358388 1.913601 2.126650
$end
$scan
stre 2 13 3.200000 3.201000 0.100000
$end
--------------------------------------------------------------

   13    -915.3482623310      2.92e-07  Convergence criterion met
 Total energy in the final basis set =     -915.3482623310
   12    -915.3433576408      6.57e-07  Convergence criterion met
 Total energy in the final basis set =     -915.3433576408
   12    -915.3432863792      6.69e-07  Convergence criterion met
 Total energy in the final basis set =     -915.3432863792
   12    -915.3433067860      6.66e-07  Convergence criterion met
 Total energy in the final basis set =     -915.3433067860
   12    -915.3433087813      6.64e-07  Convergence criterion met
 Total energy in the final basis set =     -915.3433087813
   12    -915.3433168550      6.52e-07  Convergence criterion met
 Total energy in the final basis set =     -915.3433168550
   12    -915.3433181291      6.49e-07  Convergence criterion met
 Total energy in the final basis set =     -915.3433181291
   12    -915.3433211261      6.43e-07  Convergence criterion met
   12    -915.3433495449      5.35e-07  Convergence criterion met
 Total energy in the final basis set =     -915.3433495449
   12    -915.3433523872      5.09e-07  Convergence criterion met
 Total energy in the final basis set =     -915.3433523872
   12    -915.3433552792      4.90e-07  Convergence criterion met
 Total energy in the final basis set =     -915.3433552792
   12    -915.3433579268      4.80e-07  Convergence criterion met
 Total energy in the final basis set =     -915.3433579268
   12    -915.3433598781      4.77e-07  Convergence criterion met
 Total energy in the final basis set =     -915.3433598781
   12    -915.3433609587      4.77e-07  Convergence criterion met
 Total energy in the final basis set =     -915.3433609587

             Standard Nuclear Orientation (Angstroms)
    I     Atom           X                Y                Z
 ----------------------------------------------------------------
    1      S       2.6610179029     0.5757204599     0.0747155857
    2      S      -2.8705464284     0.0736461659    -0.3645746533
    3      C      -0.0643138497     0.1749367080    -0.0897061929
    4      C       1.2462962518    -0.6112249634     0.0008905709
    5      C      -1.2773474699    -0.7596559394    -0.1856290917
    6      H      -0.1933727595     0.8075237632     0.7990869500
    7      H      -0.0483346166     0.8448090865    -0.9559813428
    8      H       1.2583130405    -1.2341160757     0.8999149633
    9      H       1.3684481931    -1.2590421213    -0.8721900105
   10      H      -1.3130957149    -1.4650907063     0.6502657243
   11      H      -1.2006603144    -1.3600809826    -1.1095866679
   12      H       3.6295146669    -0.3448868824     0.2490402461
   13      H      -2.0877149018     1.9810634877     2.0826549189
 ----------------------------------------------------------------

   12    -915.3433616067      4.77e-07  Convergence criterion met
 Total energy in the final basis set =     -915.3433616067

                    Orbital Energies (a.u.)
 --------------------------------------------------------------

 Alpha MOs
 -- Occupied --
-88.910 -88.881 -10.239 -10.232 -10.211  -7.967  -7.943  -5.933
 -5.930  -5.920  -5.908  -5.905  -5.898  -0.834  -0.781  -0.706
 -0.623  -0.599  -0.497  -0.458  -0.434  -0.418  -0.388  -0.363
 -0.351  -0.334  -0.262  -0.246  -0.243

 Beta MOs
 -- Occupied --
-88.910 -88.881 -10.239 -10.232 -10.211  -7.967  -7.943  -5.933
 -5.930  -5.920  -5.908  -5.905  -5.898  -0.834  -0.781  -0.706
 -0.623  -0.599  -0.497  -0.458  -0.434  -0.418  -0.388  -0.363
 -0.351  -0.334  -0.262  -0.246  -0.243

          Ground-State Mulliken Net Atomic Charges

     Atom                 Charge (a.u.)    Spin (a.u.)
  --------------------------------------------------------
      1 S                    -0.035808       0.000000
      2 S                    -0.006098       0.000000
      3 C                    -0.172177      -0.000000
      4 C                    -0.332664       0.000000
      5 C                    -0.356079       0.000000
      6 H                     0.129143       0.000000
      7 H                     0.137991       0.000000
      8 H                     0.138620       0.000000
      9 H                     0.136339      -0.000000
     10 H                     0.151236       0.000000
     11 H                     0.157813       0.000000
     12 H                     0.058309       0.000000
     13 H                    -0.006625      -0.000000
  --------------------------------------------------------
  Sum of atomic charges =    -0.000000

                    Cartesian Multipole Moments
 -----------------------------------------------------------------
    Charge (ESU x 10^10)
                 0.0000
    Dipole Moment (Debye)
         X       1.1542      Y      -2.5115      Z      -0.0724
       Tot       2.7649
    Quadrupole Moments (Debye-Ang)
        XX     -53.5689     XY      -2.8100     YY     -47.0894
        XZ       0.9753     YZ       1.1753     ZZ     -47.8907

 Final energy is   -915.343361606741
 **  OPTIMIZATION CONVERGED  **
 Total job time:  115.34s(wall), 1282.55s(cpu)
        *  Thank you very much for using Q-Chem.  Have a nice day.  *
