 Q-Chem 5.1, Q-Chem, Inc., Pleasanton, CA (2018)
 Q-Chem 5.1.1 for Intel X86 EM64T Linux

User input:
--------------------------------------------------------------

$comment
potential surface scanner
$end

$rem
JOBTYPE  PES_SCAN
UNRESTRICTED TRUE
SYM_IGNORE  TRUE
GEOM_OPT_MAX_CYCLES 400
SCF_MAX_CYCLES 400
METHOD   B3LYP
BASIS   6-31G**
PDB_PRINT 2
SCF_CONVERGENCE 6
THRESH 14
SCF_PRINT 1
$end
$molecule
0 1
S 2.430413 -0.043600 1.119208
S -2.529141 -0.226654 -0.350378
C 0.214858 -0.303285 -0.499452
C 1.573246 -0.897441 -0.299099
C -0.914552 -0.958388 -0.211294
H -1.310369 3.093412 1.517440
H 0.177611 0.716762 -0.877501
H 1.506608 -1.967081 -0.085653
H 2.191441 -0.752392 -1.189578
H -0.888304 -1.972182 0.178771
H -3.219776 -1.380839 -0.412323
H 3.684579 -0.427599 0.803338
H -1.808408 2.542889 1.485424
$end
$scan
stre 2 13 3.500000 3.501000 0.100000
$end
--------------------------------------------------------------

    9    -915.4674219275      9.86e-07  Convergence criterion met
 Total energy in the final basis set =     -915.4674219275
    9    -915.4673358247      9.82e-07  Convergence criterion met
 Total energy in the final basis set =     -915.4673358247
    9    -915.4673577223      9.84e-07  Convergence criterion met
 Total energy in the final basis set =     -915.4673577223
    9    -915.4674082198      9.90e-07  Convergence criterion met
 Total energy in the final basis set =     -915.4674082198
    9    -915.4674100106      9.90e-07  Convergence criterion met
 Total energy in the final basis set =     -915.4674100106

             Standard Nuclear Orientation (Angstroms)
    I     Atom           X                Y                Z
 ----------------------------------------------------------------
    1      S       2.4186881741    -0.0392101216     1.1220163510
    2      S      -2.5391065013    -0.2591475333    -0.3648490488
    3      C       0.2076982716    -0.3105988519    -0.5013071591
    4      C       1.5694357700    -0.8965529631    -0.2989505434
    5      C      -0.9179389297    -0.9755633901    -0.2205671690
    6      H      -1.2826991415     3.1431956485     1.5349862209
    7      H       0.1654023401     0.7106992721    -0.8746052619
    8      H       1.5084614227    -1.9666724680    -0.0868373480
    9      H       2.1881122488    -0.7468032982    -1.1884857209
   10      H      -0.8845739094    -1.9907794728     0.1659347846
   11      H      -3.2155909988    -1.4211621257    -0.4325974707
   12      H       3.6749364026    -0.4193002387     0.8097194912
   13      H      -1.7846191491     2.5954975428     1.5144458740
 ----------------------------------------------------------------

    9    -915.4674138198      9.87e-07  Convergence criterion met
 Total energy in the final basis set =     -915.4674138198

                    Orbital Energies (a.u.)
 --------------------------------------------------------------

 Alpha MOs
 -- Occupied --
-88.895 -88.876 -10.231 -10.229 -10.204  -7.957  -7.938  -5.922
 -5.919  -5.912  -5.903  -5.899  -5.892  -0.831  -0.783  -0.716
 -0.639  -0.566  -0.479  -0.461  -0.443  -0.422  -0.391  -0.389
 -0.348  -0.337  -0.313  -0.240  -0.227

 Beta MOs
 -- Occupied --
-88.895 -88.876 -10.231 -10.229 -10.204  -7.957  -7.938  -5.922
 -5.919  -5.912  -5.903  -5.899  -5.892  -0.831  -0.783  -0.716
 -0.639  -0.566  -0.479  -0.461  -0.443  -0.422  -0.391  -0.389
 -0.348  -0.337  -0.313  -0.240  -0.227

          Ground-State Mulliken Net Atomic Charges

     Atom                 Charge (a.u.)    Spin (a.u.)
  --------------------------------------------------------
      1 S                    -0.035601      -0.000000
      2 S                     0.029317       0.000000
      3 C                    -0.042513      -0.000000
      4 C                    -0.358590      -0.000000
      5 C                    -0.235701       0.000000
      6 H                    -0.009234       0.000000
      7 H                     0.115556      -0.000000
      8 H                     0.137542      -0.000000
      9 H                     0.146951       0.000000
     10 H                     0.128574       0.000000
     11 H                     0.062752       0.000000
     12 H                     0.051868      -0.000000
     13 H                     0.009080      -0.000000
  --------------------------------------------------------
  Sum of atomic charges =    -0.000000

                    Cartesian Multipole Moments
 -----------------------------------------------------------------
    Charge (ESU x 10^10)
                 0.0000
    Dipole Moment (Debye)
         X       0.3218      Y      -2.1555      Z      -1.3596
       Tot       2.5687
    Quadrupole Moments (Debye-Ang)
        XX     -42.0609     XY       1.6805     YY     -44.2599
        XZ      -2.5007     YZ       0.0445     ZZ     -51.7229

 Final energy is   -915.467413819820
 **  OPTIMIZATION CONVERGED  **
 Total job time:  22.54s(wall), 256.09s(cpu)
        *  Thank you very much for using Q-Chem.  Have a nice day.  *
