 Q-Chem 5.1, Q-Chem, Inc., Pleasanton, CA (2018)
 Q-Chem 5.1.1 for Intel X86 EM64T Linux

User input:
--------------------------------------------------------------

$comment
potential surface scanner
$end

$rem
JOBTYPE  PES_SCAN
UNRESTRICTED TRUE
SYM_IGNORE  TRUE
GEOM_OPT_MAX_CYCLES 400
SCF_MAX_CYCLES 400
METHOD   B3LYP
BASIS   6-31G**
PDB_PRINT 2
SCF_CONVERGENCE 6
THRESH 14
SCF_PRINT 1
$end
$molecule
0 1
S 2.661018 0.575720 0.074716
S -2.870546 0.073646 -0.364575
C -0.064314 0.174937 -0.089706
C 1.246296 -0.611225 0.000891
C -1.277347 -0.759656 -0.185629
H -0.193373 0.807524 0.799087
H -0.048335 0.844809 -0.955981
H 1.258313 -1.234116 0.899915
H 1.368448 -1.259042 -0.872190
H -1.313096 -1.465091 0.650266
H -1.200660 -1.360081 -1.109587
H 3.629515 -0.344887 0.249040
H -2.087715 1.981063 2.082655
$end
$scan
stre 2 13 3.300000 3.301000 0.100000
$end
--------------------------------------------------------------

   12    -915.3433616064      4.77e-07  Convergence criterion met
 Total energy in the final basis set =     -915.3433616064
   14    -915.3389875121      1.49e-07  Convergence criterion met
 Total energy in the final basis set =     -915.3389875121
   14    -915.3389195956      1.54e-07  Convergence criterion met
 Total energy in the final basis set =     -915.3389195956
   14    -915.3389360023      1.46e-07  Convergence criterion met
 Total energy in the final basis set =     -915.3389360023
   14    -915.3389370165      1.46e-07  Convergence criterion met
 Total energy in the final basis set =     -915.3389370165
   14    -915.3389402225      1.49e-07  Convergence criterion met
 Total energy in the final basis set =     -915.3389402225

             Standard Nuclear Orientation (Angstroms)
    I     Atom           X                Y                Z
 ----------------------------------------------------------------
    1      S       2.6518386510     0.5828564849     0.0844948929
    2      S      -2.8751970305     0.0538990292    -0.3869770020
    3      C      -0.0705918813     0.1704030142    -0.0935817982
    4      C       1.2432408637    -0.6102297936     0.0012766455
    5      C      -1.2799022533    -0.7695832097    -0.1950518981
    6      H      -0.2059176312     0.8029825285     0.7942506332
    7      H      -0.0537080436     0.8395128782    -0.9603747596
    8      H       1.2542241526    -1.2356255167     0.8985292813
    9      H       1.3714416858    -1.2547364698    -0.8734404693
   10      H      -1.3167142037    -1.4749040026     0.6413093408
   11      H      -1.1927728776    -1.3723960735    -1.1167946627
   12      H       3.6238877947    -0.3337248151     0.2603991595
   13      H      -2.0416252265     2.0251469460     2.1248626369
 ----------------------------------------------------------------

   14    -915.3389408365      1.49e-07  Convergence criterion met
 Total energy in the final basis set =     -915.3389408365

                    Orbital Energies (a.u.)
 --------------------------------------------------------------

 Alpha MOs
 -- Occupied --
-88.909 -88.881 -10.240 -10.232 -10.211  -7.967  -7.943  -5.933
 -5.929  -5.920  -5.908  -5.905  -5.898  -0.834  -0.781  -0.706
 -0.623  -0.600  -0.497  -0.458  -0.434  -0.419  -0.388  -0.363
 -0.351  -0.335  -0.260  -0.246  -0.243

 Beta MOs
 -- Occupied --
-88.909 -88.881 -10.240 -10.232 -10.211  -7.967  -7.943  -5.933
 -5.929  -5.920  -5.908  -5.905  -5.898  -0.834  -0.781  -0.706
 -0.623  -0.600  -0.497  -0.458  -0.434  -0.419  -0.388  -0.363
 -0.351  -0.335  -0.260  -0.246  -0.243

          Ground-State Mulliken Net Atomic Charges

     Atom                 Charge (a.u.)    Spin (a.u.)
  --------------------------------------------------------
      1 S                    -0.035199      -0.000000
      2 S                    -0.005169      -0.000000
      3 C                    -0.172613      -0.000000
      4 C                    -0.332767      -0.000000
      5 C                    -0.356702      -0.000000
      6 H                     0.129161      -0.000000
      7 H                     0.138207       0.000000
      8 H                     0.138729      -0.000000
      9 H                     0.136355       0.000000
     10 H                     0.151406      -0.000000
     11 H                     0.158736      -0.000000
     12 H                     0.058379      -0.000000
     13 H                    -0.008524       0.000000
  --------------------------------------------------------
  Sum of atomic charges =    -0.000000

                    Cartesian Multipole Moments
 -----------------------------------------------------------------
    Charge (ESU x 10^10)
                -0.0000
    Dipole Moment (Debye)
         X       1.1796      Y      -2.5267      Z      -0.0879
       Tot       2.7898
    Quadrupole Moments (Debye-Ang)
        XX     -53.5372     XY      -2.8076     YY     -47.1348
        XZ       0.9408     YZ       1.1136     ZZ     -47.9638

 Final energy is   -915.338940836465
 **  OPTIMIZATION CONVERGED  **
 Total job time:  38.57s(wall), 411.28s(cpu)
        *  Thank you very much for using Q-Chem.  Have a nice day.  *
