 Q-Chem 5.1, Q-Chem, Inc., Pleasanton, CA (2018)
 Q-Chem 5.1.1 for Intel X86 EM64T Linux

User input:
--------------------------------------------------------------

$comment
potential surface scanner
$end

$rem
JOBTYPE  PES_SCAN
UNRESTRICTED TRUE
SYM_IGNORE  TRUE
GEOM_OPT_MAX_CYCLES 400
SCF_MAX_CYCLES 400
METHOD   B3LYP
BASIS   6-31G**
PDB_PRINT 2
SCF_CONVERGENCE 6
THRESH 14
SCF_PRINT 1
$end
$molecule
0 1
S 2.782633 0.454951 -0.015085
S -2.804647 0.443579 -0.013694
C 0.025242 0.275224 0.014505
C 1.273425 -0.612595 -0.001459
C -1.258297 -0.558832 0.027221
H 0.051936 0.923892 0.898254
H 0.022277 0.932187 -0.861611
H 1.300804 -1.254318 0.884079
H 1.279781 -1.248264 -0.891687
H -1.292068 -1.227007 0.892939
H -1.321072 -1.186152 -0.867480
H 3.684941 -0.546211 -0.022851
H -2.636755 1.027145 1.135768
$end
$scan
stre 2 13 1.400000 1.401000 0.100000
$end
--------------------------------------------------------------

    9    -915.5221413678      2.50e-07  Convergence criterion met
 Total energy in the final basis set =     -915.5221413678
    9    -915.5222940414      2.68e-07  Convergence criterion met
 Total energy in the final basis set =     -915.5222940414
    9    -915.5222219556      2.69e-07  Convergence criterion met
 Total energy in the final basis set =     -915.5222219556

             Standard Nuclear Orientation (Angstroms)
    I     Atom           X                Y                Z
 ----------------------------------------------------------------
    1      S       2.7813132959     0.4571838898    -0.0114602474
    2      S      -2.8074364127     0.4299225160    -0.0363756212
    3      C       0.0243055968     0.2720484882     0.0061399695
    4      C       1.2742919035    -0.6133546807    -0.0025700772
    5      C      -1.2572359846    -0.5648059899     0.0171800046
    6      H       0.0451097333     0.9230557793     0.8882755866
    7      H       0.0229933645     0.9265819412    -0.8717799220
    8      H       1.2987210638    -1.2534441242     0.8842592672
    9      H       1.2858115830    -1.2511228801    -0.8912923893
   10      H      -1.2922563757    -1.2304374795     0.8846550096
   11      H      -1.3160651452    -1.1953328162    -0.8760963166
   12      H       3.6858233223    -0.5420505435    -0.0114749017
   13      H      -2.6371759449     1.0653548996     1.1994386378
 ----------------------------------------------------------------

    9    -915.5222224123      2.69e-07  Convergence criterion met
 Total energy in the final basis set =     -915.5222224123

                    Orbital Energies (a.u.)
 --------------------------------------------------------------

 Alpha MOs
 -- Occupied --
-88.882 -88.878 -10.229 -10.228 -10.205  -7.943  -7.940  -5.908
 -5.905  -5.904  -5.902  -5.897  -5.895  -0.828  -0.777  -0.708
 -0.632  -0.600  -0.494  -0.455  -0.438  -0.417  -0.386  -0.376
 -0.356  -0.333  -0.325  -0.242  -0.240

 Beta MOs
 -- Occupied --
-88.882 -88.878 -10.229 -10.228 -10.205  -7.943  -7.940  -5.908
 -5.905  -5.904  -5.902  -5.897  -5.895  -0.828  -0.777  -0.708
 -0.632  -0.600  -0.494  -0.455  -0.438  -0.417  -0.386  -0.376
 -0.356  -0.333  -0.325  -0.242  -0.240

          Ground-State Mulliken Net Atomic Charges

     Atom                 Charge (a.u.)    Spin (a.u.)
  --------------------------------------------------------
      1 S                    -0.042630      -0.000000
      2 S                    -0.039843      -0.000000
      3 C                    -0.172841       0.000000
      4 C                    -0.330114      -0.000000
      5 C                    -0.342246       0.000000
      6 H                     0.119329      -0.000000
      7 H                     0.135896       0.000000
      8 H                     0.135571      -0.000000
      9 H                     0.137082       0.000000
     10 H                     0.139838       0.000000
     11 H                     0.142375      -0.000000
     12 H                     0.057356       0.000000
     13 H                     0.060225      -0.000000
  --------------------------------------------------------
  Sum of atomic charges =     0.000000

                    Cartesian Multipole Moments
 -----------------------------------------------------------------
    Charge (ESU x 10^10)
                 0.0000
    Dipole Moment (Debye)
         X       0.6722      Y      -1.9017      Z       0.7618
       Tot       2.1561
    Quadrupole Moments (Debye-Ang)
        XX     -53.6798     XY      -4.4048     YY     -46.4941
        XZ      -2.0446     YZ       1.8133     ZZ     -46.7459

 Final energy is   -915.522222412347
 **  OPTIMIZATION CONVERGED  **
 Total job time:  17.25s(wall), 183.80s(cpu)
        *  Thank you very much for using Q-Chem.  Have a nice day.  *
