 Q-Chem 5.1, Q-Chem, Inc., Pleasanton, CA (2018)
 Q-Chem 5.1.1 for Intel X86 EM64T Linux

User input:
--------------------------------------------------------------

$comment
potential surface scanner
$end

$rem
JOBTYPE  PES_SCAN
UNRESTRICTED TRUE
SYM_IGNORE  TRUE
GEOM_OPT_MAX_CYCLES 400
SCF_MAX_CYCLES 400
METHOD   B3LYP
BASIS   6-31G**
PDB_PRINT 2
SCF_CONVERGENCE 6
THRESH 14
SCF_PRINT 1
$end
$molecule
0 3
S 2.616666 0.563951 0.413122
S -2.912808 -0.149873 -0.063716
C -0.090883 0.093744 0.107170
C 1.262361 -0.608395 -0.038825
C -1.245642 -0.852974 -0.237883
H -0.216130 0.459374 1.132089
H -0.129408 0.970426 -0.548017
H 1.310646 -1.481025 0.619555
H 1.410456 -0.944092 -1.069678
H -1.231876 -1.743535 0.407081
H -1.161798 -1.234073 -1.264298
H 3.641140 -0.281212 0.184482
H -2.144524 2.631283 1.537818
$end
$scan
stre 2 13 3.200000 3.201000 0.100000
$end
--------------------------------------------------------------

   10    -915.3825524229      8.61e-07  Convergence criterion met
 Total energy in the final basis set =     -915.3825524229
   10    -915.3825844976      8.18e-07  Convergence criterion met
 Total energy in the final basis set =     -915.3825844976
   10    -915.3825970666      8.31e-07  Convergence criterion met
 Total energy in the final basis set =     -915.3825970666
   10    -915.3826312331      9.01e-07  Convergence criterion met
 Total energy in the final basis set =     -915.3826312331
   10    -915.3826328424      9.06e-07  Convergence criterion met
 Total energy in the final basis set =     -915.3826328424

             Standard Nuclear Orientation (Angstroms)
    I     Atom           X                Y                Z
 ----------------------------------------------------------------
    1      S       2.6241149971     0.5570235332     0.4125434428
    2      S      -2.9099596975    -0.1322529508    -0.0459566595
    3      C      -0.0862940106     0.0993614332     0.1149316130
    4      C       1.2634105963    -0.6079292656    -0.0391975012
    5      C      -1.2462604530    -0.8408295803    -0.2304009802
    6      H      -0.2061662253     0.4607764929     1.1419420993
    7      H      -0.1233070578     0.9791431742    -0.5361160870
    8      H       1.3105245902    -1.4834762651     0.6153953818
    9      H       1.4062557732    -0.9399756788    -1.0719779391
   10      H      -1.2338190997    -1.7345683661     0.4102347079
   11      H      -1.1678942601    -1.2172837004    -1.2589399716
   12      H       3.6442519999    -0.2914072637     0.1767588721
   13      H      -2.1666571528     2.5750174375     1.4896830218
 ----------------------------------------------------------------

   10    -915.3826356938      9.17e-07  Convergence criterion met
 Total energy in the final basis set =     -915.3826356938

                    Orbital Energies (a.u.)
 --------------------------------------------------------------

 Alpha MOs
 -- Occupied --
-88.898 -88.879 -10.236 -10.230 -10.206  -7.958  -7.942  -5.929
 -5.920  -5.911  -5.906  -5.903  -5.896  -0.833  -0.782  -0.709
 -0.627  -0.601  -0.496  -0.457  -0.434  -0.418  -0.388  -0.363
 -0.351  -0.333  -0.302  -0.289  -0.246  -0.242

 Beta MOs
 -- Occupied --
-88.892 -88.879 -10.236 -10.230 -10.206  -7.953  -7.942  -5.917
 -5.912  -5.907  -5.906  -5.903  -5.896  -0.829  -0.774  -0.697
 -0.615  -0.592  -0.493  -0.456  -0.428  -0.413  -0.387  -0.360
 -0.343  -0.332  -0.242  -0.238

          Ground-State Mulliken Net Atomic Charges

     Atom                 Charge (a.u.)    Spin (a.u.)
  --------------------------------------------------------
      1 S                    -0.038396       0.000765
      2 S                     0.021617       0.992584
      3 C                    -0.169409       0.005133
      4 C                    -0.332080      -0.000569
      5 C                    -0.368684      -0.030170
      6 H                     0.133608      -0.001763
      7 H                     0.131417       0.000244
      8 H                     0.135536       0.000179
      9 H                     0.136021       0.000402
     10 H                     0.154256       0.032058
     11 H                     0.152917       0.024448
     12 H                     0.057387      -0.000086
     13 H                    -0.014190       0.976774
  --------------------------------------------------------
  Sum of atomic charges =    -0.000000

                    Cartesian Multipole Moments
 -----------------------------------------------------------------
    Charge (ESU x 10^10)
                 0.0000
    Dipole Moment (Debye)
         X       1.0338      Y      -2.3383      Z      -0.7809
       Tot       2.6733
    Quadrupole Moments (Debye-Ang)
        XX     -52.8715     XY      -3.2437     YY     -47.9236
        XZ      -1.1815     YZ      -1.0233     ZZ     -47.8120

 Final energy is   -915.382635693755
 **  OPTIMIZATION CONVERGED  **
 Total job time:  24.92s(wall), 283.70s(cpu)
        *  Thank you very much for using Q-Chem.  Have a nice day.  *
