 Q-Chem 5.1, Q-Chem, Inc., Pleasanton, CA (2018)
 Q-Chem 5.1.1 for Intel X86 EM64T Linux

User input:
--------------------------------------------------------------

$comment
potential surface scanner
$end

$rem
JOBTYPE  PES_SCAN
UNRESTRICTED TRUE
SYM_IGNORE  TRUE
GEOM_OPT_MAX_CYCLES 400
SCF_MAX_CYCLES 400
METHOD   B3LYP
BASIS   6-31G**
PDB_PRINT 2
SCF_CONVERGENCE 6
THRESH 14
SCF_PRINT 1
$end
$molecule
0 1
S 2.757344 0.486948 0.024532
S -2.821783 0.305272 -0.176582
C 0.008300 0.235264 -0.036746
C 1.278201 -0.620766 -0.013763
C -1.254932 -0.627434 -0.043047
H -0.013436 0.887445 0.844390
H 0.009470 0.887455 -0.916238
H 1.292797 -1.263457 0.871358
H 1.330893 -1.254639 -0.903887
H -1.296547 -1.288973 0.826943
H -1.280433 -1.269012 -0.935987
H 3.686085 -0.489281 0.059674
H -2.587755 1.434780 1.578252
$end
$scan
stre 2 13 2.200000 2.201000 0.100000
$end
--------------------------------------------------------------

    9    -915.4349439649      9.04e-07  Convergence criterion met
 Total energy in the final basis set =     -915.4349439649
   10    -915.4229247783      4.10e-07  Convergence criterion met
 Total energy in the final basis set =     -915.4229247783
   10    -915.4226358859      4.09e-07  Convergence criterion met
 Total energy in the final basis set =     -915.4226358859

             Standard Nuclear Orientation (Angstroms)
    I     Atom           X                Y                Z
 ----------------------------------------------------------------
    1      S       2.7547631069     0.4899496150     0.0262809454
    2      S      -2.8221735291     0.2899018290    -0.1953039222
    3      C       0.0067907634     0.2312356402    -0.0449916909
    4      C       1.2786165726    -0.6215992672    -0.0139874146
    5      C      -1.2543444259    -0.6346451714    -0.0535354691
    6      H      -0.0215208513     0.8857439362     0.8341944517
    7      H       0.0097432863     0.8808509202    -0.9263650741
    8      H       1.2911570871    -1.2610122136     0.8735225675
    9      H       1.3364774639    -1.2585949744    -0.9015828947
   10      H      -1.2965219464    -1.2965298670     0.8162496086
   11      H      -1.2749563697    -1.2775958828    -0.9464695247
   12      H       3.6856834131    -0.4837805262     0.0708652756
   13      H      -2.5855105709     1.4796779617     1.6400221414
 ----------------------------------------------------------------

   10    -915.4226367238      4.08e-07  Convergence criterion met
 Total energy in the final basis set =     -915.4226367238

                    Orbital Energies (a.u.)
 --------------------------------------------------------------

 Alpha MOs
 -- Occupied --
-88.909 -88.879 -10.234 -10.229 -10.206  -7.965  -7.941  -5.931
 -5.927  -5.918  -5.906  -5.903  -5.896  -0.830  -0.777  -0.703
 -0.622  -0.597  -0.494  -0.456  -0.431  -0.415  -0.386  -0.361
 -0.348  -0.332  -0.303  -0.244  -0.241

 Beta MOs
 -- Occupied --
-88.909 -88.879 -10.234 -10.229 -10.206  -7.965  -7.941  -5.931
 -5.927  -5.918  -5.906  -5.903  -5.896  -0.830  -0.777  -0.703
 -0.622  -0.597  -0.494  -0.456  -0.431  -0.415  -0.386  -0.361
 -0.348  -0.332  -0.303  -0.244  -0.241

          Ground-State Mulliken Net Atomic Charges

     Atom                 Charge (a.u.)    Spin (a.u.)
  --------------------------------------------------------
      1 S                    -0.040524      -0.000000
      2 S                    -0.025301       0.000000
      3 C                    -0.169730       0.000000
      4 C                    -0.331111      -0.000000
      5 C                    -0.347405       0.000000
      6 H                     0.126125      -0.000000
      7 H                     0.135549      -0.000000
      8 H                     0.136531      -0.000000
      9 H                     0.136328       0.000000
     10 H                     0.148375      -0.000000
     11 H                     0.146131      -0.000000
     12 H                     0.057514       0.000000
     13 H                     0.027519      -0.000000
  --------------------------------------------------------
  Sum of atomic charges =    -0.000000

                    Cartesian Multipole Moments
 -----------------------------------------------------------------
    Charge (ESU x 10^10)
                -0.0000
    Dipole Moment (Debye)
         X       0.8313      Y      -2.2089      Z       0.2535
       Tot       2.3738
    Quadrupole Moments (Debye-Ang)
        XX     -53.7973     XY      -3.6080     YY     -46.8388
        XZ      -0.3512     YZ       1.6908     ZZ     -47.2325

 Final energy is   -915.422636723792
 **  OPTIMIZATION CONVERGED  **
 Total job time:  16.88s(wall), 189.66s(cpu)
        *  Thank you very much for using Q-Chem.  Have a nice day.  *
