 Q-Chem 5.1, Q-Chem, Inc., Pleasanton, CA (2018)
 Q-Chem 5.1.1 for Intel X86 EM64T Linux

User input:
--------------------------------------------------------------

$comment
potential surface scanner
$end

$rem
JOBTYPE  PES_SCAN
UNRESTRICTED TRUE
SYM_IGNORE  TRUE
GEOM_OPT_MAX_CYCLES 400
SCF_MAX_CYCLES 400
METHOD   B3LYP
BASIS   6-31G**
PDB_PRINT 2
SCF_CONVERGENCE 6
THRESH 14
SCF_PRINT 1
$end
$molecule
0 3
S 2.624115 0.557024 0.412543
S -2.909960 -0.132253 -0.045957
C -0.086294 0.099361 0.114932
C 1.263411 -0.607929 -0.039198
C -1.246260 -0.840830 -0.230401
H -0.206166 0.460776 1.141942
H -0.123307 0.979143 -0.536116
H 1.310525 -1.483476 0.615395
H 1.406256 -0.939976 -1.071978
H -1.233819 -1.734568 0.410235
H -1.167894 -1.217284 -1.258940
H 3.644252 -0.291407 0.176759
H -2.166657 2.575017 1.489683
$end
$scan
stre 2 13 3.100000 3.101000 0.100000
$end
--------------------------------------------------------------

   10    -915.3826356938      9.17e-07  Convergence criterion met
 Total energy in the final basis set =     -915.3826356938
   10    -915.3826752840      8.57e-07  Convergence criterion met
 Total energy in the final basis set =     -915.3826752840
   10    -915.3826879434      8.69e-07  Convergence criterion met
 Total energy in the final basis set =     -915.3826879434
   10    -915.3827212630      9.38e-07  Convergence criterion met
 Total energy in the final basis set =     -915.3827212630
   10    -915.3827228141      9.43e-07  Convergence criterion met
 Total energy in the final basis set =     -915.3827228141

             Standard Nuclear Orientation (Angstroms)
    I     Atom           X                Y                Z
 ----------------------------------------------------------------
    1      S       2.6319065969     0.5497673091     0.4116180752
    2      S      -2.9067232691    -0.1143243004    -0.0286136729
    3      C      -0.0814102858     0.1051706152     0.1223270018
    4      C       1.2645553358    -0.6074946030    -0.0396603510
    5      C      -1.2466381789    -0.8285506992    -0.2228598900
    6      H      -0.1962092678     0.4626536700     1.1512097764
    7      H      -0.1168761519     0.9878956593    -0.5247480142
    8      H       1.3101665179    -1.4858165234     0.6113221419
    9      H       1.4021226376    -0.9360835330    -1.0742620391
   10      H      -1.2356640878    -1.7250676814     0.4139441731
   11      H      -1.1737570310    -1.2008134556    -1.2533117220
   12      H       3.6474133404    -0.3023000068     0.1690849767
   13      H      -2.1906841563     2.5185615492     1.4428485440
 ----------------------------------------------------------------

   10    -915.3827254990      9.52e-07  Convergence criterion met
 Total energy in the final basis set =     -915.3827254990

                    Orbital Energies (a.u.)
 --------------------------------------------------------------

 Alpha MOs
 -- Occupied --
-88.899 -88.879 -10.237 -10.230 -10.206  -7.959  -7.942  -5.930
 -5.921  -5.912  -5.907  -5.903  -5.896  -0.833  -0.782  -0.709
 -0.628  -0.602  -0.497  -0.457  -0.435  -0.418  -0.388  -0.363
 -0.351  -0.333  -0.301  -0.290  -0.244  -0.242

 Beta MOs
 -- Occupied --
-88.893 -88.879 -10.237 -10.230 -10.206  -7.954  -7.942  -5.918
 -5.913  -5.908  -5.907  -5.903  -5.896  -0.830  -0.774  -0.697
 -0.615  -0.593  -0.493  -0.456  -0.428  -0.413  -0.387  -0.360
 -0.344  -0.333  -0.242  -0.238

          Ground-State Mulliken Net Atomic Charges

     Atom                 Charge (a.u.)    Spin (a.u.)
  --------------------------------------------------------
      1 S                    -0.038107       0.000785
      2 S                     0.025525       0.997744
      3 C                    -0.169535       0.005442
      4 C                    -0.332143      -0.000625
      5 C                    -0.369016      -0.030250
      6 H                     0.134103      -0.001722
      7 H                     0.131674       0.000215
      8 H                     0.135544       0.000191
      9 H                     0.136020       0.000420
     10 H                     0.154529       0.032245
     11 H                     0.153134       0.024457
     12 H                     0.057393      -0.000081
     13 H                    -0.019122       0.971178
  --------------------------------------------------------
  Sum of atomic charges =    -0.000000

                    Cartesian Multipole Moments
 -----------------------------------------------------------------
    Charge (ESU x 10^10)
                -0.0000
    Dipole Moment (Debye)
         X       1.0211      Y      -2.3927      Z      -0.8207
       Tot       2.7279
    Quadrupole Moments (Debye-Ang)
        XX     -52.8486     XY      -3.0920     YY     -48.0228
        XZ      -1.1076     YZ      -1.0994     ZZ     -47.8568

 Final energy is   -915.382725498975
 **  OPTIMIZATION CONVERGED  **
 Total job time:  25.11s(wall), 285.75s(cpu)
        *  Thank you very much for using Q-Chem.  Have a nice day.  *
