 Q-Chem 5.1, Q-Chem, Inc., Pleasanton, CA (2018)
 Q-Chem 5.1.1 for Intel X86 EM64T Linux

User input:
--------------------------------------------------------------

$comment
potential surface scanner
$end

$rem
JOBTYPE  PES_SCAN
UNRESTRICTED TRUE
SYM_IGNORE  TRUE
GEOM_OPT_MAX_CYCLES 400
SCF_MAX_CYCLES 400
METHOD   B3LYP
BASIS   6-31G**
PDB_PRINT 2
SCF_CONVERGENCE 6
THRESH 14
SCF_PRINT 1
$end
$molecule
0 1
S 2.754763 0.489950 0.026281
S -2.822174 0.289902 -0.195304
C 0.006791 0.231236 -0.044992
C 1.278617 -0.621599 -0.013987
C -1.254344 -0.634645 -0.053535
H -0.021521 0.885744 0.834194
H 0.009743 0.880851 -0.926365
H 1.291157 -1.261012 0.873523
H 1.336477 -1.258595 -0.901583
H -1.296522 -1.296530 0.816250
H -1.274956 -1.277596 -0.946470
H 3.685683 -0.483781 0.070865
H -2.585511 1.479678 1.640022
$end
$scan
stre 2 13 2.300000 2.301000 0.100000
$end
--------------------------------------------------------------

   10    -915.4226367381      4.08e-07  Convergence criterion met
 Total energy in the final basis set =     -915.4226367381
   10    -915.4114460491      5.25e-07  Convergence criterion met
 Total energy in the final basis set =     -915.4114460491
   10    -915.4111900167      5.24e-07  Convergence criterion met
 Total energy in the final basis set =     -915.4111900167

             Standard Nuclear Orientation (Angstroms)
    I     Atom           X                Y                Z
 ----------------------------------------------------------------
    1      S       2.7522318065     0.4928412539     0.0279306186
    2      S      -2.8225676445     0.2738661110    -0.2141286906
    3      C       0.0052432709     0.2272582412    -0.0524610036
    4      C       1.2789825482    -0.6223539667    -0.0142384337
    5      C      -1.2536174686    -0.6421418733    -0.0637969387
    6      H      -0.0295815756     0.8835988265     0.8251084925
    7      H       0.0098698431     0.8747460948    -0.9353707186
    8      H       1.2897537547    -1.2590190829     0.8752542309
    9      H       1.3415691369    -1.2619429982    -0.8996770425
   10      H      -1.2963847231    -1.3045784450     0.8056456665
   11      H      -1.2686055915    -1.2863054004    -0.9567964417
   12      H       3.6851393084    -0.4785159896     0.0811945452
   13      H      -2.5838296654     1.5261502288     1.7002347157
 ----------------------------------------------------------------

   10    -915.4111908794      5.23e-07  Convergence criterion met
 Total energy in the final basis set =     -915.4111908794

                    Orbital Energies (a.u.)
 --------------------------------------------------------------

 Alpha MOs
 -- Occupied --
-88.910 -88.879 -10.235 -10.230 -10.207  -7.966  -7.941  -5.933
 -5.928  -5.919  -5.906  -5.903  -5.896  -0.830  -0.777  -0.703
 -0.622  -0.597  -0.495  -0.456  -0.431  -0.415  -0.386  -0.361
 -0.348  -0.333  -0.298  -0.245  -0.241

 Beta MOs
 -- Occupied --
-88.910 -88.879 -10.235 -10.230 -10.207  -7.966  -7.941  -5.933
 -5.928  -5.919  -5.906  -5.903  -5.896  -0.830  -0.777  -0.703
 -0.622  -0.597  -0.495  -0.456  -0.431  -0.415  -0.386  -0.361
 -0.348  -0.333  -0.298  -0.245  -0.241

          Ground-State Mulliken Net Atomic Charges

     Atom                 Charge (a.u.)    Spin (a.u.)
  --------------------------------------------------------
      1 S                    -0.040149      -0.000000
      2 S                    -0.021740      -0.000000
      3 C                    -0.169850       0.000000
      4 C                    -0.331289       0.000000
      5 C                    -0.348977       0.000000
      6 H                     0.127117       0.000000
      7 H                     0.135577       0.000000
      8 H                     0.136671      -0.000000
      9 H                     0.136231      -0.000000
     10 H                     0.149229      -0.000000
     11 H                     0.147159      -0.000000
     12 H                     0.057552       0.000000
     13 H                     0.022469       0.000000
  --------------------------------------------------------
  Sum of atomic charges =     0.000000

                    Cartesian Multipole Moments
 -----------------------------------------------------------------
    Charge (ESU x 10^10)
                 0.0000
    Dipole Moment (Debye)
         X       0.8556      Y      -2.2509      Z       0.2081
       Tot       2.4170
    Quadrupole Moments (Debye-Ang)
        XX     -53.8073     XY      -3.5066     YY     -46.8652
        XZ      -0.1883     YZ       1.6584     ZZ     -47.2514

 Final energy is   -915.411190879412
 **  OPTIMIZATION CONVERGED  **
 Total job time:  16.84s(wall), 190.14s(cpu)
        *  Thank you very much for using Q-Chem.  Have a nice day.  *
