 Q-Chem 5.1, Q-Chem, Inc., Pleasanton, CA (2018)
 Q-Chem 5.1.1 for Intel X86 EM64T Linux

User input:
--------------------------------------------------------------

$comment
potential surface scanner
$end

$rem
JOBTYPE  PES_SCAN
UNRESTRICTED TRUE
SYM_IGNORE  TRUE
GEOM_OPT_MAX_CYCLES 400
SCF_MAX_CYCLES 400
METHOD   B3LYP
BASIS   6-31G**
PDB_PRINT 2
SCF_CONVERGENCE 6
THRESH 14
SCF_PRINT 1
$end
$molecule
0 3
S 2.707403 0.467308 0.404583
S -2.927117 0.072820 0.150559
C -0.040029 0.223974 0.235315
C 1.242393 -0.570009 -0.033346
C -1.263304 -0.636942 -0.098170
H -0.079173 0.539308 1.282148
H -0.051948 1.139575 -0.362777
H 1.260556 -1.484156 0.567964
H 1.307729 -0.849709 -1.089298
H -1.271394 -1.566651 0.487831
H -1.255202 -0.959982 -1.148470
H 3.647541 -0.439464 0.071436
H -2.169255 1.487529 0.711133
$end
$scan
stre 2 13 1.600000 1.601000 0.100000
$end
--------------------------------------------------------------

   11    -915.3651659460      6.04e-07  Convergence criterion met
 Total energy in the final basis set =     -915.3651659460
   11    -915.3589518601      7.64e-07  Convergence criterion met
 Total energy in the final basis set =     -915.3589518601
   11    -915.3589957552      7.99e-07  Convergence criterion met
 Total energy in the final basis set =     -915.3589957552
   11    -915.3590638648      8.68e-07  Convergence criterion met
 Total energy in the final basis set =     -915.3590638648
   11    -915.3590844365      8.93e-07  Convergence criterion met
 Total energy in the final basis set =     -915.3590844365
   11    -915.3590874103      8.94e-07  Convergence criterion met
 Total energy in the final basis set =     -915.3590874103

             Standard Nuclear Orientation (Angstroms)
    I     Atom           X                Y                Z
 ----------------------------------------------------------------
    1      S       2.7127433361     0.4701086815     0.4030213531
    2      S      -2.9425978578     0.1084274204     0.1641574383
    3      C      -0.0357426814     0.2258332063     0.2336719818
    4      C       1.2455655645    -0.5691942932    -0.0323263969
    5      C      -1.2620863207    -0.6266511448    -0.0965428371
    6      H      -0.0742967354     0.5443821157     1.2802246968
    7      H      -0.0449764090     1.1416889379    -0.3651494763
    8      H       1.2645363637    -1.4809176840     0.5721667700
    9      H       1.3124107394    -0.8518708894    -1.0871324716
   10      H      -1.2880491335    -1.5550155939     0.4909257247
   11      H      -1.2732814300    -0.9463156567    -1.1475536738
   12      H       3.6532724727    -0.4381381205     0.0748689725
   13      H      -2.1592979085     1.4012640208     0.6885759187
 ----------------------------------------------------------------

   11    -915.3590881220      8.93e-07  Convergence criterion met
 Total energy in the final basis set =     -915.3590881220

                    Orbital Energies (a.u.)
 --------------------------------------------------------------

 Alpha MOs
 -- Occupied --
-88.933 -88.878 -10.235 -10.230 -10.205  -7.991  -7.940  -5.961
 -5.950  -5.948  -5.905  -5.902  -5.894  -0.837  -0.790  -0.720
 -0.640  -0.605  -0.497  -0.462  -0.436  -0.425  -0.401  -0.369
 -0.363  -0.347  -0.332  -0.312  -0.240  -0.104

 Beta MOs
 -- Occupied --
-88.926 -88.878 -10.233 -10.230 -10.205  -7.983  -7.940  -5.946
 -5.942  -5.939  -5.905  -5.902  -5.894  -0.829  -0.776  -0.703
 -0.623  -0.601  -0.492  -0.457  -0.428  -0.414  -0.390  -0.359
 -0.347  -0.332  -0.316  -0.240

          Ground-State Mulliken Net Atomic Charges

     Atom                 Charge (a.u.)    Spin (a.u.)
  --------------------------------------------------------
      1 S                    -0.038385       0.006352
      2 S                     0.204246       1.300747
      3 C                    -0.174641       0.032215
      4 C                    -0.330449      -0.001559
      5 C                    -0.364884       0.001601
      6 H                     0.137514       0.001979
      7 H                     0.136108       0.001626
      8 H                     0.134968       0.000790
      9 H                     0.135293       0.000911
     10 H                     0.156484       0.025892
     11 H                     0.156502       0.024350
     12 H                     0.055611       0.001049
     13 H                    -0.208368       0.604048
  --------------------------------------------------------
  Sum of atomic charges =     0.000000

                    Cartesian Multipole Moments
 -----------------------------------------------------------------
    Charge (ESU x 10^10)
                -0.0000
    Dipole Moment (Debye)
         X       0.4249      Y      -2.6897      Z      -1.0441
       Tot       2.9164
    Quadrupole Moments (Debye-Ang)
        XX     -51.9237     XY      -2.4907     YY     -49.2152
        XZ      -0.9476     YZ      -1.4666     ZZ     -47.5931

 Final energy is   -915.359088122048
 **  OPTIMIZATION CONVERGED  **
 Total job time:  36.30s(wall), 359.22s(cpu)
        *  Thank you very much for using Q-Chem.  Have a nice day.  *
