 Q-Chem 5.1, Q-Chem, Inc., Pleasanton, CA (2018)
 Q-Chem 5.1.1 for Intel X86 EM64T Linux

User input:
--------------------------------------------------------------

$comment
potential surface scanner
$end

$rem
JOBTYPE  PES_SCAN
UNRESTRICTED TRUE
SYM_IGNORE  TRUE
GEOM_OPT_MAX_CYCLES 400
SCF_MAX_CYCLES 400
METHOD   B3LYP
BASIS   6-31G**
PDB_PRINT 2
SCF_CONVERGENCE 6
THRESH 14
SCF_PRINT 1
$end
$molecule
0 3
S 2.712743 0.470109 0.403021
S -2.942598 0.108427 0.164157
C -0.035743 0.225833 0.233672
C 1.245566 -0.569194 -0.032326
C -1.262086 -0.626651 -0.096543
H -0.074297 0.544382 1.280225
H -0.044976 1.141689 -0.365149
H 1.264536 -1.480918 0.572167
H 1.312411 -0.851871 -1.087132
H -1.288049 -1.555016 0.490926
H -1.273281 -0.946316 -1.147554
H 3.653272 -0.438138 0.074869
H -2.159298 1.401264 0.688576
$end
$scan
stre 2 13 1.500000 1.501000 0.100000
$end
--------------------------------------------------------------

   11    -915.3590881541      8.93e-07  Convergence criterion met
 Total energy in the final basis set =     -915.3590881541
   13    -915.3526706292      8.04e-07  Convergence criterion met
 Total energy in the final basis set =     -915.3526706292
   13    -915.3528834472      7.44e-07  Convergence criterion met
 Total energy in the final basis set =     -915.3528834472
   13    -915.3543565943      5.62e-07  Convergence criterion met
 Total energy in the final basis set =     -915.3543565943
   11    -915.3583748027      9.12e-07  Convergence criterion met
 Total energy in the final basis set =     -915.3583748027
   12    -915.3660922486      6.32e-07  Convergence criterion met
 Total energy in the final basis set =     -915.3660922486
   12    -915.3745670565      6.16e-07  Convergence criterion met
 Total energy in the final basis set =     -915.3745670565
   12    -915.3817124115      6.93e-07  Convergence criterion met
   10    -915.4162346324      7.98e-07  Convergence criterion met
 Total energy in the final basis set =     -915.4162346324
   10    -915.4162354184      7.94e-07  Convergence criterion met
 Total energy in the final basis set =     -915.4162354184
   10    -915.4162367346      7.92e-07  Convergence criterion met
 Total energy in the final basis set =     -915.4162367346
   10    -915.4162378468      7.93e-07  Convergence criterion met
 Total energy in the final basis set =     -915.4162378468
   10    -915.4162383611      7.95e-07  Convergence criterion met
 Total energy in the final basis set =     -915.4162383611
   10    -915.4160730922      8.04e-07  Convergence criterion met
 Total energy in the final basis set =     -915.4160730922

             Standard Nuclear Orientation (Angstroms)
    I     Atom           X                Y                Z
 ----------------------------------------------------------------
    1      S       2.8314613232     0.2941979297     0.4123203180
    2      S      -3.3649209827     1.1937051084     0.5451018912
    3      C       0.0686068427     0.2400779689     0.2564584982
    4      C       1.2958175543    -0.6419218584    -0.0212889919
    5      C      -1.2153790202    -0.4778873487    -0.1003661574
    6      H       0.0586796988     0.5227364241     1.3151014343
    7      H       0.1498453845     1.1677107018    -0.3208697592
    8      H       1.2502219666    -1.5542377602     0.5795304624
    9      H       1.3325932339    -0.9202055435    -1.0779954018
   10      H      -1.4327043407    -1.3687422915     0.4944267556
   11      H      -1.3647520740    -0.6662837850    -1.1664448151
   12      H       3.7071390993    -0.6707242794     0.0685365791
   13      H      -2.2084086857     0.3051747337     0.1943981867
 ----------------------------------------------------------------

   10    -915.4160722160      8.05e-07  Convergence criterion met
 Total energy in the final basis set =     -915.4160722160

                    Orbital Energies (a.u.)
 --------------------------------------------------------------

 Alpha MOs
 -- Occupied --
-88.895 -88.880 -10.233 -10.221 -10.211  -7.957  -7.942  -5.927
 -5.922  -5.908  -5.907  -5.904  -5.897  -0.827  -0.766  -0.720
 -0.660  -0.604  -0.494  -0.464  -0.453  -0.427  -0.390  -0.380
 -0.361  -0.335  -0.311  -0.264  -0.243  -0.237

 Beta MOs
 -- Occupied --
-88.886 -88.880 -10.232 -10.213 -10.211  -7.948  -7.942  -5.908
 -5.907  -5.907  -5.904  -5.903  -5.897  -0.822  -0.752  -0.678
 -0.634  -0.600  -0.491  -0.454  -0.428  -0.424  -0.383  -0.366
 -0.360  -0.334  -0.243  -0.242

          Ground-State Mulliken Net Atomic Charges

     Atom                 Charge (a.u.)    Spin (a.u.)
  --------------------------------------------------------
      1 S                    -0.041239       0.013125
      2 S                    -0.068108       1.567959
      3 C                    -0.181609      -0.022479
      4 C                    -0.322485       0.019446
      5 C                    -0.280816       0.517770
      6 H                     0.133277       0.004771
      7 H                     0.132518       0.003791
      8 H                     0.138161      -0.000559
      9 H                     0.137861      -0.000575
     10 H                     0.136228      -0.011422
     11 H                     0.136832      -0.011225
     12 H                     0.058319       0.000728
     13 H                     0.021061      -0.081330
  --------------------------------------------------------
  Sum of atomic charges =     0.000000

                    Cartesian Multipole Moments
 -----------------------------------------------------------------
    Charge (ESU x 10^10)
                -0.0000
    Dipole Moment (Debye)
         X       0.9691      Y      -2.4811      Z      -0.9927
       Tot       2.8427
    Quadrupole Moments (Debye-Ang)
        XX     -56.0026     XY      -1.3054     YY     -48.2468
        XZ      -0.6497     YZ      -1.2084     ZZ     -47.5704

 Final energy is   -915.416072216002
 **  OPTIMIZATION CONVERGED  **
 Total job time:  464.07s(wall), 5374.39s(cpu)
        *  Thank you very much for using Q-Chem.  Have a nice day.  *
