 Q-Chem 5.1, Q-Chem, Inc., Pleasanton, CA (2018)
 Q-Chem 5.1.1 for Intel X86 EM64T Linux

User input:
--------------------------------------------------------------

$comment
potential surface scanner
$end

$rem
JOBTYPE  PES_SCAN
UNRESTRICTED TRUE
SYM_IGNORE  TRUE
GEOM_OPT_MAX_CYCLES 400
SCF_MAX_CYCLES 400
METHOD   B3LYP
BASIS   6-31G**
PDB_PRINT 2
SCF_CONVERGENCE 6
THRESH 14
SCF_PRINT 1
$end
$molecule
0 1
S 2.406195 -0.035446 1.125592
S -2.548085 -0.291506 -0.378708
C 0.200299 -0.318912 -0.503049
C 1.565677 -0.895664 -0.298773
C -0.921156 -0.994099 -0.230144
H -1.254433 3.193237 1.552098
H 0.151917 0.703716 -0.871798
H 1.511669 -1.966614 -0.088967
H 2.185119 -0.739929 -1.186796
H -0.880941 -2.010881 0.151648
H -3.213031 -1.459772 -0.452089
H 3.665108 -0.409266 0.816594
H -1.760135 2.648740 1.543293
$end
$scan
stre 2 13 3.700000 3.701000 0.100000
$end
--------------------------------------------------------------

    9    -915.4674026672      9.87e-07  Convergence criterion met
 Total energy in the final basis set =     -915.4674026672
    9    -915.4673095687      9.83e-07  Convergence criterion met
 Total energy in the final basis set =     -915.4673095687
    9    -915.4673318608      9.85e-07  Convergence criterion met
 Total energy in the final basis set =     -915.4673318608
    9    -915.4673858796      9.90e-07  Convergence criterion met
 Total energy in the final basis set =     -915.4673858796
    9    -915.4673880455      9.90e-07  Convergence criterion met
 Total energy in the final basis set =     -915.4673880455

             Standard Nuclear Orientation (Angstroms)
    I     Atom           X                Y                Z
 ----------------------------------------------------------------
    1      S       2.3933986584    -0.0328768186     1.1297177188
    2      S      -2.5564368334    -0.3237486313    -0.3918414456
    3      C       0.1929681370    -0.3275909323    -0.5047814329
    4      C       1.5620381767    -0.8949302886    -0.2988709372
    5      C      -0.9241063076    -1.0130537141    -0.2396583806
    6      H      -1.2268796927     3.2440740533     1.5689286136
    7      H       0.1380479925     0.6963466582    -0.8689025724
    8      H       1.5152609495    -1.9668406344    -0.0922006216
    9      H       2.1823061692    -0.7323309552    -1.1851151369
   10      H      -0.8769972729    -2.0314058798     0.1371680243
   11      H      -3.2104925751    -1.4977275292    -0.4712123559
   12      H       3.6552090741    -0.3991622611     0.8236464441
   13      H      -1.7361134756     2.7028509331     1.5720230824
 ----------------------------------------------------------------

    9    -915.4673931244      9.87e-07  Convergence criterion met
 Total energy in the final basis set =     -915.4673931244

                    Orbital Energies (a.u.)
 --------------------------------------------------------------

 Alpha MOs
 -- Occupied --
-88.895 -88.876 -10.231 -10.229 -10.204  -7.957  -7.938  -5.922
 -5.918  -5.912  -5.903  -5.899  -5.892  -0.831  -0.783  -0.716
 -0.639  -0.566  -0.479  -0.461  -0.443  -0.423  -0.391  -0.389
 -0.348  -0.337  -0.313  -0.240  -0.227

 Beta MOs
 -- Occupied --
-88.895 -88.876 -10.231 -10.229 -10.204  -7.957  -7.938  -5.922
 -5.918  -5.912  -5.903  -5.899  -5.892  -0.831  -0.783  -0.716
 -0.639  -0.566  -0.479  -0.461  -0.443  -0.423  -0.391  -0.389
 -0.348  -0.337  -0.313  -0.240  -0.227

          Ground-State Mulliken Net Atomic Charges

     Atom                 Charge (a.u.)    Spin (a.u.)
  --------------------------------------------------------
      1 S                    -0.035705      -0.000000
      2 S                     0.029370       0.000000
      3 C                    -0.042569      -0.000000
      4 C                    -0.358544       0.000000
      5 C                    -0.235891       0.000000
      6 H                    -0.007183      -0.000000
      7 H                     0.115433      -0.000000
      8 H                     0.137429       0.000000
      9 H                     0.146975      -0.000000
     10 H                     0.128508      -0.000000
     11 H                     0.063040       0.000000
     12 H                     0.051874       0.000000
     13 H                     0.007263       0.000000
  --------------------------------------------------------
  Sum of atomic charges =    -0.000000

                    Cartesian Multipole Moments
 -----------------------------------------------------------------
    Charge (ESU x 10^10)
                 0.0000
    Dipole Moment (Debye)
         X       0.3590      Y      -2.1401      Z      -1.3657
       Tot       2.5640
    Quadrupole Moments (Debye-Ang)
        XX     -42.1321     XY       1.7372     YY     -44.0618
        XZ      -2.4102     YZ       0.1147     ZZ     -51.7419

 Final energy is   -915.467393124438
 **  OPTIMIZATION CONVERGED  **
 Total job time:  22.66s(wall), 256.64s(cpu)
        *  Thank you very much for using Q-Chem.  Have a nice day.  *
