 Q-Chem 5.1, Q-Chem, Inc., Pleasanton, CA (2018)
 Q-Chem 5.1.1 for Intel X86 EM64T Linux

User input:
--------------------------------------------------------------

$comment
potential surface scanner
$end

$rem
JOBTYPE  PES_SCAN
UNRESTRICTED TRUE
SYM_IGNORE  TRUE
GEOM_OPT_MAX_CYCLES 400
SCF_MAX_CYCLES 400
METHOD   B3LYP
BASIS   6-31G**
PDB_PRINT 2
SCF_CONVERGENCE 6
THRESH 14
SCF_PRINT 1
$end
$molecule
0 1
S 2.780392 0.459166 -0.008752
S -2.809656 0.415300 -0.060476
C 0.023653 0.268735 -0.000680
C 1.275427 -0.614197 -0.003361
C -1.255885 -0.570755 0.008364
H 0.039207 0.921722 0.880075
H 0.023735 0.921189 -0.880123
H 1.297855 -1.252858 0.884544
H 1.291481 -1.253423 -0.890999
H -1.292979 -1.234819 0.876797
H -1.310112 -1.203639 -0.884258
H 3.686736 -0.538412 -0.002844
H -2.641653 1.105590 1.260612
$end
$scan
stre 2 13 1.600000 1.601000 0.100000
$end
--------------------------------------------------------------

    9    -915.5150633343      3.25e-07  Convergence criterion met
 Total energy in the final basis set =     -915.5150633343
    9    -915.5040451685      3.08e-07  Convergence criterion met
 Total energy in the final basis set =     -915.5040451685
    9    -915.5037378180      3.13e-07  Convergence criterion met
 Total energy in the final basis set =     -915.5037378180
    9    -915.5037431364      3.16e-07  Convergence criterion met
 Total energy in the final basis set =     -915.5037431364
    9    -915.5037496376      3.19e-07  Convergence criterion met
 Total energy in the final basis set =     -915.5037496376
    9    -915.5037532410      3.19e-07  Convergence criterion met
 Total energy in the final basis set =     -915.5037532410
    9    -915.5037551988      3.16e-07  Convergence criterion met
 Total energy in the final basis set =     -915.5037551988

             Standard Nuclear Orientation (Angstroms)
    I     Atom           X                Y                Z
 ----------------------------------------------------------------
    1      S       2.7729736276     0.4676681640     0.0057915696
    2      S      -2.8158761232     0.3850608639    -0.0806706591
    3      C       0.0177950802     0.2596717479     0.0010040444
    4      C       1.2750211405    -0.6153448321    -0.0093820600
    5      C      -1.2566867134    -0.5871046534     0.0055907515
    6      H       0.0288495077     0.9048156454     0.8877126263
    7      H       0.0132451941     0.9196737039    -0.8727411479
    8      H       1.2985674608    -1.2663205102     0.8694965589
    9      H       1.2980768860    -1.2417640727    -0.9059292402
   10      H      -1.2934199529    -1.2503184087     0.8746396259
   11      H      -1.3027141374    -1.2216637969    -0.8871307233
   12      H       3.6857904014    -0.5240484241     0.0052444333
   13      H      -2.6134213713     1.1932735731     1.2852732205
 ----------------------------------------------------------------

    9    -915.5037555624      3.15e-07  Convergence criterion met
 Total energy in the final basis set =     -915.5037555624

                    Orbital Energies (a.u.)
 --------------------------------------------------------------

 Alpha MOs
 -- Occupied --
-88.892 -88.878 -10.230 -10.228 -10.205  -7.950  -7.940  -5.916
 -5.912  -5.905  -5.904  -5.902  -5.895  -0.828  -0.775  -0.704
 -0.626  -0.599  -0.494  -0.455  -0.433  -0.416  -0.385  -0.369
 -0.356  -0.333  -0.324  -0.242  -0.240

 Beta MOs
 -- Occupied --
-88.892 -88.878 -10.230 -10.228 -10.205  -7.950  -7.940  -5.916
 -5.912  -5.905  -5.904  -5.902  -5.895  -0.828  -0.775  -0.704
 -0.626  -0.599  -0.494  -0.455  -0.433  -0.416  -0.385  -0.369
 -0.356  -0.333  -0.324  -0.242  -0.240

          Ground-State Mulliken Net Atomic Charges

     Atom                 Charge (a.u.)    Spin (a.u.)
  --------------------------------------------------------
      1 S                    -0.042332       0.000000
      2 S                    -0.040228       0.000000
      3 C                    -0.172133      -0.000000
      4 C                    -0.330226      -0.000000
      5 C                    -0.341066      -0.000000
      6 H                     0.120421       0.000000
      7 H                     0.135920      -0.000000
      8 H                     0.135818      -0.000000
      9 H                     0.137026      -0.000000
     10 H                     0.141959       0.000000
     11 H                     0.142092       0.000000
     12 H                     0.057424      -0.000000
     13 H                     0.055323      -0.000000
  --------------------------------------------------------
  Sum of atomic charges =    -0.000000

                    Cartesian Multipole Moments
 -----------------------------------------------------------------
    Charge (ESU x 10^10)
                 0.0000
    Dipole Moment (Debye)
         X       0.7108      Y      -1.9347      Z       0.6150
       Tot       2.1510
    Quadrupole Moments (Debye-Ang)
        XX     -53.7431     XY      -4.3155     YY     -46.5255
        XZ      -1.6190     YZ       1.8403     ZZ     -47.0125

 Final energy is   -915.503755562432
 **  OPTIMIZATION CONVERGED  **
 Total job time:  31.59s(wall), 359.59s(cpu)
        *  Thank you very much for using Q-Chem.  Have a nice day.  *
