 Q-Chem 5.1, Q-Chem, Inc., Pleasanton, CA (2018)
 Q-Chem 5.1.1 for Intel X86 EM64T Linux

User input:
--------------------------------------------------------------

$comment
potential surface scanner
$end

$rem
JOBTYPE  PES_SCAN
UNRESTRICTED TRUE
SYM_IGNORE  TRUE
GEOM_OPT_MAX_CYCLES 400
SCF_MAX_CYCLES 400
METHOD   B3LYP
BASIS   6-31G**
PDB_PRINT 2
SCF_CONVERGENCE 6
THRESH 14
SCF_PRINT 1
$end
$molecule
0 3
S 2.602432 0.631123 0.198618
S -2.905993 -0.007458 -0.529855
C -0.101133 0.178296 -0.162576
C 1.212503 -0.577613 0.058162
C -1.276620 -0.789444 -0.337302
H -0.300728 0.844657 0.683780
H -0.018298 0.812734 -1.052074
H 1.161351 -1.171774 0.975457
H 1.410079 -1.252079 -0.780524
H -1.378868 -1.448211 0.538322
H -1.121212 -1.458992 -1.192459
H 3.583984 -0.274728 0.377690
H -1.759294 1.937091 2.401665
$end
$scan
stre 2 13 3.600000 3.601000 0.100000
$end
--------------------------------------------------------------

   10    -915.3821559142      7.26e-07  Convergence criterion met
 Total energy in the final basis set =     -915.3821559142
   10    -915.3820914483      9.77e-07  Convergence criterion met
 Total energy in the final basis set =     -915.3820914483
   10    -915.3821029640      9.94e-07  Convergence criterion met
 Total energy in the final basis set =     -915.3821029640
   11    -915.3821234192      8.83e-07  Convergence criterion met
 Total energy in the final basis set =     -915.3821234192
   11    -915.3821248532      8.83e-07  Convergence criterion met
 Total energy in the final basis set =     -915.3821248532
   11    -915.3821269960      8.82e-07  Convergence criterion met
 Total energy in the final basis set =     -915.3821269960

             Standard Nuclear Orientation (Angstroms)
    I     Atom           X                Y                Z
 ----------------------------------------------------------------
    1      S       2.6127325915     0.6235344325     0.1885849507
    2      S      -2.9027918316     0.0082273274    -0.5023825559
    3      C      -0.0948246901     0.1829534050    -0.1576965234
    4      C       1.2164919749    -0.5789175883     0.0570781243
    5      C      -1.2746129939    -0.7803223145    -0.3286401372
    6      H      -0.2882947082     0.8503194463     0.6889504111
    7      H      -0.0120408176     0.8166194880    -1.0478365094
    8      H       1.1671578527    -1.1715132175     0.9754783995
    9      H       1.4065567143    -1.2554265602    -0.7816744238
   10      H      -1.3745211659    -1.4385538558     0.5479934866
   11      H      -1.1249295643    -1.4489214566    -1.1851118373
   12      H       3.5907701947    -0.2865621638     0.3653505944
   13      H      -1.8134905566     1.9021650575     2.3588100204
 ----------------------------------------------------------------

   11    -915.3821275163      8.87e-07  Convergence criterion met
 Total energy in the final basis set =     -915.3821275163

                    Orbital Energies (a.u.)
 --------------------------------------------------------------

 Alpha MOs
 -- Occupied --
-88.895 -88.879 -10.235 -10.230 -10.206  -7.955  -7.941  -5.926
 -5.917  -5.908  -5.906  -5.903  -5.896  -0.832  -0.781  -0.708
 -0.626  -0.600  -0.496  -0.456  -0.433  -0.417  -0.388  -0.363
 -0.349  -0.333  -0.313  -0.286  -0.247  -0.241

 Beta MOs
 -- Occupied --
-88.890 -88.879 -10.235 -10.230 -10.206  -7.950  -7.941  -5.914
 -5.909  -5.906  -5.905  -5.903  -5.896  -0.829  -0.773  -0.696
 -0.614  -0.591  -0.492  -0.455  -0.427  -0.412  -0.386  -0.360
 -0.342  -0.332  -0.241  -0.235

          Ground-State Mulliken Net Atomic Charges

     Atom                 Charge (a.u.)    Spin (a.u.)
  --------------------------------------------------------
      1 S                    -0.039303       0.000710
      2 S                     0.011772       0.979561
      3 C                    -0.168941       0.015275
      4 C                    -0.331674      -0.000479
      5 C                    -0.365853      -0.030429
      6 H                     0.129879      -0.006063
      7 H                     0.129568       0.001011
      8 H                     0.136158       0.000200
      9 H                     0.135824       0.000698
     10 H                     0.153304       0.034876
     11 H                     0.150875       0.018551
     12 H                     0.057415      -0.000033
     13 H                     0.000977       0.986122
  --------------------------------------------------------
  Sum of atomic charges =    -0.000000

                    Cartesian Multipole Moments
 -----------------------------------------------------------------
    Charge (ESU x 10^10)
                -0.0000
    Dipole Moment (Debye)
         X       0.9395      Y      -2.2935      Z       0.1863
       Tot       2.4854
    Quadrupole Moments (Debye-Ang)
        XX     -53.1623     XY      -3.5298     YY     -47.8632
        XZ      -0.9166     YZ      -0.8402     ZZ     -47.4874

 Final energy is   -915.382127516311
 **  OPTIMIZATION CONVERGED  **
 Total job time:  30.19s(wall), 344.76s(cpu)
        *  Thank you very much for using Q-Chem.  Have a nice day.  *
