 Q-Chem 5.1, Q-Chem, Inc., Pleasanton, CA (2018)
 Q-Chem 5.1.1 for Intel X86 EM64T Linux

User input:
--------------------------------------------------------------

$comment
potential surface scanner
$end

$rem
JOBTYPE  PES_SCAN
UNRESTRICTED TRUE
SYM_IGNORE  TRUE
GEOM_OPT_MAX_CYCLES 400
SCF_MAX_CYCLES 400
METHOD   B3LYP
BASIS   6-31G**
PDB_PRINT 2
SCF_CONVERGENCE 6
THRESH 14
SCF_PRINT 1
$end
$molecule
0 1
S 2.747978 0.497138 0.030073
S -2.823876 0.256399 -0.231505
C 0.002473 0.222711 -0.059569
C 1.278556 -0.622839 -0.014460
C -1.253805 -0.650895 -0.074787
H -0.039658 0.879808 0.817173
H 0.008524 0.869121 -0.943249
H 1.287938 -1.256957 0.876850
H 1.346318 -1.264729 -0.897877
H -1.296124 -1.315366 0.793309
H -1.262214 -1.295301 -0.968578
H 3.683418 -0.471077 0.094067
H -2.571325 1.575589 1.757453
$end
$scan
stre 2 13 2.500000 2.501000 0.100000
$end
--------------------------------------------------------------

   10    -915.4006357276      6.89e-07  Convergence criterion met
 Total energy in the final basis set =     -915.4006357276
   11    -915.3911271746      3.63e-07  Convergence criterion met
 Total energy in the final basis set =     -915.3911271746
   11    -915.3909279700      3.68e-07  Convergence criterion met
 Total energy in the final basis set =     -915.3909279700
   11    -915.3909293345      3.68e-07  Convergence criterion met
 Total energy in the final basis set =     -915.3909293345

             Standard Nuclear Orientation (Angstroms)
    I     Atom           X                Y                Z
 ----------------------------------------------------------------
    1      S       2.7424276558     0.5026871175     0.0328253179
    2      S      -2.8257815469     0.2393808775    -0.2484057544
    3      C      -0.0013437824     0.2175899285    -0.0671134034
    4      C       1.2776044458    -0.6231108609    -0.0144629248
    5      C      -1.2545358249    -0.6607828787    -0.0868782377
    6      H      -0.0514014444     0.8754610947     0.8086871761
    7      H       0.0063143385     0.8629541523    -0.9515427343
    8      H       1.2856353904    -1.2543979993     0.8788582366
    9      H       1.3513777999    -1.2674747078    -0.8956115549
   10      H      -1.2971236912    -1.3266872623     0.7802443851
   11      H      -1.2563662289    -1.3049725351    -0.9815181904
   12      H       3.6809890597    -0.4615144824     0.1093980957
   13      H      -2.5495931714     1.6244695560     1.8144195887
 ----------------------------------------------------------------

   11    -915.3909302825      3.68e-07  Convergence criterion met
 Total energy in the final basis set =     -915.3909302825

                    Orbital Energies (a.u.)
 --------------------------------------------------------------

 Alpha MOs
 -- Occupied --
-88.911 -88.879 -10.236 -10.230 -10.207  -7.968  -7.942  -5.934
 -5.930  -5.921  -5.907  -5.903  -5.896  -0.831  -0.778  -0.704
 -0.622  -0.598  -0.495  -0.456  -0.432  -0.416  -0.387  -0.361
 -0.348  -0.333  -0.287  -0.245  -0.241

 Beta MOs
 -- Occupied --
-88.911 -88.879 -10.236 -10.230 -10.207  -7.968  -7.942  -5.934
 -5.930  -5.921  -5.907  -5.903  -5.896  -0.831  -0.778  -0.704
 -0.622  -0.598  -0.495  -0.456  -0.432  -0.416  -0.387  -0.361
 -0.348  -0.333  -0.287  -0.245  -0.241

          Ground-State Mulliken Net Atomic Charges

     Atom                 Charge (a.u.)    Spin (a.u.)
  --------------------------------------------------------
      1 S                    -0.039343      -0.000000
      2 S                    -0.015601      -0.000000
      3 C                    -0.170304      -0.000000
      4 C                    -0.331630       0.000000
      5 C                    -0.351809       0.000000
      6 H                     0.128715       0.000000
      7 H                     0.135789      -0.000000
      8 H                     0.136984       0.000000
      9 H                     0.136122      -0.000000
     10 H                     0.150479      -0.000000
     11 H                     0.149313      -0.000000
     12 H                     0.057655       0.000000
     13 H                     0.013629       0.000000
  --------------------------------------------------------
  Sum of atomic charges =     0.000000

                    Cartesian Multipole Moments
 -----------------------------------------------------------------
    Charge (ESU x 10^10)
                 0.0000
    Dipole Moment (Debye)
         X       0.9121      Y      -2.3280      Z       0.1258
       Tot       2.5035
    Quadrupole Moments (Debye-Ang)
        XX     -53.8069     XY      -3.3045     YY     -46.9023
        XZ       0.1491     YZ       1.5837     ZZ     -47.3201

 Final energy is   -915.390930282475
 **  OPTIMIZATION CONVERGED  **
 Total job time:  22.23s(wall), 252.22s(cpu)
        *  Thank you very much for using Q-Chem.  Have a nice day.  *
