 Q-Chem 5.1, Q-Chem, Inc., Pleasanton, CA (2018)
 Q-Chem 5.1.1 for Intel X86 EM64T Linux

User input:
--------------------------------------------------------------

$comment
potential surface scanner
$end

$rem
JOBTYPE  PES_SCAN
UNRESTRICTED TRUE
SYM_IGNORE  TRUE
GEOM_OPT_MAX_CYCLES 400
SCF_MAX_CYCLES 400
METHOD   B3LYP
BASIS   6-31G**
PDB_PRINT 2
SCF_CONVERGENCE 6
THRESH 14
SCF_PRINT 1
$end
$molecule
0 1
S 2.771384 0.470358 0.008156
S -2.816309 0.371507 -0.103970
C 0.017031 0.255522 -0.006074
C 1.276343 -0.616569 -0.009762
C -1.255619 -0.593570 -0.003702
H 0.021863 0.902761 0.879076
H 0.014117 0.913268 -0.881508
H 1.298267 -1.265418 0.870727
H 1.304343 -1.245061 -0.904738
H -1.295537 -1.254690 0.866646
H -1.297421 -1.230693 -0.895640
H 3.686804 -0.518969 0.012997
H -2.617065 1.235153 1.346691
$end
$scan
stre 2 13 1.800000 1.801000 0.100000
$end
--------------------------------------------------------------

    9    -915.4903124172      4.60e-07  Convergence criterion met
 Total energy in the final basis set =     -915.4903124172
    9    -915.4765359499      6.13e-07  Convergence criterion met
 Total energy in the final basis set =     -915.4765359499
    9    -915.4761437080      6.19e-07  Convergence criterion met
 Total energy in the final basis set =     -915.4761437080
    9    -915.4761455832      6.19e-07  Convergence criterion met
 Total energy in the final basis set =     -915.4761455832
    9    -915.4761477438      6.20e-07  Convergence criterion met
 Total energy in the final basis set =     -915.4761477438
    9    -915.4761489201      6.20e-07  Convergence criterion met
 Total energy in the final basis set =     -915.4761489201

             Standard Nuclear Orientation (Angstroms)
    I     Atom           X                Y                Z
 ----------------------------------------------------------------
    1      S       2.7646696250     0.4776922917     0.0178970139
    2      S      -2.8201680492     0.3495533119    -0.1179461330
    3      C       0.0124080806     0.2478603804    -0.0118959849
    4      C       1.2760332344    -0.6177192948    -0.0126146808
    5      C      -1.2568301890    -0.6062332904    -0.0123849914
    6      H       0.0101638566     0.8927966810     0.8750541138
    7      H       0.0084605605     0.9079749433    -0.8854905673
    8      H       1.2968006687    -1.2695532991     0.8656769676
    9      H       1.3123690185    -1.2427428038    -0.9097183046
   10      H      -1.2945503878    -1.2693077669     0.8566082123
   11      H      -1.2950901546    -1.2426342453    -0.9059174848
   12      H       3.6858484213    -0.5062707556     0.0274786597
   13      H      -2.5919136851     1.3021828473     1.3921521795
 ----------------------------------------------------------------

    9    -915.4761495067      6.21e-07  Convergence criterion met
 Total energy in the final basis set =     -915.4761495067

                    Orbital Energies (a.u.)
 --------------------------------------------------------------

 Alpha MOs
 -- Occupied --
-88.899 -88.878 -10.231 -10.229 -10.206  -7.957  -7.941  -5.923
 -5.919  -5.910  -5.906  -5.902  -5.895  -0.828  -0.775  -0.702
 -0.623  -0.598  -0.494  -0.455  -0.431  -0.415  -0.385  -0.363
 -0.353  -0.333  -0.321  -0.243  -0.240

 Beta MOs
 -- Occupied --
-88.899 -88.878 -10.231 -10.229 -10.206  -7.957  -7.941  -5.923
 -5.919  -5.910  -5.906  -5.902  -5.895  -0.828  -0.775  -0.702
 -0.623  -0.598  -0.494  -0.455  -0.431  -0.415  -0.385  -0.363
 -0.353  -0.333  -0.321  -0.243  -0.240

          Ground-State Mulliken Net Atomic Charges

     Atom                 Charge (a.u.)    Spin (a.u.)
  --------------------------------------------------------
      1 S                    -0.041837      -0.000000
      2 S                    -0.037988      -0.000000
      3 C                    -0.170970       0.000000
      4 C                    -0.330419      -0.000000
      5 C                    -0.341865      -0.000000
      6 H                     0.122045       0.000000
      7 H                     0.135827      -0.000000
      8 H                     0.136054       0.000000
      9 H                     0.136844       0.000000
     10 H                     0.144127      -0.000000
     11 H                     0.142825      -0.000000
     12 H                     0.057443       0.000000
     13 H                     0.047914       0.000000
  --------------------------------------------------------
  Sum of atomic charges =     0.000000

                    Cartesian Multipole Moments
 -----------------------------------------------------------------
    Charge (ESU x 10^10)
                 0.0000
    Dipole Moment (Debye)
         X       0.7513      Y      -2.0176      Z       0.4721
       Tot       2.2041
    Quadrupole Moments (Debye-Ang)
        XX     -53.7659     XY      -4.0875     YY     -46.6274
        XZ      -1.1476     YZ       1.8126     ZZ     -47.1590

 Final energy is   -915.476149506656
 **  OPTIMIZATION CONVERGED  **
 Total job time:  28.46s(wall), 319.35s(cpu)
        *  Thank you very much for using Q-Chem.  Have a nice day.  *
