 Q-Chem 5.1, Q-Chem, Inc., Pleasanton, CA (2018)
 Q-Chem 5.1.1 for Intel X86 EM64T Linux

User input:
--------------------------------------------------------------

$comment
potential surface scanner
$end

$rem
JOBTYPE  PES_SCAN
UNRESTRICTED TRUE
SYM_IGNORE  TRUE
GEOM_OPT_MAX_CYCLES 400
SCF_MAX_CYCLES 400
METHOD   B3LYP
BASIS   6-31G**
PDB_PRINT 2
SCF_CONVERGENCE 6
THRESH 14
SCF_PRINT 1
$end
$molecule
0 1
S 2.749000 0.445300 -0.001100
S -2.750400 0.444400 -0.000400
C 0.000900 0.283600 0.001800
C 1.255600 -0.587300 0.000700
C -1.255100 -0.586000 -0.001000
H 0.001400 0.930000 0.889200
H 0.001400 0.933800 -0.882900
H 1.280200 -1.230100 0.886500
H 1.278600 -1.230200 -0.885100
H -1.279500 -1.231800 0.882600
H -1.278100 -1.225300 -0.889300
H 3.631700 -0.564200 -0.001900
H -2.527500 1.041400 1.179800
$end
$scan
stre 2 13 3.900000 3.901000 0.100000
$end
--------------------------------------------------------------

    9    -915.5215846885      2.52e-07  Convergence criterion met
 Total energy in the final basis set =     -915.5215846885
    9    -915.5152101994      3.15e-07  Convergence criterion met
 Total energy in the final basis set =     -915.5152101994
    9    -915.4981484887      3.55e-07  Convergence criterion met
 Total energy in the final basis set =     -915.4981484887
    9    -915.4770149872      6.00e-07  Convergence criterion met
 Total energy in the final basis set =     -915.4770149872
    9    -915.4554071200      6.49e-07  Convergence criterion met
 Total energy in the final basis set =     -915.4554071200
    9    -915.4351511441      8.80e-07  Convergence criterion met
 Total energy in the final basis set =     -915.4351511441
   10    -915.4167477920      4.52e-07  Convergence criterion met
 Total energy in the final basis set =     -915.4167477920
   10    -915.4003736223      6.77e-07  Convergence criterion met
   45    -915.3196545355      5.30e-07  Convergence criterion met
 Total energy in the final basis set =     -915.3196545355
   62    -915.3269241296      6.38e-07  Convergence criterion met
 Total energy in the final basis set =     -915.3269241296
   56    -915.3824340705      5.13e-07  Convergence criterion met
 Total energy in the final basis set =     -915.3824340705
   61    -915.3825620020      9.22e-07  Convergence criterion met
 Total energy in the final basis set =     -915.3825620020
   45    -915.3826145085      7.69e-07  Convergence criterion met
 Total energy in the final basis set =     -915.3826145085
   45    -915.3826161741      4.42e-07  Convergence criterion met
 Total energy in the final basis set =     -915.3826161741

             Standard Nuclear Orientation (Angstroms)
    I     Atom           X                Y                Z
 ----------------------------------------------------------------
    1      S       2.6427343345     0.5964731113     0.1258790634
    2      S      -2.8721357550     0.0181522075    -0.5900987280
    3      C      -0.0712908495     0.1718479405    -0.1850776826
    4      C       1.2358356210    -0.5970601925     0.0312205435
    5      C      -1.2632098862    -0.7820873881    -0.3142052186
    6      H      -0.2413129152     0.8582484081     0.6514660653
    7      H       0.0007094263     0.7853939053    -1.0895507795
    8      H       1.1926707441    -1.1717182866     0.9611448260
    9      H       1.4105515270    -1.2909309172    -0.7966572900
   10      H      -1.3660520931    -1.4246244428     0.5701642855
   11      H      -1.1272040628    -1.4713833207    -1.1601904729
   12      H       3.6117726100    -0.3155655391     0.3384515453
   13      H      -2.0448687012     2.0468545143     2.6363538426
 ----------------------------------------------------------------

   45    -915.3826192787      1.14e-07  Convergence criterion met
 Total energy in the final basis set =     -915.3826192787

                    Orbital Energies (a.u.)
 --------------------------------------------------------------

 Alpha MOs
 -- Occupied --
-88.894 -88.879 -10.234 -10.229 -10.205  -7.955  -7.941  -5.926
 -5.917  -5.907  -5.906  -5.903  -5.896  -0.831  -0.780  -0.707
 -0.626  -0.600  -0.495  -0.456  -0.433  -0.416  -0.387  -0.362
 -0.348  -0.332  -0.287  -0.248  -0.241

 Beta MOs
 -- Occupied --
-88.889 -88.879 -10.235 -10.229 -10.205  -7.950  -7.941  -5.914
 -5.908  -5.906  -5.904  -5.903  -5.896  -0.828  -0.773  -0.696
 -0.614  -0.591  -0.492  -0.455  -0.427  -0.412  -0.386  -0.359
 -0.342  -0.332  -0.318  -0.241  -0.234

          Ground-State Mulliken Net Atomic Charges

     Atom                 Charge (a.u.)    Spin (a.u.)
  --------------------------------------------------------
      1 S                    -0.039644       0.000485
      2 S                     0.008441       0.969212
      3 C                    -0.168708      -0.005953
      4 C                    -0.331870      -0.000374
      5 C                    -0.367047      -0.030278
      6 H                     0.128618       0.003733
      7 H                     0.132343       0.000353
      8 H                     0.136220       0.000115
      9 H                     0.135293      -0.000111
     10 H                     0.151846       0.023384
     11 H                     0.153388       0.031724
     12 H                     0.057332      -0.000073
     13 H                     0.003788      -0.992218
  --------------------------------------------------------
  Sum of atomic charges =    -0.000000

                    Cartesian Multipole Moments
 -----------------------------------------------------------------
    Charge (ESU x 10^10)
                 0.0000
    Dipole Moment (Debye)
         X       0.9179      Y      -2.2712      Z       0.3286
       Tot       2.4716
    Quadrupole Moments (Debye-Ang)
        XX     -53.3695     XY      -3.7587     YY     -47.8059
        XZ      -0.6740     YZ       0.3217     ZZ     -47.1923

 Final energy is   -915.382619278655
 **  OPTIMIZATION CONVERGED  **
 Total job time:  522.36s(wall), 6116.11s(cpu)
        *  Thank you very much for using Q-Chem.  Have a nice day.  *
