 Q-Chem 5.1, Q-Chem, Inc., Pleasanton, CA (2018)
 Q-Chem 5.1.1 for Intel X86 EM64T Linux

User input:
--------------------------------------------------------------

$comment
potential surface scanner
$end

$rem
JOBTYPE  PES_SCAN
UNRESTRICTED TRUE
SYM_IGNORE  TRUE
GEOM_OPT_MAX_CYCLES 400
SCF_MAX_CYCLES 400
METHOD   B3LYP
BASIS   6-31G**
PDB_PRINT 2
SCF_CONVERGENCE 6
THRESH 14
SCF_PRINT 1
$end
$molecule
0 1
S 2.749000 0.445300 -0.001100
S -2.750400 0.444400 -0.000400
C 0.000900 0.283600 0.001800
C 1.255600 -0.587300 0.000700
C -1.255100 -0.586000 -0.001000
H 0.001400 0.930000 0.889200
H 0.001400 0.933800 -0.882900
H 1.280200 -1.230100 0.886500
H 1.278600 -1.230200 -0.885100
H -1.279500 -1.231800 0.882600
H -1.278100 -1.225300 -0.889300
H 3.631700 -0.564200 -0.001900
H -2.527500 1.041400 1.179800
$end
$scan
stre 2 13 1.300000 1.301000 0.100000
$end
--------------------------------------------------------------

    9    -915.5215846885      2.52e-07  Convergence criterion met
 Total energy in the final basis set =     -915.5215846885
    9    -915.5220238037      2.48e-07  Convergence criterion met
 Total energy in the final basis set =     -915.5220238037
    9    -915.5221229498      2.49e-07  Convergence criterion met
 Total energy in the final basis set =     -915.5221229498
    9    -915.5221389737      2.49e-07  Convergence criterion met
 Total energy in the final basis set =     -915.5221389737
    9    -915.5221404877      2.50e-07  Convergence criterion met
 Total energy in the final basis set =     -915.5221404877

             Standard Nuclear Orientation (Angstroms)
    I     Atom           X                Y                Z
 ----------------------------------------------------------------
    1      S       2.7826326412     0.4549509371    -0.0150853600
    2      S      -2.8046470458     0.4435791623    -0.0136936605
    3      C       0.0252423781     0.2752244789     0.0145046021
    4      C       1.2734248208    -0.6125950206    -0.0014593642
    5      C      -1.2582972776    -0.5588315963     0.0272213281
    6      H       0.0519359087     0.9238922863     0.8982540166
    7      H       0.0222767233     0.9321867921    -0.8616106008
    8      H       1.3008037292    -1.2543178493     0.8840793743
    9      H       1.2797813439    -1.2482642771    -0.8916869874
   10      H      -1.2920676888    -1.2270070538     0.8929391695
   11      H      -1.3210715659    -1.1861523633    -0.8674801442
   12      H       3.6849410109    -0.5462108494    -0.0228505420
   13      H      -2.6367549781     1.0271453532     1.1357681684
 ----------------------------------------------------------------

    9    -915.5221413648      2.50e-07  Convergence criterion met
 Total energy in the final basis set =     -915.5221413648

                    Orbital Energies (a.u.)
 --------------------------------------------------------------

 Alpha MOs
 -- Occupied --
-88.878 -88.875 -10.229 -10.228 -10.205  -7.940  -7.939  -5.905
 -5.904  -5.902  -5.900  -5.895  -5.893  -0.829  -0.780  -0.713
 -0.637  -0.601  -0.494  -0.456  -0.440  -0.419  -0.388  -0.378
 -0.356  -0.333  -0.325  -0.242  -0.240

 Beta MOs
 -- Occupied --
-88.878 -88.875 -10.229 -10.228 -10.205  -7.940  -7.939  -5.905
 -5.904  -5.902  -5.900  -5.895  -5.893  -0.829  -0.780  -0.713
 -0.637  -0.601  -0.494  -0.456  -0.440  -0.419  -0.388  -0.378
 -0.356  -0.333  -0.325  -0.242  -0.240

          Ground-State Mulliken Net Atomic Charges

     Atom                 Charge (a.u.)    Spin (a.u.)
  --------------------------------------------------------
      1 S                    -0.042757       0.000000
      2 S                    -0.038783      -0.000000
      3 C                    -0.174080      -0.000000
      4 C                    -0.330056      -0.000000
      5 C                    -0.342423       0.000000
      6 H                     0.118952       0.000000
      7 H                     0.136176       0.000000
      8 H                     0.135578       0.000000
      9 H                     0.137222      -0.000000
     10 H                     0.138937      -0.000000
     11 H                     0.142653      -0.000000
     12 H                     0.057395      -0.000000
     13 H                     0.061188       0.000000
  --------------------------------------------------------
  Sum of atomic charges =     0.000000

                    Cartesian Multipole Moments
 -----------------------------------------------------------------
    Charge (ESU x 10^10)
                -0.0000
    Dipole Moment (Debye)
         X       0.6760      Y      -1.8809      Z       0.8033
       Tot       2.1541
    Quadrupole Moments (Debye-Ang)
        XX     -53.6740     XY      -4.4439     YY     -46.3925
        XZ      -2.2031     YZ       1.8241     ZZ     -46.6838

 Final energy is   -915.522141364795
 **  OPTIMIZATION CONVERGED  **
 Total job time:  24.10s(wall), 271.42s(cpu)
        *  Thank you very much for using Q-Chem.  Have a nice day.  *
