 Q-Chem 5.1, Q-Chem, Inc., Pleasanton, CA (2018)
 Q-Chem 5.1.1 for Intel X86 EM64T Linux

User input:
--------------------------------------------------------------

$comment
potential surface scanner
$end

$rem
JOBTYPE  PES_SCAN
UNRESTRICTED TRUE
SYM_IGNORE  TRUE
GEOM_OPT_MAX_CYCLES 400
SCF_MAX_CYCLES 400
METHOD   B3LYP
BASIS   6-31G**
PDB_PRINT 2
SCF_CONVERGENCE 6
THRESH 14
SCF_PRINT 1
$end
$molecule
0 3
S 2.679369 0.500337 0.408089
S -2.896507 0.008204 0.090900
C -0.054846 0.160994 0.186498
C 1.259634 -0.591877 -0.041250
C -1.255341 -0.728871 -0.154920
H -0.127188 0.488492 1.228379
H -0.081974 1.065505 -0.429057
H 1.292901 -1.494256 0.576934
H 1.354760 -0.887815 -1.090464
H -1.252728 -1.646660 0.450671
H -1.220014 -1.068562 -1.199018
H 3.654640 -0.381927 0.113873
H -2.244507 2.000035 1.038268
$end
$scan
stre 2 13 2.200000 2.201000 0.100000
$end
--------------------------------------------------------------

   10    -915.3821121199      7.39e-07  Convergence criterion met
 Total energy in the final basis set =     -915.3821121199
   10    -915.3811847120      7.04e-07  Convergence criterion met
 Total energy in the final basis set =     -915.3811847120
   10    -915.3811692569      7.04e-07  Convergence criterion met
 Total energy in the final basis set =     -915.3811692569
   10    -915.3811765764      7.07e-07  Convergence criterion met
 Total energy in the final basis set =     -915.3811765764

             Standard Nuclear Orientation (Angstroms)
    I     Atom           X                Y                Z
 ----------------------------------------------------------------
    1      S       2.6828769332     0.4955492423     0.4087033575
    2      S      -2.8992488780     0.0196037580     0.1013207107
    3      C      -0.0534248717     0.1706269778     0.1941531522
    4      C       1.2565796927    -0.5881159397    -0.0402997452
    5      C      -1.2575075202    -0.7149185453    -0.1462879668
    6      H      -0.1210446366     0.4956275038     1.2369904236
    7      H      -0.0783593870     1.0771189357    -0.4183643174
    8      H       1.2874335925    -1.4929791892     0.5744070313
    9      H       1.3471023362    -0.8806455011    -1.0909042525
   10      H      -1.2551411037    -1.6345157027     0.4565148174
   11      H      -1.2253834951    -1.0523457235    -1.1913000018
   12      H       3.6528904132    -0.3902718546     0.1077749997
   13      H      -2.2285740754     1.9188650382     0.9861947912
 ----------------------------------------------------------------

   10    -915.3811772165      7.09e-07  Convergence criterion met
 Total energy in the final basis set =     -915.3811772165

                    Orbital Energies (a.u.)
 --------------------------------------------------------------

 Alpha MOs
 -- Occupied --
-88.915 -88.880 -10.244 -10.232 -10.209  -7.975  -7.943  -5.946
 -5.936  -5.930  -5.908  -5.904  -5.897  -0.838  -0.789  -0.716
 -0.635  -0.606  -0.500  -0.460  -0.439  -0.424  -0.393  -0.366
 -0.362  -0.335  -0.313  -0.302  -0.243  -0.191

 Beta MOs
 -- Occupied --
-88.909 -88.880 -10.244 -10.232 -10.208  -7.969  -7.943  -5.932
 -5.927  -5.923  -5.908  -5.904  -5.897  -0.834  -0.779  -0.702
 -0.619  -0.598  -0.496  -0.459  -0.432  -0.418  -0.391  -0.362
 -0.351  -0.334  -0.263  -0.243

          Ground-State Mulliken Net Atomic Charges

     Atom                 Charge (a.u.)    Spin (a.u.)
  --------------------------------------------------------
      1 S                    -0.033699       0.001339
      2 S                     0.115061       1.102856
      3 C                    -0.171557       0.013950
      4 C                    -0.333151      -0.001391
      5 C                    -0.372673      -0.035486
      6 H                     0.141262      -0.000609
      7 H                     0.137837      -0.000002
      8 H                     0.135221       0.000546
      9 H                     0.135566       0.000828
     10 H                     0.159037       0.032208
     11 H                     0.158100       0.027610
     12 H                     0.057170       0.000069
     13 H                    -0.128175       0.858083
  --------------------------------------------------------
  Sum of atomic charges =     0.000000

                    Cartesian Multipole Moments
 -----------------------------------------------------------------
    Charge (ESU x 10^10)
                -0.0000
    Dipole Moment (Debye)
         X       0.8257      Y      -3.1485      Z      -1.2442
       Tot       3.4846
    Quadrupole Moments (Debye-Ang)
        XX     -52.0027     XY      -1.2335     YY     -49.7020
        XZ      -0.2927     YZ      -1.8974     ZZ     -48.0636

 Final energy is   -915.381177216506
 **  OPTIMIZATION CONVERGED  **
 Total job time:  21.23s(wall), 240.83s(cpu)
        *  Thank you very much for using Q-Chem.  Have a nice day.  *
