 Q-Chem 5.1, Q-Chem, Inc., Pleasanton, CA (2018)
 Q-Chem 5.1.1 for Intel X86 EM64T Linux

User input:
--------------------------------------------------------------

$comment
potential surface scanner
$end

$rem
JOBTYPE  PES_SCAN
UNRESTRICTED TRUE
SYM_IGNORE  TRUE
GEOM_OPT_MAX_CYCLES 400
SCF_MAX_CYCLES 400
METHOD   B3LYP
BASIS   6-31G**
PDB_PRINT 2
SCF_CONVERGENCE 6
THRESH 14
SCF_PRINT 1
$end
$molecule
0 1
S 2.749000 0.445300 -0.001100
S -2.750400 0.444400 -0.000400
C 0.000900 0.283600 0.001800
C 1.255600 -0.587300 0.000700
C -1.255100 -0.586000 -0.001000
H 0.001400 0.930000 0.889200
H 0.001400 0.933800 -0.882900
H 1.280200 -1.230100 0.886500
H 1.278600 -1.230200 -0.885100
H -1.279500 -1.231800 0.882600
H -1.278100 -1.225300 -0.889300
H 3.631700 -0.564200 -0.001900
H -2.527500 1.041400 1.179800
$end
$scan
stre 2 13 1.000000 1.001000 0.100000
$end
--------------------------------------------------------------

    9    -915.5215846885      2.52e-07  Convergence criterion met
 Total energy in the final basis set =     -915.5215846885
    9    -915.5073768053      2.65e-07  Convergence criterion met
 Total energy in the final basis set =     -915.5073768053
    9    -915.4423840100      3.27e-07  Convergence criterion met
 Total energy in the final basis set =     -915.4423840100
    9    -915.4119292280      3.47e-07  Convergence criterion met
 Total energy in the final basis set =     -915.4119292280
    9    -915.4098426340      3.45e-07  Convergence criterion met
 Total energy in the final basis set =     -915.4098426340
    9    -915.4098377692      3.43e-07  Convergence criterion met
 Total energy in the final basis set =     -915.4098377692
    9    -915.4098446309      3.38e-07  Convergence criterion met
 Total energy in the final basis set =     -915.4098446309

             Standard Nuclear Orientation (Angstroms)
    I     Atom           X                Y                Z
 ----------------------------------------------------------------
    1      S       2.7864375694     0.4475081217    -0.0215389381
    2      S      -2.7941911204     0.4768812213     0.0566183084
    3      C       0.0284487873     0.2870920792     0.0385571616
    4      C       1.2700726514    -0.6092916625    -0.0005367973
    5      C      -1.2591210698    -0.5415489460     0.0576100823
    6      H       0.0704836031     0.9269603184     0.9280766160
    7      H       0.0195498051     0.9521101507    -0.8314264104
    8      H       1.3026216441    -1.2607022200     0.8777988421
    9      H       1.2599441568    -1.2363948392    -0.8967937357
   10      H      -1.2868988119    -1.2141491179     0.9206327471
   11      H      -1.3337467650    -1.1634173037    -0.8385596159
   12      H       3.6814618354    -0.5596578065    -0.0516024090
   13      H      -2.6368622854     0.9182100046     0.9400641488
 ----------------------------------------------------------------

    9    -915.4098450902      3.38e-07  Convergence criterion met
 Total energy in the final basis set =     -915.4098450902

                    Orbital Energies (a.u.)
 --------------------------------------------------------------

 Alpha MOs
 -- Occupied --
-88.878 -88.849 -10.229 -10.229 -10.206  -7.941  -7.928  -5.906
 -5.902  -5.895  -5.893  -5.888  -5.881  -0.837  -0.798  -0.732
 -0.651  -0.603  -0.495  -0.461  -0.447  -0.421  -0.390  -0.380
 -0.357  -0.334  -0.326  -0.245  -0.241

 Beta MOs
 -- Occupied --
-88.878 -88.849 -10.229 -10.229 -10.206  -7.941  -7.928  -5.906
 -5.902  -5.895  -5.893  -5.888  -5.881  -0.837  -0.798  -0.732
 -0.651  -0.603  -0.495  -0.461  -0.447  -0.421  -0.390  -0.380
 -0.357  -0.334  -0.326  -0.245  -0.241

          Ground-State Mulliken Net Atomic Charges

     Atom                 Charge (a.u.)    Spin (a.u.)
  --------------------------------------------------------
      1 S                    -0.042469       0.000000
      2 S                    -0.010500       0.000000
      3 C                    -0.178038      -0.000000
      4 C                    -0.330228      -0.000000
      5 C                    -0.341307       0.000000
      6 H                     0.119222      -0.000000
      7 H                     0.137064       0.000000
      8 H                     0.135656      -0.000000
      9 H                     0.137554       0.000000
     10 H                     0.137548       0.000000
     11 H                     0.144208       0.000000
     12 H                     0.057587       0.000000
     13 H                     0.033703       0.000000
  --------------------------------------------------------
  Sum of atomic charges =     0.000000

                    Cartesian Multipole Moments
 -----------------------------------------------------------------
    Charge (ESU x 10^10)
                 0.0000
    Dipole Moment (Debye)
         X       0.7265      Y      -1.8589      Z       0.8499
       Tot       2.1692
    Quadrupole Moments (Debye-Ang)
        XX     -53.7156     XY      -4.4207     YY     -46.0468
        XZ      -2.4394     YZ       1.8118     ZZ     -46.4964

 Final energy is   -915.409845090192
 **  OPTIMIZATION CONVERGED  **
 Total job time:  32.09s(wall), 363.06s(cpu)
        *  Thank you very much for using Q-Chem.  Have a nice day.  *
