 Q-Chem 5.1, Q-Chem, Inc., Pleasanton, CA (2018)
 Q-Chem 5.1.1 for Intel X86 EM64T Linux

User input:
--------------------------------------------------------------

$comment
potential surface scanner
$end

$rem
JOBTYPE  PES_SCAN
UNRESTRICTED TRUE
SYM_IGNORE  TRUE
GEOM_OPT_MAX_CYCLES 400
SCF_MAX_CYCLES 400
METHOD   B3LYP
BASIS   6-31G**
PDB_PRINT 2
SCF_CONVERGENCE 6
THRESH 14
SCF_PRINT 1
$end
$molecule
0 1
S 2.752232 0.492841 0.027931
S -2.822568 0.273866 -0.214129
C 0.005243 0.227258 -0.052461
C 1.278983 -0.622354 -0.014238
C -1.253617 -0.642142 -0.063797
H -0.029582 0.883599 0.825108
H 0.009870 0.874746 -0.935371
H 1.289754 -1.259019 0.875254
H 1.341569 -1.261943 -0.899677
H -1.296385 -1.304578 0.805646
H -1.268606 -1.286305 -0.956796
H 3.685139 -0.478516 0.081195
H -2.583830 1.526150 1.700235
$end
$scan
stre 2 13 2.400000 2.401000 0.100000
$end
--------------------------------------------------------------

   10    -915.4111908318      5.23e-07  Convergence criterion met
 Total energy in the final basis set =     -915.4111908318
   10    -915.4008595937      6.88e-07  Convergence criterion met
 Total energy in the final basis set =     -915.4008595937
   10    -915.4006338619      6.90e-07  Convergence criterion met
 Total energy in the final basis set =     -915.4006338619
   10    -915.4006349961      6.89e-07  Convergence criterion met
 Total energy in the final basis set =     -915.4006349961

             Standard Nuclear Orientation (Angstroms)
    I     Atom           X                Y                Z
 ----------------------------------------------------------------
    1      S       2.7479777172     0.4971379295     0.0300729187
    2      S      -2.8238763026     0.2563986379    -0.2315047765
    3      C       0.0024733457     0.2227113217    -0.0595693928
    4      C       1.2785556171    -0.6228385748    -0.0144601168
    5      C      -1.2538046609    -0.6508947048    -0.0747872058
    6      H      -0.0396584841     0.8798079819     0.8171733555
    7      H       0.0085235511     0.8691210195    -0.9432486778
    8      H       1.2879375845    -1.2569567678     0.8768499524
    9      H       1.3463181035    -1.2647294514    -0.8978767293
   10      H      -1.2961244867    -1.3153661457     0.7933089087
   11      H      -1.2622137268    -1.2953007673    -0.9685780089
   12      H       3.6834183236    -0.4710765272     0.0940667492
   13      H      -2.5713245817     1.5755890484     1.7574530234
 ----------------------------------------------------------------

   10    -915.4006357201      6.89e-07  Convergence criterion met
 Total energy in the final basis set =     -915.4006357201

                    Orbital Energies (a.u.)
 --------------------------------------------------------------

 Alpha MOs
 -- Occupied --
-88.911 -88.879 -10.235 -10.230 -10.207  -7.967  -7.941  -5.934
 -5.929  -5.920  -5.906  -5.903  -5.896  -0.831  -0.778  -0.703
 -0.622  -0.598  -0.495  -0.456  -0.431  -0.416  -0.386  -0.361
 -0.348  -0.333  -0.292  -0.245  -0.241

 Beta MOs
 -- Occupied --
-88.911 -88.879 -10.235 -10.230 -10.207  -7.967  -7.941  -5.934
 -5.929  -5.920  -5.906  -5.903  -5.896  -0.831  -0.778  -0.703
 -0.622  -0.598  -0.495  -0.456  -0.431  -0.416  -0.386  -0.361
 -0.348  -0.333  -0.292  -0.245  -0.241

          Ground-State Mulliken Net Atomic Charges

     Atom                 Charge (a.u.)    Spin (a.u.)
  --------------------------------------------------------
      1 S                    -0.039737       0.000000
      2 S                    -0.018366      -0.000000
      3 C                    -0.170075      -0.000000
      4 C                    -0.331451       0.000000
      5 C                    -0.350462       0.000000
      6 H                     0.127974       0.000000
      7 H                     0.135666       0.000000
      8 H                     0.136826      -0.000000
      9 H                     0.136163      -0.000000
     10 H                     0.149872       0.000000
     11 H                     0.148205      -0.000000
     12 H                     0.057597       0.000000
     13 H                     0.017788       0.000000
  --------------------------------------------------------
  Sum of atomic charges =     0.000000

                    Cartesian Multipole Moments
 -----------------------------------------------------------------
    Charge (ESU x 10^10)
                 0.0000
    Dipole Moment (Debye)
         X       0.8832      Y      -2.2902      Z       0.1647
       Tot       2.4602
    Quadrupole Moments (Debye-Ang)
        XX     -53.8104     XY      -3.4054     YY     -46.8825
        XZ      -0.0174     YZ       1.6231     ZZ     -47.2846

 Final energy is   -915.400635720113
 **  OPTIMIZATION CONVERGED  **
 Total job time:  21.69s(wall), 242.14s(cpu)
        *  Thank you very much for using Q-Chem.  Have a nice day.  *
