 Q-Chem 5.1, Q-Chem, Inc., Pleasanton, CA (2018)
 Q-Chem 5.1.1 for Intel X86 EM64T Linux

User input:
--------------------------------------------------------------

$comment
potential surface scanner
$end

$rem
JOBTYPE  PES_SCAN
UNRESTRICTED TRUE
SYM_IGNORE  TRUE
GEOM_OPT_MAX_CYCLES 400
SCF_MAX_CYCLES 400
METHOD   B3LYP
BASIS   6-31G**
PDB_PRINT 2
SCF_CONVERGENCE 6
THRESH 14
SCF_PRINT 1
$end
$molecule
0 1
S 2.749000 0.445300 -0.001100
S -2.750400 0.444400 -0.000400
C 0.000900 0.283600 0.001800
C 1.255600 -0.587300 0.000700
C -1.255100 -0.586000 -0.001000
H 0.001400 0.930000 0.889200
H 0.001400 0.933800 -0.882900
H 1.280200 -1.230100 0.886500
H 1.278600 -1.230200 -0.885100
H -1.279500 -1.231800 0.882600
H -1.278100 -1.225300 -0.889300
H 3.631700 -0.564200 -0.001900
H -2.527500 1.041400 1.179800
$end
$scan
stre 2 13 1.100000 1.101000 0.100000
$end
--------------------------------------------------------------

    9    -915.5215846885      2.52e-07  Convergence criterion met
 Total energy in the final basis set =     -915.5215846885
    9    -915.5073768053      2.65e-07  Convergence criterion met
 Total energy in the final basis set =     -915.5073768053
    9    -915.4769088915      2.98e-07  Convergence criterion met
 Total energy in the final basis set =     -915.4769088915
    9    -915.4763060204      2.98e-07  Convergence criterion met
 Total energy in the final basis set =     -915.4763060204
    9    -915.4763648950      2.96e-07  Convergence criterion met
 Total energy in the final basis set =     -915.4763648950
    9    -915.4763691867      2.95e-07  Convergence criterion met
 Total energy in the final basis set =     -915.4763691867
    9    -915.4763744971      2.93e-07  Convergence criterion met
 Total energy in the final basis set =     -915.4763744971
    9    -915.4763757212      2.92e-07  Convergence criterion met
 Total energy in the final basis set =     -915.4763757212
    9    -915.4763782443      2.91e-07  Convergence criterion met
 Total energy in the final basis set =     -915.4763782443
    9    -915.4763801919      2.91e-07  Convergence criterion met
 Total energy in the final basis set =     -915.4763801919
    9    -915.4763820835      2.90e-07  Convergence criterion met
 Total energy in the final basis set =     -915.4763820835

             Standard Nuclear Orientation (Angstroms)
    I     Atom           X                Y                Z
 ----------------------------------------------------------------
    1      S       2.7885490610     0.4474648761    -0.0215857096
    2      S      -2.7960419381     0.4741692052     0.0305224316
    3      C       0.0295577039     0.2849711711     0.0266942696
    4      C       1.2721580852    -0.6102379608    -0.0016302147
    5      C      -1.2591686293    -0.5424341106     0.0458618276
    6      H       0.0680653389     0.9319752089     0.9111309945
    7      H       0.0239532645     0.9434792374    -0.8482952016
    8      H       1.3022122766    -1.2557248085     0.8810894650
    9      H       1.2679451065    -1.2415933324    -0.8948645936
   10      H      -1.2901675985    -1.2104564294     0.9121153900
   11      H      -1.3303408501    -1.1687454000    -0.8478019572
   12      H       3.6835788446    -0.5601523980    -0.0351579710
   13      H      -2.6521006650     0.9308847411     1.0208212693
 ----------------------------------------------------------------

    9    -915.4763830782      2.91e-07  Convergence criterion met
 Total energy in the final basis set =     -915.4763830782

                    Orbital Energies (a.u.)
 --------------------------------------------------------------

 Alpha MOs
 -- Occupied --
-88.878 -88.859 -10.229 -10.228 -10.205  -7.940  -7.931  -5.905
 -5.902  -5.895  -5.895  -5.891  -5.884  -0.832  -0.790  -0.725
 -0.647  -0.602  -0.495  -0.459  -0.446  -0.421  -0.389  -0.380
 -0.357  -0.333  -0.325  -0.243  -0.240

 Beta MOs
 -- Occupied --
-88.878 -88.859 -10.229 -10.228 -10.205  -7.940  -7.931  -5.905
 -5.902  -5.895  -5.895  -5.891  -5.884  -0.832  -0.790  -0.725
 -0.647  -0.602  -0.495  -0.459  -0.446  -0.421  -0.389  -0.380
 -0.357  -0.333  -0.325  -0.243  -0.240

          Ground-State Mulliken Net Atomic Charges

     Atom                 Charge (a.u.)    Spin (a.u.)
  --------------------------------------------------------
      1 S                    -0.042767      -0.000000
      2 S                    -0.029831       0.000000
      3 C                    -0.175637       0.000000
      4 C                    -0.330204      -0.000000
      5 C                    -0.342746      -0.000000
      6 H                     0.118982       0.000000
      7 H                     0.136404       0.000000
      8 H                     0.135472       0.000000
      9 H                     0.137434       0.000000
     10 H                     0.137552       0.000000
     11 H                     0.143665       0.000000
     12 H                     0.057436      -0.000000
     13 H                     0.054240      -0.000000
  --------------------------------------------------------
  Sum of atomic charges =    -0.000000

                    Cartesian Multipole Moments
 -----------------------------------------------------------------
    Charge (ESU x 10^10)
                 0.0000
    Dipole Moment (Debye)
         X       0.6744      Y      -1.8845      Z       0.8723
       Tot       2.1833
    Quadrupole Moments (Debye-Ang)
        XX     -53.6189     XY      -4.4082     YY     -46.2658
        XZ      -2.4575     YZ       1.7795     ZZ     -46.4682

 Final energy is   -915.476383078231
 **  OPTIMIZATION CONVERGED  **
 Total job time:  47.17s(wall), 538.63s(cpu)
        *  Thank you very much for using Q-Chem.  Have a nice day.  *
