 Q-Chem 5.1, Q-Chem, Inc., Pleasanton, CA (2018)
 Q-Chem 5.1.1 for Intel X86 EM64T Linux

User input:
--------------------------------------------------------------

$comment
potential surface scanner
$end

$rem
JOBTYPE  PES_SCAN
UNRESTRICTED TRUE
SYM_IGNORE  TRUE
GEOM_OPT_MAX_CYCLES 400
SCF_MAX_CYCLES 400
METHOD   B3LYP
BASIS   6-31G**
PDB_PRINT 2
SCF_CONVERGENCE 6
THRESH 14
SCF_PRINT 1
$end
$molecule
0 3
S 2.582039 0.644885 0.217489
S -2.911048 -0.040174 -0.584447
C -0.114290 0.169160 -0.169605
C 1.204056 -0.575617 0.061420
C -1.279654 -0.807820 -0.355129
H -0.325159 0.831486 0.677229
H -0.030094 0.806606 -1.056670
H 1.149860 -1.172230 0.976937
H 1.415543 -1.246510 -0.776760
H -1.386557 -1.469301 0.517252
H -1.109464 -1.476378 -1.209022
H 3.571223 -0.253068 0.394351
H -1.658254 2.012563 2.485858
$end
$scan
stre 2 13 3.800000 3.801000 0.100000
$end
--------------------------------------------------------------

   10    -915.3822074159      4.97e-07  Convergence criterion met
 Total energy in the final basis set =     -915.3822074159
   10    -915.3821455350      5.30e-07  Convergence criterion met
 Total energy in the final basis set =     -915.3821455350
   10    -915.3821585274      5.41e-07  Convergence criterion met
 Total energy in the final basis set =     -915.3821585274
   10    -915.3821798665      5.65e-07  Convergence criterion met
 Total energy in the final basis set =     -915.3821798665
   10    -915.3821814141      5.66e-07  Convergence criterion met
 Total energy in the final basis set =     -915.3821814141

             Standard Nuclear Orientation (Angstroms)
    I     Atom           X                Y                Z
 ----------------------------------------------------------------
    1      S       2.5922412596     0.6381979468     0.2081426555
    2      S      -2.9087077150    -0.0235847584    -0.5570824311
    3      C      -0.1075494789     0.1736485619    -0.1664695919
    4      C       1.2084326576    -0.5765777105     0.0595242805
    5      C      -1.2782776438    -0.7986566113    -0.3460689782
    6      H      -0.3129298464     0.8382388633     0.6800247527
    7      H      -0.0243409712     0.8094357360    -1.0548878420
    8      H       1.1557568568    -1.1721746626     0.9757985066
    9      H       1.4130708955    -1.2490738037    -0.7790645295
   10      H      -1.3827841917    -1.4586237011     0.5280450580
   11      H      -1.1161483508    -1.4680559657    -1.2005125875
   12      H       3.5774985105    -0.2635790461     0.3874569845
   13      H      -1.7080609822     1.9744071512     2.4439967222
 ----------------------------------------------------------------

   10    -915.3821834610      5.65e-07  Convergence criterion met
 Total energy in the final basis set =     -915.3821834610

                    Orbital Energies (a.u.)
 --------------------------------------------------------------

 Alpha MOs
 -- Occupied --
-88.894 -88.879 -10.235 -10.229 -10.206  -7.955  -7.941  -5.926
 -5.917  -5.908  -5.906  -5.903  -5.896  -0.831  -0.780  -0.707
 -0.626  -0.600  -0.495  -0.456  -0.433  -0.417  -0.387  -0.363
 -0.349  -0.333  -0.315  -0.286  -0.247  -0.241

 Beta MOs
 -- Occupied --
-88.889 -88.879 -10.235 -10.229 -10.205  -7.950  -7.941  -5.914
 -5.908  -5.906  -5.904  -5.903  -5.896  -0.828  -0.773  -0.696
 -0.614  -0.591  -0.492  -0.455  -0.427  -0.412  -0.386  -0.359
 -0.342  -0.332  -0.241  -0.235

          Ground-State Mulliken Net Atomic Charges

     Atom                 Charge (a.u.)    Spin (a.u.)
  --------------------------------------------------------
      1 S                    -0.039411       0.000749
      2 S                     0.010553       0.976804
      3 C                    -0.167950       0.013653
      4 C                    -0.331756      -0.000664
      5 C                    -0.366798      -0.030467
      6 H                     0.128562      -0.005774
      7 H                     0.130036       0.000903
      8 H                     0.136051       0.000220
      9 H                     0.135620       0.000663
     10 H                     0.153181       0.032868
     11 H                     0.151756       0.022162
     12 H                     0.057329      -0.000081
     13 H                     0.002826       0.988963
  --------------------------------------------------------
  Sum of atomic charges =    -0.000000

                    Cartesian Multipole Moments
 -----------------------------------------------------------------
    Charge (ESU x 10^10)
                 0.0000
    Dipole Moment (Debye)
         X       0.9541      Y      -2.2743      Z       0.2195
       Tot       2.4761
    Quadrupole Moments (Debye-Ang)
        XX     -53.1609     XY      -3.6299     YY     -47.9506
        XZ      -1.0309     YZ      -0.5942     ZZ     -47.3421

 Final energy is   -915.382183461017
 **  OPTIMIZATION CONVERGED  **
 Total job time:  25.09s(wall), 285.18s(cpu)
        *  Thank you very much for using Q-Chem.  Have a nice day.  *
