 Q-Chem 5.1, Q-Chem, Inc., Pleasanton, CA (2018)
 Q-Chem 5.1.1 for Intel X86 EM64T Linux

User input:
--------------------------------------------------------------

$comment
potential surface scanner
$end

$rem
JOBTYPE  PES_SCAN
UNRESTRICTED TRUE
SYM_IGNORE  TRUE
GEOM_OPT_MAX_CYCLES 400
SCF_MAX_CYCLES 400
METHOD   B3LYP
BASIS   6-31G**
PDB_PRINT 2
SCF_CONVERGENCE 6
THRESH 14
SCF_PRINT 1
$end
$molecule
0 1
S 2.759903 0.483893 0.022605
S -2.821304 0.320062 -0.157595
C 0.009741 0.239312 -0.028074
C 1.277675 -0.619856 -0.013485
C -1.255449 -0.620453 -0.032514
H -0.005458 0.888945 0.855136
H 0.009056 0.894270 -0.905527
H 1.294497 -1.266052 0.869046
H 1.324889 -1.250335 -0.906294
H -1.296386 -1.282007 0.837429
H -1.285364 -1.260342 -0.925631
H 3.686317 -0.494860 0.048227
H -2.589913 1.391024 1.515576
$end
$scan
stre 2 13 2.100000 2.101000 0.100000
$end
--------------------------------------------------------------

    9    -915.4480383454      7.30e-07  Convergence criterion met
 Total energy in the final basis set =     -915.4480383454
    9    -915.4352662646      9.03e-07  Convergence criterion met
 Total energy in the final basis set =     -915.4352662646
    9    -915.4349432681      9.05e-07  Convergence criterion met
 Total energy in the final basis set =     -915.4349432681

             Standard Nuclear Orientation (Angstroms)
    I     Atom           X                Y                Z
 ----------------------------------------------------------------
    1      S       2.7573440794     0.4869481789     0.0245316760
    2      S      -2.8217833547     0.3052718904    -0.1765819066
    3      C       0.0082995519     0.2352643419    -0.0367461224
    4      C       1.2782010113    -0.6207659976    -0.0137632661
    5      C      -1.2549320768    -0.6274341962    -0.0430474781
    6      H      -0.0134364356     0.8874446051     0.8443903134
    7      H       0.0094704461     0.8874548277    -0.9162379471
    8      H       1.2927970609    -1.2634574506     0.8713581905
    9      H       1.3308932094    -1.2546393171    -0.9038865656
   10      H      -1.2965474526    -1.2889725380     0.8269434774
   11      H      -1.2804328295    -1.2690119148    -0.9359874406
   12      H       3.6860854595    -0.4892809655     0.0596743496
   13      H      -2.5877546693     1.4347795358     1.5782517198
 ----------------------------------------------------------------

    9    -915.4349440094      9.04e-07  Convergence criterion met
 Total energy in the final basis set =     -915.4349440094

                    Orbital Energies (a.u.)
 --------------------------------------------------------------

 Alpha MOs
 -- Occupied --
-88.907 -88.879 -10.233 -10.229 -10.206  -7.963  -7.941  -5.930
 -5.926  -5.917  -5.906  -5.903  -5.896  -0.829  -0.776  -0.702
 -0.622  -0.597  -0.494  -0.455  -0.431  -0.415  -0.385  -0.361
 -0.348  -0.332  -0.309  -0.244  -0.241

 Beta MOs
 -- Occupied --
-88.907 -88.879 -10.233 -10.229 -10.206  -7.963  -7.941  -5.930
 -5.926  -5.917  -5.906  -5.903  -5.896  -0.829  -0.776  -0.702
 -0.622  -0.597  -0.494  -0.455  -0.431  -0.415  -0.385  -0.361
 -0.348  -0.332  -0.309  -0.244  -0.241

          Ground-State Mulliken Net Atomic Charges

     Atom                 Charge (a.u.)    Spin (a.u.)
  --------------------------------------------------------
      1 S                    -0.040847       0.000000
      2 S                    -0.029054       0.000000
      3 C                    -0.169767       0.000000
      4 C                    -0.330961      -0.000000
      5 C                    -0.345807      -0.000000
      6 H                     0.125109      -0.000000
      7 H                     0.135576       0.000000
      8 H                     0.136402       0.000000
      9 H                     0.136442       0.000000
     10 H                     0.147434       0.000000
     11 H                     0.145159       0.000000
     12 H                     0.057470       0.000000
     13 H                     0.032844      -0.000000
  --------------------------------------------------------
  Sum of atomic charges =     0.000000

                    Cartesian Multipole Moments
 -----------------------------------------------------------------
    Charge (ESU x 10^10)
                 0.0000
    Dipole Moment (Debye)
         X       0.8087      Y      -2.1637      Z       0.3029
       Tot       2.3297
    Quadrupole Moments (Debye-Ang)
        XX     -53.7897     XY      -3.7193     YY     -46.8018
        XZ      -0.5347     YZ       1.7236     ZZ     -47.2177

 Final energy is   -915.434944009428
 **  OPTIMIZATION CONVERGED  **
 Total job time:  16.17s(wall), 179.84s(cpu)
        *  Thank you very much for using Q-Chem.  Have a nice day.  *
