 Q-Chem 5.1, Q-Chem, Inc., Pleasanton, CA (2018)
 Q-Chem 5.1.1 for Intel X86 EM64T Linux

User input:
--------------------------------------------------------------

$comment
potential surface scanner
$end

$rem
JOBTYPE  PES_SCAN
UNRESTRICTED TRUE
SYM_IGNORE  TRUE
GEOM_OPT_MAX_CYCLES 400
SCF_MAX_CYCLES 400
METHOD   B3LYP
BASIS   6-31G**
PDB_PRINT 2
SCF_CONVERGENCE 6
THRESH 14
SCF_PRINT 1
$end
$molecule
0 3
S 2.685233 0.492305 0.408639
S -2.902570 0.032592 0.110393
C -0.052327 0.179896 0.200975
C 1.253335 -0.584622 -0.039044
C -1.260789 -0.700873 -0.138304
H -0.115431 0.503383 1.244286
H -0.075065 1.088006 -0.408945
H 1.282211 -1.491057 0.573491
H 1.340036 -0.875103 -1.090573
H -1.260197 -1.621821 0.462337
H -1.232214 -1.036015 -1.184143
H 3.651513 -0.395977 0.102908
H -2.205536 1.832885 0.936885
$end
$scan
stre 2 13 2.000000 2.001000 0.100000
$end
--------------------------------------------------------------

   10    -915.3797021374      6.92e-07  Convergence criterion met
 Total energy in the final basis set =     -915.3797021374
   10    -915.3775107965      6.77e-07  Convergence criterion met
 Total energy in the final basis set =     -915.3775107965
   10    -915.3774858698      6.79e-07  Convergence criterion met
 Total energy in the final basis set =     -915.3774858698
   10    -915.3774996507      6.95e-07  Convergence criterion met
 Total energy in the final basis set =     -915.3774996507

             Standard Nuclear Orientation (Angstroms)
    I     Atom           X                Y                Z
 ----------------------------------------------------------------
    1      S       2.6888106014     0.4880341508     0.4066340283
    2      S      -2.9069912238     0.0449362728     0.1166283327
    3      C      -0.0500208310     0.1907590928     0.2071235864
    4      C       1.2501892132    -0.5814532316    -0.0374469862
    5      C      -1.2627677942    -0.6845690159    -0.1304942256
    6      H      -0.1080731864     0.5137550457     1.2506740038
    7      H      -0.0692222012     1.0997421081    -0.4014327936
    8      H       1.2761626510    -1.4882920912     0.5746355276
    9      H       1.3324808095    -0.8718456085    -1.0893618948
   10      H      -1.2640579853    -1.6067386500     0.4682790642
   11      H      -1.2366394346    -1.0190063568    -1.1766621925
   12      H       3.6494732286    -0.4050372277     0.0971207234
   13      H      -2.1911448470     1.7433145115     0.8932078263
 ----------------------------------------------------------------

   10    -915.3775001872      6.95e-07  Convergence criterion met
 Total energy in the final basis set =     -915.3775001872

                    Orbital Energies (a.u.)
 --------------------------------------------------------------

 Alpha MOs
 -- Occupied --
-88.920 -88.880 -10.245 -10.232 -10.208  -7.980  -7.942  -5.950
 -5.940  -5.935  -5.907  -5.904  -5.897  -0.840  -0.790  -0.717
 -0.637  -0.606  -0.501  -0.461  -0.440  -0.425  -0.394  -0.366
 -0.365  -0.335  -0.323  -0.305  -0.242  -0.164

 Beta MOs
 -- Occupied --
-88.912 -88.880 -10.245 -10.232 -10.208  -7.973  -7.942  -5.936
 -5.931  -5.927  -5.907  -5.904  -5.897  -0.834  -0.780  -0.703
 -0.620  -0.599  -0.496  -0.459  -0.432  -0.418  -0.391  -0.362
 -0.353  -0.334  -0.275  -0.242

          Ground-State Mulliken Net Atomic Charges

     Atom                 Charge (a.u.)    Spin (a.u.)
  --------------------------------------------------------
      1 S                    -0.033177       0.001751
      2 S                     0.149682       1.142257
      3 C                    -0.173013       0.019960
      4 C                    -0.333102      -0.001419
      5 C                    -0.371670      -0.039391
      6 H                     0.143108      -0.000103
      7 H                     0.139424       0.000176
      8 H                     0.134881       0.000739
      9 H                     0.135143       0.001085
     10 H                     0.160335       0.031690
     11 H                     0.159590       0.027331
     12 H                     0.056828       0.000209
     13 H                    -0.168028       0.815714
  --------------------------------------------------------
  Sum of atomic charges =    -0.000000

                    Cartesian Multipole Moments
 -----------------------------------------------------------------
    Charge (ESU x 10^10)
                -0.0000
    Dipole Moment (Debye)
         X       0.7104      Y      -3.2242      Z      -1.2776
       Tot       3.5401
    Quadrupole Moments (Debye-Ang)
        XX     -51.5978     XY      -1.1699     YY     -49.8809
        XZ      -0.3008     YZ      -1.9777     ZZ     -48.0170

 Final energy is   -915.377500187180
 **  OPTIMIZATION CONVERGED  **
 Total job time:  21.48s(wall), 241.39s(cpu)
        *  Thank you very much for using Q-Chem.  Have a nice day.  *
