 Q-Chem 5.1, Q-Chem, Inc., Pleasanton, CA (2018)
 Q-Chem 5.1.1 for Intel X86 EM64T Linux

User input:
--------------------------------------------------------------

$comment
potential surface scanner
$end

$rem
JOBTYPE  PES_SCAN
UNRESTRICTED TRUE
SYM_IGNORE  TRUE
GEOM_OPT_MAX_CYCLES 400
SCF_MAX_CYCLES 400
METHOD   B3LYP
BASIS   6-31G**
PDB_PRINT 2
SCF_CONVERGENCE 6
THRESH 14
SCF_PRINT 1
$end
$molecule
0 3
S 2.831461 0.294198 0.412320
S -3.364921 1.193705 0.545102
C 0.068607 0.240078 0.256458
C 1.295818 -0.641922 -0.021289
C -1.215379 -0.477887 -0.100366
H 0.058680 0.522736 1.315101
H 0.149845 1.167711 -0.320870
H 1.250222 -1.554238 0.579530
H 1.332593 -0.920206 -1.077995
H -1.432704 -1.368742 0.494427
H -1.364752 -0.666284 -1.166445
H 3.707139 -0.670724 0.068537
H -2.208409 0.305175 0.194398
$end
$scan
stre 2 13 1.400000 1.401000 0.100000
$end
--------------------------------------------------------------

   10    -915.4160721865      8.05e-07  Convergence criterion met
 Total energy in the final basis set =     -915.4160721865
   12    -915.4059532340      9.07e-07  Convergence criterion met
 Total energy in the final basis set =     -915.4059532340
   12    -915.4067937423      8.98e-07  Convergence criterion met
 Total energy in the final basis set =     -915.4067937423
   13    -915.4086507117      6.38e-07  Convergence criterion met
 Total energy in the final basis set =     -915.4086507117
   13    -915.4096242378      4.18e-07  Convergence criterion met
 Total energy in the final basis set =     -915.4096242378
   13    -915.4105251823      3.05e-07  Convergence criterion met
 Total energy in the final basis set =     -915.4105251823
   12    -915.4111126149      9.85e-07  Convergence criterion met
 Total energy in the final basis set =     -915.4111126149
   12    -915.4114253488      8.35e-07  Convergence criterion met
 Total energy in the final basis set =     -915.4114253488
   12    -915.4114912201      6.95e-07  Convergence criterion met
 Total energy in the final basis set =     -915.4114912201
   12    -915.4115111415      6.58e-07  Convergence criterion met
 Total energy in the final basis set =     -915.4115111415
   12    -915.4115383041      6.29e-07  Convergence criterion met
 Total energy in the final basis set =     -915.4115383041
   12    -915.4115450887      6.34e-07  Convergence criterion met
 Total energy in the final basis set =     -915.4115450887
   12    -915.4115465885      6.41e-07  Convergence criterion met
 Total energy in the final basis set =     -915.4115465885

             Standard Nuclear Orientation (Angstroms)
    I     Atom           X                Y                Z
 ----------------------------------------------------------------
    1      S       2.8853218735     0.3355410849     0.4342066326
    2      S      -3.7165950965     1.4790227981     0.6263016281
    3      C       0.1295084784     0.1292718687     0.2138136301
    4      C       1.4175675989    -0.6840685681    -0.0457653905
    5      C      -1.0900068110    -0.6499747613    -0.1572493615
    6      H       0.0995597017     0.4056339415     1.2744234515
    7      H       0.1792961707     1.0597705009    -0.3634017588
    8      H       1.4073696251    -1.6032191478     0.5451826435
    9      H       1.4915963066    -0.9469968661    -1.1039971359
   10      H      -1.4642720148    -1.4231527485     0.5087234727
   11      H      -1.3979715728    -0.7153946585    -1.1974851361
   12      H       3.8214217821    -0.5850512177     0.1309726842
   13      H      -2.6545960419     0.6222177739     0.3131826402
 ----------------------------------------------------------------

   12    -915.4115470054      6.43e-07  Convergence criterion met
 Total energy in the final basis set =     -915.4115470054

                    Orbital Energies (a.u.)
 --------------------------------------------------------------

 Alpha MOs
 -- Occupied --
-88.897 -88.880 -10.233 -10.221 -10.212  -7.959  -7.942  -5.930
 -5.920  -5.911  -5.907  -5.904  -5.896  -0.824  -0.753  -0.721
 -0.658  -0.602  -0.494  -0.458  -0.431  -0.423  -0.393  -0.384
 -0.363  -0.335  -0.309  -0.262  -0.243  -0.232

 Beta MOs
 -- Occupied --
-88.891 -88.880 -10.232 -10.212 -10.208  -7.953  -7.942  -5.915
 -5.912  -5.907  -5.907  -5.903  -5.896  -0.818  -0.741  -0.678
 -0.642  -0.594  -0.491  -0.454  -0.425  -0.407  -0.380  -0.376
 -0.360  -0.333  -0.246  -0.242

          Ground-State Mulliken Net Atomic Charges

     Atom                 Charge (a.u.)    Spin (a.u.)
  --------------------------------------------------------
      1 S                    -0.044305       0.020404
      2 S                    -0.087605       1.114473
      3 C                    -0.194597      -0.065960
      4 C                    -0.319816       0.045238
      5 C                    -0.252852       0.981445
      6 H                     0.133044       0.012016
      7 H                     0.132882       0.010642
      8 H                     0.139268      -0.000866
      9 H                     0.139492      -0.000778
     10 H                     0.129991      -0.039511
     11 H                     0.130023      -0.039536
     12 H                     0.058842       0.000450
     13 H                     0.035633      -0.038016
  --------------------------------------------------------
  Sum of atomic charges =    -0.000000

                    Cartesian Multipole Moments
 -----------------------------------------------------------------
    Charge (ESU x 10^10)
                 0.0000
    Dipole Moment (Debye)
         X       1.0685      Y      -2.5927      Z      -1.0067
       Tot       2.9795
    Quadrupole Moments (Debye-Ang)
        XX     -56.4035     XY      -0.7079     YY     -49.1460
        XZ      -0.2527     YZ      -1.4187     ZZ     -47.4574

 Final energy is   -915.411547005427
 **  OPTIMIZATION CONVERGED  **
 Total job time:  62.50s(wall), 723.21s(cpu)
        *  Thank you very much for using Q-Chem.  Have a nice day.  *
