 Q-Chem 5.1, Q-Chem, Inc., Pleasanton, CA (2018)
 Q-Chem 5.1.1 for Intel X86 EM64T Linux

User input:
--------------------------------------------------------------

$comment
potential surface scanner
$end

$rem
JOBTYPE  PES_SCAN
UNRESTRICTED TRUE
SYM_IGNORE  TRUE
GEOM_OPT_MAX_CYCLES 400
SCF_MAX_CYCLES 400
METHOD   B3LYP
BASIS   6-31G**
PDB_PRINT 2
SCF_CONVERGENCE 6
THRESH 14
SCF_PRINT 1
$end
$molecule
0 1
S 2.749000 0.445300 -0.001100
S -2.750400 0.444400 -0.000400
C 0.000900 0.283600 0.001800
C 1.255600 -0.587300 0.000700
C -1.255100 -0.586000 -0.001000
H 0.001400 0.930000 0.889200
H 0.001400 0.933800 -0.882900
H 1.280200 -1.230100 0.886500
H 1.278600 -1.230200 -0.885100
H -1.279500 -1.231800 0.882600
H -1.278100 -1.225300 -0.889300
H 3.631700 -0.564200 -0.001900
H -2.527500 1.041400 1.179800
$end
$scan
stre 2 13 0.700000 0.701000 0.100000
$end
--------------------------------------------------------------

    9    -915.5215846885      2.52e-07  Convergence criterion met
 Total energy in the final basis set =     -915.5215846885
    9    -915.5073768053      2.65e-07  Convergence criterion met
 Total energy in the final basis set =     -915.5073768053
    9    -915.4423840100      3.27e-07  Convergence criterion met
 Total energy in the final basis set =     -915.4423840100
    9    -915.3358320350      3.92e-07  Convergence criterion met
 Total energy in the final basis set =     -915.3358320350
    9    -915.0670097264      4.93e-07  Convergence criterion met
 Total energy in the final basis set =     -915.0670097264
    9    -914.9234009133      5.24e-07  Convergence criterion met
 Total energy in the final basis set =     -914.9234009133
    9    -914.7923659824      5.41e-07  Convergence criterion met
 Total energy in the final basis set =     -914.7923659824
    9    -914.7344379720      5.43e-07  Convergence criterion met
    9    -914.7302433346      4.98e-07  Convergence criterion met
 Total energy in the final basis set =     -914.7302433346
    9    -914.7302551463      5.01e-07  Convergence criterion met
 Total energy in the final basis set =     -914.7302551463
    9    -914.7302578237      5.03e-07  Convergence criterion met
 Total energy in the final basis set =     -914.7302578237
    9    -914.7302599105      5.04e-07  Convergence criterion met
 Total energy in the final basis set =     -914.7302599105
    9    -914.7302608730      5.04e-07  Convergence criterion met
 Total energy in the final basis set =     -914.7302608730
    9    -914.7302623689      5.04e-07  Convergence criterion met
 Total energy in the final basis set =     -914.7302623689

             Standard Nuclear Orientation (Angstroms)
    I     Atom           X                Y                Z
 ----------------------------------------------------------------
    1      S       2.7907072058     0.4388810584    -0.0181681670
    2      S      -2.7808778000     0.4962907228     0.1113225163
    3      C       0.0317007357     0.2970598956     0.0744702996
    4      C       1.2664581229    -0.6059136260    -0.0076382604
    5      C      -1.2574035858    -0.5289487423     0.1051704132
    6      H       0.0951365151     0.9212846806     0.9736760055
    7      H       0.0091486931     0.9757334304    -0.7847223690
    8      H       1.3066788748    -1.2849132673     0.8491870148
    9      H       1.2384220222    -1.2038812293    -0.9231317720
   10      H      -1.2830937935    -1.1943095379     0.9738280974
   11      H      -1.3370525133    -1.1565240240    -0.7860926263
   12      H       3.6769062725    -0.5733386749    -0.0943316807
   13      H      -2.6485307495     0.8421793140     0.7053305285
 ----------------------------------------------------------------

    9    -914.7302629739      5.05e-07  Convergence criterion met
 Total energy in the final basis set =     -914.7302629739

                    Orbital Energies (a.u.)
 --------------------------------------------------------------

 Alpha MOs
 -- Occupied --
-88.879 -88.829 -10.231 -10.229 -10.207  -7.953  -7.941  -5.929
 -5.906  -5.903  -5.900  -5.896  -5.892  -0.870  -0.815  -0.744
 -0.659  -0.604  -0.496  -0.465  -0.448  -0.425  -0.391  -0.381
 -0.359  -0.335  -0.327  -0.250  -0.241

 Beta MOs
 -- Occupied --
-88.879 -88.829 -10.231 -10.229 -10.207  -7.953  -7.941  -5.929
 -5.906  -5.903  -5.900  -5.896  -5.892  -0.870  -0.815  -0.744
 -0.659  -0.604  -0.496  -0.465  -0.448  -0.425  -0.391  -0.381
 -0.359  -0.335  -0.327  -0.250  -0.241

          Ground-State Mulliken Net Atomic Charges

     Atom                 Charge (a.u.)    Spin (a.u.)
  --------------------------------------------------------
      1 S                    -0.041811       0.000000
      2 S                     0.218236       0.000000
      3 C                    -0.183596       0.000000
      4 C                    -0.330818      -0.000000
      5 C                    -0.341086       0.000000
      6 H                     0.122042      -0.000000
      7 H                     0.138198      -0.000000
      8 H                     0.136205       0.000000
      9 H                     0.138171       0.000000
     10 H                     0.139166       0.000000
     11 H                     0.145852      -0.000000
     12 H                     0.057971       0.000000
     13 H                    -0.198529      -0.000000
  --------------------------------------------------------
  Sum of atomic charges =    -0.000000

                    Cartesian Multipole Moments
 -----------------------------------------------------------------
    Charge (ESU x 10^10)
                 0.0000
    Dipole Moment (Debye)
         X       0.8252      Y      -1.8635      Z       0.7309
       Tot       2.1651
    Quadrupole Moments (Debye-Ang)
        XX     -53.7959     XY      -4.3204     YY     -45.5528
        XZ      -2.3327     YZ       1.7018     ZZ     -46.5686

 Final energy is   -914.730262973917
 **  OPTIMIZATION CONVERGED  **
 Total job time:  80.77s(wall), 896.33s(cpu)
        *  Thank you very much for using Q-Chem.  Have a nice day.  *
