 Q-Chem 5.1, Q-Chem, Inc., Pleasanton, CA (2018)
 Q-Chem 5.1.1 for Intel X86 EM64T Linux

User input:
--------------------------------------------------------------

$comment
potential surface scanner
$end

$rem
JOBTYPE  PES_SCAN
UNRESTRICTED TRUE
SYM_IGNORE  TRUE
GEOM_OPT_MAX_CYCLES 400
SCF_MAX_CYCLES 400
METHOD   B3LYP
BASIS   6-31G**
PDB_PRINT 2
SCF_CONVERGENCE 6
THRESH 14
SCF_PRINT 1
$end
$molecule
0 3
S 2.682877 0.495549 0.408703
S -2.899249 0.019604 0.101321
C -0.053425 0.170627 0.194153
C 1.256580 -0.588116 -0.040300
C -1.257508 -0.714919 -0.146288
H -0.121045 0.495628 1.236990
H -0.078359 1.077119 -0.418364
H 1.287434 -1.492979 0.574407
H 1.347102 -0.880646 -1.090904
H -1.255141 -1.634516 0.456515
H -1.225383 -1.052346 -1.191300
H 3.652890 -0.390272 0.107775
H -2.228574 1.918865 0.986195
$end
$scan
stre 2 13 2.100000 2.101000 0.100000
$end
--------------------------------------------------------------

   10    -915.3811772140      7.09e-07  Convergence criterion met
 Total energy in the final basis set =     -915.3811772140
   10    -915.3797133968      6.79e-07  Convergence criterion met
 Total energy in the final basis set =     -915.3797133968
   10    -915.3796917407      6.81e-07  Convergence criterion met
 Total energy in the final basis set =     -915.3796917407

             Standard Nuclear Orientation (Angstroms)
    I     Atom           X                Y                Z
 ----------------------------------------------------------------
    1      S       2.6852334561     0.4923046473     0.4086386018
    2      S      -2.9025697762     0.0325916606     0.1103926663
    3      C      -0.0523271478     0.1798964281     0.2009745094
    4      C       1.2533351225    -0.5846218875    -0.0390440361
    5      C      -1.2607891416    -0.7008727194    -0.1383043881
    6      H      -0.1154309163     0.5033827738     1.2442864046
    7      H      -0.0750652638     1.0880061633    -0.4089454452
    8      H       1.2822111814    -1.4910573194     0.5734912030
    9      H       1.3400360192    -0.8751032898    -1.0905727620
   10      H      -1.2601971294    -1.6218211155     0.4623366617
   11      H      -1.2322144661    -1.0360145934    -1.1841429257
   12      H       3.6515129467    -0.3959773544     0.1029076580
   13      H      -2.2055358848     1.8328846063     0.9368848522
 ----------------------------------------------------------------

   10    -915.3797021370      6.92e-07  Convergence criterion met
 Total energy in the final basis set =     -915.3797021370

                    Orbital Energies (a.u.)
 --------------------------------------------------------------

 Alpha MOs
 -- Occupied --
-88.917 -88.880 -10.244 -10.232 -10.208  -7.978  -7.943  -5.948
 -5.938  -5.933  -5.907  -5.904  -5.897  -0.839  -0.790  -0.717
 -0.636  -0.606  -0.501  -0.461  -0.439  -0.425  -0.394  -0.366
 -0.364  -0.334  -0.318  -0.304  -0.242  -0.178

 Beta MOs
 -- Occupied --
-88.910 -88.880 -10.245 -10.232 -10.208  -7.971  -7.942  -5.934
 -5.929  -5.925  -5.907  -5.904  -5.897  -0.834  -0.779  -0.702
 -0.619  -0.599  -0.496  -0.459  -0.432  -0.418  -0.391  -0.362
 -0.352  -0.334  -0.268  -0.242

          Ground-State Mulliken Net Atomic Charges

     Atom                 Charge (a.u.)    Spin (a.u.)
  --------------------------------------------------------
      1 S                    -0.033432       0.001516
      2 S                     0.131675       1.121580
      3 C                    -0.172249       0.016684
      4 C                    -0.333105      -0.001417
      5 C                    -0.372344      -0.037423
      6 H                     0.142230      -0.000371
      7 H                     0.138745       0.000062
      8 H                     0.135048       0.000643
      9 H                     0.135368       0.000950
     10 H                     0.159708       0.031965
     11 H                     0.158886       0.027629
     12 H                     0.057014       0.000126
     13 H                    -0.147544       0.838056
  --------------------------------------------------------
  Sum of atomic charges =     0.000000

                    Cartesian Multipole Moments
 -----------------------------------------------------------------
    Charge (ESU x 10^10)
                -0.0000
    Dipole Moment (Debye)
         X       0.7690      Y      -3.2015      Z      -1.2677
       Tot       3.5282
    Quadrupole Moments (Debye-Ang)
        XX     -51.7828     XY      -1.1629     YY     -49.8252
        XZ      -0.2841     YZ      -1.9446     ZZ     -48.0419

 Final energy is   -915.379702136987
 **  OPTIMIZATION CONVERGED  **
 Total job time:  16.94s(wall), 191.50s(cpu)
        *  Thank you very much for using Q-Chem.  Have a nice day.  *
