 Q-Chem 5.1, Q-Chem, Inc., Pleasanton, CA (2018)
 Q-Chem 5.1.1 for Intel X86 EM64T Linux

User input:
--------------------------------------------------------------

$comment
potential surface scanner
$end

$rem
JOBTYPE  PES_SCAN
UNRESTRICTED TRUE
SYM_IGNORE  TRUE
GEOM_OPT_MAX_CYCLES 400
SCF_MAX_CYCLES 400
METHOD   B3LYP
BASIS   6-31G**
PDB_PRINT 2
SCF_CONVERGENCE 6
THRESH 14
SCF_PRINT 1
$end
$molecule
0 1
S 2.727987 0.515615 0.036899
S -2.833761 0.199578 -0.281368
C -0.012537 0.207341 -0.078925
C 1.273112 -0.622768 -0.014325
C -1.257147 -0.683113 -0.111125
H -0.076676 0.864373 0.796319
H -0.001725 0.853097 -0.963057
H 1.280310 -1.248963 0.882533
H 1.358290 -1.271353 -0.891373
H -1.299386 -1.355032 0.751573
H -1.240855 -1.322077 -1.010224
H 3.672743 -0.439373 0.144348
H -2.482152 1.726275 1.917625
$end
$scan
stre 2 13 2.800000 2.801000 0.100000
$end
--------------------------------------------------------------

   11    -915.3739143283      9.70e-07  Convergence criterion met
 Total energy in the final basis set =     -915.3739143283
   12    -915.3666300494      2.30e-07  Convergence criterion met
 Total energy in the final basis set =     -915.3666300494
   12    -915.3665001406      2.31e-07  Convergence criterion met
 Total energy in the final basis set =     -915.3665001406
   12    -915.3665218330      2.30e-07  Convergence criterion met
 Total energy in the final basis set =     -915.3665218330
   12    -915.3665235688      2.30e-07  Convergence criterion met
 Total energy in the final basis set =     -915.3665235688
   12    -915.3665284248      2.30e-07  Convergence criterion met
 Total energy in the final basis set =     -915.3665284248

             Standard Nuclear Orientation (Angstroms)
    I     Atom           X                Y                Z
 ----------------------------------------------------------------
    1      S       2.7224175761     0.5215268204     0.0405786813
    2      S      -2.8343162572     0.1842663880    -0.2979217004
    3      C      -0.0158347946     0.2012585932    -0.0857572005
    4      C       1.2726823847    -0.6230254559    -0.0146021916
    5      C      -1.2579623648    -0.6941008535    -0.1236692460
    6      H      -0.0907123236     0.8584495207     0.7890983144
    7      H      -0.0044545002     0.8471086347    -0.9699113406
    8      H       1.2793400157    -1.2481721509     0.8830065460
    9      H       1.3630348725    -1.2721639786    -0.8906781806
   10      H      -1.3007759504    -1.3665773950     0.7386926109
   11      H      -1.2357064059    -1.3344588297    -1.0221954148
   12      H       3.6702428517    -0.4290841628     0.1590829396
   13      H      -2.4597521042     1.7785728693     1.9731761824
 ----------------------------------------------------------------

   12    -915.3665288354      2.30e-07  Convergence criterion met
 Total energy in the final basis set =     -915.3665288354

                    Orbital Energies (a.u.)
 --------------------------------------------------------------

 Alpha MOs
 -- Occupied --
-88.912 -88.880 -10.238 -10.231 -10.208  -7.968  -7.942  -5.935
 -5.931  -5.921  -5.907  -5.904  -5.897  -0.832  -0.780  -0.705
 -0.622  -0.598  -0.496  -0.457  -0.432  -0.417  -0.387  -0.362
 -0.349  -0.333  -0.274  -0.246  -0.242

 Beta MOs
 -- Occupied --
-88.912 -88.880 -10.238 -10.231 -10.208  -7.968  -7.942  -5.935
 -5.931  -5.921  -5.907  -5.904  -5.897  -0.832  -0.780  -0.705
 -0.622  -0.598  -0.496  -0.457  -0.432  -0.417  -0.387  -0.362
 -0.349  -0.333  -0.274  -0.246  -0.242

          Ground-State Mulliken Net Atomic Charges

     Atom                 Charge (a.u.)    Spin (a.u.)
  --------------------------------------------------------
      1 S                    -0.038033      -0.000000
      2 S                    -0.009822      -0.000000
      3 C                    -0.171336       0.000000
      4 C                    -0.332000      -0.000000
      5 C                    -0.355117      -0.000000
      6 H                     0.130403      -0.000000
      7 H                     0.136329      -0.000000
      8 H                     0.137478       0.000000
      9 H                     0.136078       0.000000
     10 H                     0.151705      -0.000000
     11 H                     0.152777      -0.000000
     12 H                     0.057864      -0.000000
     13 H                     0.003674       0.000000
  --------------------------------------------------------
  Sum of atomic charges =     0.000000

                    Cartesian Multipole Moments
 -----------------------------------------------------------------
    Charge (ESU x 10^10)
                 0.0000
    Dipole Moment (Debye)
         X       1.0021      Y      -2.4225      Z       0.0363
       Tot       2.6218
    Quadrupole Moments (Debye-Ang)
        XX     -53.7754     XY      -3.0581     YY     -46.9534
        XZ       0.5720     YZ       1.4462     ZZ     -47.4771

 Final energy is   -915.366528835447
 **  OPTIMIZATION CONVERGED  **
 Total job time:  32.58s(wall), 373.31s(cpu)
        *  Thank you very much for using Q-Chem.  Have a nice day.  *
