 Q-Chem 5.1, Q-Chem, Inc., Pleasanton, CA (2018)
 Q-Chem 5.1.1 for Intel X86 EM64T Linux

User input:
--------------------------------------------------------------

$comment
potential surface scanner
$end

$rem
JOBTYPE  PES_SCAN
UNRESTRICTED TRUE
SYM_IGNORE  TRUE
GEOM_OPT_MAX_CYCLES 400
SCF_MAX_CYCLES 400
METHOD   B3LYP
BASIS   6-31G**
PDB_PRINT 2
SCF_CONVERGENCE 6
THRESH 14
SCF_PRINT 1
$end
$molecule
0 3
S 2.672664 0.510326 0.401183
S -2.887692 -0.037465 0.038478
C -0.054635 0.131603 0.148886
C 1.272363 -0.609097 -0.043455
C -1.243081 -0.774822 -0.190380
H -0.145579 0.478003 1.183472
H -0.080918 1.023286 -0.485881
H 1.307297 -1.496832 0.595334
H 1.386183 -0.927004 -1.084260
H -1.238931 -1.679681 0.434677
H -1.192531 -1.134499 -1.226656
H 3.663797 -0.362589 0.133368
H -2.350736 2.302370 1.274135
$end
$scan
stre 2 13 2.600000 2.601000 0.100000
$end
--------------------------------------------------------------

   10    -915.3830656095      9.06e-07  Convergence criterion met
 Total energy in the final basis set =     -915.3830656095
   10    -915.3829923189      8.75e-07  Convergence criterion met
 Total energy in the final basis set =     -915.3829923189
   10    -915.3830118515      8.72e-07  Convergence criterion met
 Total energy in the final basis set =     -915.3830118515
   10    -915.3830365810      8.66e-07  Convergence criterion met
 Total energy in the final basis set =     -915.3830365810
   10    -915.3830402526      8.65e-07  Convergence criterion met
 Total energy in the final basis set =     -915.3830402526
   10    -915.3830466314      8.66e-07  Convergence criterion met
 Total energy in the final basis set =     -915.3830466314
   10    -915.3830480212      8.69e-07  Convergence criterion met
 Total energy in the final basis set =     -915.3830480212
   10    -915.3830501664      8.77e-07  Convergence criterion met
 Total energy in the final basis set =     -915.3830501664
   10    -915.3830522271      8.86e-07  Convergence criterion met
 Total energy in the final basis set =     -915.3830522271
   10    -915.3830549086      8.97e-07  Convergence criterion met
 Total energy in the final basis set =     -915.3830549086
   10    -915.3830573396      9.01e-07  Convergence criterion met
 Total energy in the final basis set =     -915.3830573396
   10    -915.3830594954      8.97e-07  Convergence criterion met
 Total energy in the final basis set =     -915.3830594954
   10    -915.3830607977      8.86e-07  Convergence criterion met
 Total energy in the final basis set =     -915.3830607977

             Standard Nuclear Orientation (Angstroms)
    I     Atom           X                Y                Z
 ----------------------------------------------------------------
    1      S       2.6703528183     0.5113387145     0.4056378513
    2      S      -2.8919757637    -0.0291979514     0.0554763383
    3      C      -0.0577384989     0.1373614962     0.1607195435
    4      C       1.2677373041    -0.6033440297    -0.0431084802
    5      C      -1.2481727715    -0.7656713299    -0.1803552465
    6      H      -0.1439017819     0.4760335546     1.1983659328
    7      H      -0.0860657480     1.0336272901    -0.4672421231
    8      H       1.3046043623    -1.4965720979     0.5879128848
    9      H       1.3770264174    -0.9124817629    -1.0870593606
   10      H      -1.2425977754    -1.6765944667     0.4356890559
   11      H      -1.2029121794    -1.1169120733    -1.2200509622
   12      H       3.6596825173    -0.3615699813     0.1311639243
   13      H      -2.2978379006     2.2275816378     1.2017516417
 ----------------------------------------------------------------

   10    -915.3830612851      8.77e-07  Convergence criterion met
 Total energy in the final basis set =     -915.3830612851

                    Orbital Energies (a.u.)
 --------------------------------------------------------------

 Alpha MOs
 -- Occupied --
-88.907 -88.880 -10.240 -10.231 -10.208  -7.967  -7.942  -5.938
 -5.928  -5.921  -5.907  -5.904  -5.897  -0.836  -0.785  -0.712
 -0.631  -0.604  -0.499  -0.458  -0.437  -0.421  -0.391  -0.365
 -0.356  -0.334  -0.300  -0.296  -0.242  -0.228

 Beta MOs
 -- Occupied --
-88.901 -88.880 -10.240 -10.231 -10.208  -7.961  -7.942  -5.925
 -5.920  -5.915  -5.907  -5.904  -5.897  -0.832  -0.776  -0.700
 -0.617  -0.595  -0.495  -0.457  -0.430  -0.415  -0.389  -0.362
 -0.347  -0.334  -0.247  -0.242

          Ground-State Mulliken Net Atomic Charges

     Atom                 Charge (a.u.)    Spin (a.u.)
  --------------------------------------------------------
      1 S                    -0.035918       0.000941
      2 S                     0.062223       1.041905
      3 C                    -0.170343       0.007662
      4 C                    -0.332718      -0.001068
      5 C                    -0.371719      -0.031114
      6 H                     0.137615      -0.001224
      7 H                     0.134285       0.000039
      8 H                     0.135552       0.000296
      9 H                     0.135965       0.000522
     10 H                     0.156657       0.032620
     11 H                     0.155348       0.026089
     12 H                     0.057440      -0.000037
     13 H                    -0.064386       0.923369
  --------------------------------------------------------
  Sum of atomic charges =    -0.000000

                    Cartesian Multipole Moments
 -----------------------------------------------------------------
    Charge (ESU x 10^10)
                -0.0000
    Dipole Moment (Debye)
         X       0.9589      Y      -2.8010      Z      -1.0705
       Tot       3.1482
    Quadrupole Moments (Debye-Ang)
        XX     -52.6294     XY      -2.0030     YY     -48.8908
        XZ      -0.5688     YZ      -1.5717     ZZ     -48.0449

 Final energy is   -915.383061285067
 **  OPTIMIZATION CONVERGED  **
 Total job time:  58.25s(wall), 669.04s(cpu)
        *  Thank you very much for using Q-Chem.  Have a nice day.  *
