 Q-Chem 5.1, Q-Chem, Inc., Pleasanton, CA (2018)
 Q-Chem 5.1.1 for Intel X86 EM64T Linux

User input:
--------------------------------------------------------------

$comment
potential surface scanner
$end

$rem
JOBTYPE  PES_SCAN
UNRESTRICTED TRUE
SYM_IGNORE  TRUE
GEOM_OPT_MAX_CYCLES 400
SCF_MAX_CYCLES 400
METHOD   B3LYP
BASIS   6-31G**
PDB_PRINT 2
SCF_CONVERGENCE 6
THRESH 14
SCF_PRINT 1
$end
$molecule
0 1
S 2.749000 0.445300 -0.001100
S -2.750400 0.444400 -0.000400
C 0.000900 0.283600 0.001800
C 1.255600 -0.587300 0.000700
C -1.255100 -0.586000 -0.001000
H 0.001400 0.930000 0.889200
H 0.001400 0.933800 -0.882900
H 1.280200 -1.230100 0.886500
H 1.278600 -1.230200 -0.885100
H -1.279500 -1.231800 0.882600
H -1.278100 -1.225300 -0.889300
H 3.631700 -0.564200 -0.001900
H -2.527500 1.041400 1.179800
$end
$scan
stre 2 13 0.900000 0.901000 0.100000
$end
--------------------------------------------------------------

    9    -915.5215846885      2.52e-07  Convergence criterion met
 Total energy in the final basis set =     -915.5215846885
    9    -915.5073768053      2.65e-07  Convergence criterion met
 Total energy in the final basis set =     -915.5073768053
    9    -915.4423840100      3.27e-07  Convergence criterion met
 Total energy in the final basis set =     -915.4423840100
    9    -915.3398103962      3.90e-07  Convergence criterion met
 Total energy in the final basis set =     -915.3398103962
    9    -915.2901554585      4.12e-07  Convergence criterion met
 Total energy in the final basis set =     -915.2901554585
    9    -915.2895934408      4.10e-07  Convergence criterion met
 Total energy in the final basis set =     -915.2895934408

             Standard Nuclear Orientation (Angstroms)
    I     Atom           X                Y                Z
 ----------------------------------------------------------------
    1      S       2.7882720750     0.4442970496    -0.0241568280
    2      S      -2.7904627942     0.4860949130     0.0813692465
    3      C       0.0302069385     0.2918444677     0.0463505255
    4      C       1.2693632287    -0.6075791953    -0.0004312866
    5      C      -1.2586970161    -0.5355291856     0.0677793355
    6      H       0.0762955061     0.9278847618     0.9383111372
    7      H       0.0195585846     0.9594311058    -0.8216235911
    8      H       1.3027297215    -1.2625152912     0.8754021569
    9      H       1.2528136575    -1.2326327746    -0.8981521921
   10      H      -1.2828402006    -1.2094035856     0.9299991654
   11      H      -1.3377304383    -1.1552061912    -0.8292437632
   12      H       3.6794185957    -0.5660448223    -0.0618480372
   13      H      -2.6407278584     0.8829587480     0.8751441312
 ----------------------------------------------------------------

    9    -915.2895960547      4.00e-07  Convergence criterion met
 Total energy in the final basis set =     -915.2895960547

                    Orbital Energies (a.u.)
 --------------------------------------------------------------

 Alpha MOs
 -- Occupied --
-88.878 -88.839 -10.230 -10.229 -10.206  -7.941  -7.929  -5.906
 -5.902  -5.895  -5.894  -5.887  -5.879  -0.846  -0.806  -0.737
 -0.655  -0.603  -0.495  -0.463  -0.448  -0.422  -0.391  -0.381
 -0.358  -0.334  -0.326  -0.246  -0.241

 Beta MOs
 -- Occupied --
-88.878 -88.839 -10.230 -10.229 -10.206  -7.941  -7.929  -5.906
 -5.902  -5.895  -5.894  -5.887  -5.879  -0.846  -0.806  -0.737
 -0.655  -0.603  -0.495  -0.463  -0.448  -0.422  -0.391  -0.381
 -0.358  -0.334  -0.326  -0.246  -0.241

          Ground-State Mulliken Net Atomic Charges

     Atom                 Charge (a.u.)    Spin (a.u.)
  --------------------------------------------------------
      1 S                    -0.041894      -0.000000
      2 S                     0.035670       0.000000
      3 C                    -0.179217       0.000000
      4 C                    -0.330466      -0.000000
      5 C                    -0.340896      -0.000000
      6 H                     0.119812       0.000000
      7 H                     0.137289       0.000000
      8 H                     0.135661       0.000000
      9 H                     0.137568      -0.000000
     10 H                     0.137631       0.000000
     11 H                     0.144918       0.000000
     12 H                     0.057683      -0.000000
     13 H                    -0.013760      -0.000000
  --------------------------------------------------------
  Sum of atomic charges =     0.000000

                    Cartesian Multipole Moments
 -----------------------------------------------------------------
    Charge (ESU x 10^10)
                 0.0000
    Dipole Moment (Debye)
         X       0.7541      Y      -1.8649      Z       0.8379
       Tot       2.1791
    Quadrupole Moments (Debye-Ang)
        XX     -53.7411     XY      -4.3702     YY     -45.9327
        XZ      -2.4347     YZ       1.7824     ZZ     -46.4474

 Final energy is   -915.289596054677
 **  OPTIMIZATION CONVERGED  **
 Total job time:  27.69s(wall), 314.94s(cpu)
        *  Thank you very much for using Q-Chem.  Have a nice day.  *
