 Q-Chem 5.1, Q-Chem, Inc., Pleasanton, CA (2018)
 Q-Chem 5.1.1 for Intel X86 EM64T Linux

User input:
--------------------------------------------------------------

$comment
potential surface scanner
$end

$rem
JOBTYPE  PES_SCAN
UNRESTRICTED TRUE
SYM_IGNORE  TRUE
GEOM_OPT_MAX_CYCLES 400
SCF_MAX_CYCLES 400
METHOD   B3LYP
BASIS   6-31G**
PDB_PRINT 2
SCF_CONVERGENCE 6
THRESH 14
SCF_PRINT 1
$end
$molecule
0 1
S 2.651839 0.582856 0.084495
S -2.875197 0.053899 -0.386977
C -0.070592 0.170403 -0.093582
C 1.243241 -0.610230 0.001277
C -1.279902 -0.769583 -0.195052
H -0.205918 0.802983 0.794251
H -0.053708 0.839513 -0.960375
H 1.254224 -1.235626 0.898529
H 1.371442 -1.254736 -0.873440
H -1.316714 -1.474904 0.641309
H -1.192773 -1.372396 -1.116795
H 3.623888 -0.333725 0.260399
H -2.041625 2.025147 2.124863
$end
$scan
stre 2 13 3.400000 3.401000 0.100000
$end
--------------------------------------------------------------

   14    -915.3389408210      1.49e-07  Convergence criterion met
 Total energy in the final basis set =     -915.3389408210
   31    -915.3350080745      1.22e-07  Convergence criterion met
 Total energy in the final basis set =     -915.3350080745
   30    -915.3349488373      5.44e-07  Convergence criterion met
 Total energy in the final basis set =     -915.3349488373
   21    -915.3349646964      7.34e-07  Convergence criterion met
 Total energy in the final basis set =     -915.3349646964
   21    -915.3349662929      7.22e-07  Convergence criterion met
 Total energy in the final basis set =     -915.3349662929
   21    -915.3349750924      9.54e-07  Convergence criterion met
 Total energy in the final basis set =     -915.3349750924
   23    -915.3349785691      4.60e-07  Convergence criterion met
 Total energy in the final basis set =     -915.3349785691
   26    -915.3349880918      6.50e-07  Convergence criterion met
    9    -915.4674057710      9.82e-07  Convergence criterion met
 Total energy in the final basis set =     -915.4674057710
    9    -915.4674128660      9.83e-07  Convergence criterion met
 Total energy in the final basis set =     -915.4674128660
    9    -915.4674162241      9.84e-07  Convergence criterion met
 Total energy in the final basis set =     -915.4674162241
    9    -915.4674182840      9.84e-07  Convergence criterion met
 Total energy in the final basis set =     -915.4674182840
    9    -915.4674201723      9.84e-07  Convergence criterion met
 Total energy in the final basis set =     -915.4674201723
    9    -915.4674212923      9.84e-07  Convergence criterion met
 Total energy in the final basis set =     -915.4674212923

             Standard Nuclear Orientation (Angstroms)
    I     Atom           X                Y                Z
 ----------------------------------------------------------------
    1      S       2.4304128765    -0.0435999008     1.1192078955
    2      S      -2.5291414571    -0.2266542859    -0.3503784870
    3      C       0.2148582505    -0.3032852314    -0.4994515432
    4      C       1.5732457465    -0.8974414352    -0.2990994441
    5      C      -0.9145520979    -0.9583881098    -0.2112944079
    6      H      -1.3103686195     3.0934123272     1.5174395123
    7      H       0.1776105933     0.7167624867    -0.8775014893
    8      H       1.5066084984    -1.9670810806    -0.0856527631
    9      H       2.1914408808    -0.7523922916    -1.1895780043
   10      H      -0.8883043045    -1.9721824018     0.1787712447
   11      H      -3.2197764547    -1.3808388304    -0.4123233682
   12      H       3.6845794353    -0.4275992824     0.8033383870
   13      H      -1.8084083476     2.5428890359     1.4854244676
 ----------------------------------------------------------------

    9    -915.4674219274      9.86e-07  Convergence criterion met
 Total energy in the final basis set =     -915.4674219274

                    Orbital Energies (a.u.)
 --------------------------------------------------------------

 Alpha MOs
 -- Occupied --
-88.895 -88.876 -10.231 -10.229 -10.204  -7.957  -7.938  -5.922
 -5.919  -5.912  -5.903  -5.900  -5.892  -0.831  -0.783  -0.716
 -0.639  -0.566  -0.479  -0.461  -0.443  -0.422  -0.391  -0.389
 -0.348  -0.337  -0.313  -0.240  -0.227

 Beta MOs
 -- Occupied --
-88.895 -88.876 -10.231 -10.229 -10.204  -7.957  -7.938  -5.922
 -5.919  -5.912  -5.903  -5.900  -5.892  -0.831  -0.783  -0.716
 -0.639  -0.566  -0.479  -0.461  -0.443  -0.422  -0.391  -0.389
 -0.348  -0.337  -0.313  -0.240  -0.227

          Ground-State Mulliken Net Atomic Charges

     Atom                 Charge (a.u.)    Spin (a.u.)
  --------------------------------------------------------
      1 S                    -0.035564      -0.000000
      2 S                     0.029204       0.000000
      3 C                    -0.042502      -0.000000
      4 C                    -0.358657       0.000000
      5 C                    -0.235346       0.000000
      6 H                    -0.010235       0.000000
      7 H                     0.115617      -0.000000
      8 H                     0.137615      -0.000000
      9 H                     0.146948      -0.000000
     10 H                     0.128640      -0.000000
     11 H                     0.062537      -0.000000
     12 H                     0.051859      -0.000000
     13 H                     0.009884      -0.000000
  --------------------------------------------------------
  Sum of atomic charges =     0.000000

                    Cartesian Multipole Moments
 -----------------------------------------------------------------
    Charge (ESU x 10^10)
                -0.0000
    Dipole Moment (Debye)
         X       0.3032      Y      -2.1621      Z      -1.3596
       Tot       2.5720
    Quadrupole Moments (Debye-Ang)
        XX     -42.0040     XY       1.6606     YY     -44.3674
        XZ      -2.5491     YZ       0.0111     ZZ     -51.7169

 Final energy is   -915.467421927393
 **  OPTIMIZATION CONVERGED  **
 Total job time:  462.04s(wall), 5321.60s(cpu)
        *  Thank you very much for using Q-Chem.  Have a nice day.  *
