 Q-Chem 5.1, Q-Chem, Inc., Pleasanton, CA (2018)
 Q-Chem 5.1.1 for Intel X86 EM64T Linux

User input:
--------------------------------------------------------------

$comment
potential surface scanner
$end

$rem
JOBTYPE  PES_SCAN
UNRESTRICTED TRUE
SYM_IGNORE  TRUE
GEOM_OPT_MAX_CYCLES 400
SCF_MAX_CYCLES 400
METHOD   B3LYP
BASIS   6-31G**
PDB_PRINT 2
SCF_CONVERGENCE 6
THRESH 14
SCF_PRINT 1
$end
$molecule
0 1
S 2.742428 0.502687 0.032825
S -2.825782 0.239381 -0.248406
C -0.001344 0.217590 -0.067113
C 1.277604 -0.623111 -0.014463
C -1.254536 -0.660783 -0.086878
H -0.051401 0.875461 0.808687
H 0.006314 0.862954 -0.951543
H 1.285635 -1.254398 0.878858
H 1.351378 -1.267475 -0.895612
H -1.297124 -1.326687 0.780244
H -1.256366 -1.304973 -0.981518
H 3.680989 -0.461514 0.109398
H -2.549593 1.624470 1.814420
$end
$scan
stre 2 13 2.600000 2.601000 0.100000
$end
--------------------------------------------------------------

   11    -915.3909302092      3.68e-07  Convergence criterion met
 Total energy in the final basis set =     -915.3909302092
   11    -915.3822077001      6.70e-07  Convergence criterion met
 Total energy in the final basis set =     -915.3822077001
   11    -915.3820320626      6.74e-07  Convergence criterion met
 Total energy in the final basis set =     -915.3820320626
   11    -915.3820340053      6.74e-07  Convergence criterion met
 Total energy in the final basis set =     -915.3820340053
   11    -915.3820351561      6.74e-07  Convergence criterion met
 Total energy in the final basis set =     -915.3820351561
   11    -915.3820368113      6.74e-07  Convergence criterion met
 Total energy in the final basis set =     -915.3820368113

             Standard Nuclear Orientation (Angstroms)
    I     Atom           X                Y                Z
 ----------------------------------------------------------------
    1      S       2.7335681032     0.5111004240     0.0335564240
    2      S      -2.8307897869     0.2178210518    -0.2588292404
    3      C      -0.0079872381     0.2109127857    -0.0731495686
    4      C       1.2750898255    -0.6228440144    -0.0142742814
    5      C      -1.2566290059    -0.6744427996    -0.1009564693
    6      H      -0.0677587770     0.8670613434     0.8034496897
    7      H       0.0006824834     0.8578038015    -0.9565053500
    8      H       1.2838675414    -1.2509034414     0.8812718802
    9      H       1.3548895184    -1.2698722116    -0.8929595496
   10      H      -1.2960151749    -1.3475988226     0.7608531335
   11      H      -1.2511102764    -1.3117895828    -1.0008340098
   12      H       3.6760127775    -0.4470486290     0.1332926564
   13      H      -2.5056179902     1.6834020950     1.8639836853
 ----------------------------------------------------------------

   11    -915.3820375549      6.75e-07  Convergence criterion met
 Total energy in the final basis set =     -915.3820375549

                    Orbital Energies (a.u.)
 --------------------------------------------------------------

 Alpha MOs
 -- Occupied --
-88.912 -88.880 -10.237 -10.230 -10.208  -7.968  -7.942  -5.935
 -5.930  -5.921  -5.907  -5.903  -5.896  -0.832  -0.779  -0.704
 -0.622  -0.598  -0.495  -0.457  -0.432  -0.416  -0.387  -0.361
 -0.348  -0.333  -0.283  -0.245  -0.242

 Beta MOs
 -- Occupied --
-88.912 -88.880 -10.237 -10.230 -10.208  -7.968  -7.942  -5.935
 -5.930  -5.921  -5.907  -5.903  -5.896  -0.832  -0.779  -0.704
 -0.622  -0.598  -0.495  -0.457  -0.432  -0.416  -0.387  -0.361
 -0.348  -0.333  -0.283  -0.245  -0.242

          Ground-State Mulliken Net Atomic Charges

     Atom                 Charge (a.u.)    Spin (a.u.)
  --------------------------------------------------------
      1 S                    -0.038911      -0.000000
      2 S                    -0.013344      -0.000000
      3 C                    -0.170625      -0.000000
      4 C                    -0.331788       0.000000
      5 C                    -0.352833       0.000000
      6 H                     0.129309       0.000000
      7 H                     0.135952       0.000000
      8 H                     0.137197      -0.000000
      9 H                     0.136118      -0.000000
     10 H                     0.150635       0.000000
     11 H                     0.150582      -0.000000
     12 H                     0.057741       0.000000
     13 H                     0.009968       0.000000
  --------------------------------------------------------
  Sum of atomic charges =     0.000000

                    Cartesian Multipole Moments
 -----------------------------------------------------------------
    Charge (ESU x 10^10)
                 0.0000
    Dipole Moment (Debye)
         X       0.9474      Y      -2.3607      Z       0.0910
       Tot       2.5454
    Quadrupole Moments (Debye-Ang)
        XX     -53.7911     XY      -3.2018     YY     -46.9076
        XZ       0.3764     YZ       1.5385     ZZ     -47.3838

 Final energy is   -915.382037554896
 **  OPTIMIZATION CONVERGED  **
 Total job time:  31.64s(wall), 358.60s(cpu)
        *  Thank you very much for using Q-Chem.  Have a nice day.  *
