 Q-Chem 5.1, Q-Chem, Inc., Pleasanton, CA (2018)
 Q-Chem 5.1.1 for Intel X86 EM64T Linux

User input:
--------------------------------------------------------------

$comment
potential surface scanner
$end

$rem
JOBTYPE  PES_SCAN
UNRESTRICTED TRUE
SYM_IGNORE  TRUE
GEOM_OPT_MAX_CYCLES 400
SCF_MAX_CYCLES 400
METHOD   B3LYP
BASIS   6-31G**
PDB_PRINT 2
SCF_CONVERGENCE 6
THRESH 14
SCF_PRINT 1
$end
$molecule
0 3
S 2.642734 0.596473 0.125879
S -2.872136 0.018152 -0.590099
C -0.071291 0.171848 -0.185078
C 1.235836 -0.597060 0.031221
C -1.263210 -0.782087 -0.314205
H -0.241313 0.858248 0.651466
H 0.000709 0.785394 -1.089551
H 1.192671 -1.171718 0.961145
H 1.410552 -1.290931 -0.796657
H -1.366052 -1.424624 0.570164
H -1.127204 -1.471383 -1.160190
H 3.611773 -0.315566 0.338452
H -2.044869 2.046855 2.636354
$end
$scan
stre 2 13 4.000000 4.001000 0.100000
$end
--------------------------------------------------------------

   13    -915.3820834580      9.74e-07  Convergence criterion met
 Total energy in the final basis set =     -915.3820834580
   13    -915.3820877663      8.89e-07  Convergence criterion met
 Total energy in the final basis set =     -915.3820877663
   13    -915.3821004141      8.47e-07  Convergence criterion met
 Total energy in the final basis set =     -915.3821004141
   10    -915.3821459305      6.44e-07  Convergence criterion met
 Total energy in the final basis set =     -915.3821459305
   10    -915.3821510240      5.55e-07  Convergence criterion met
 Total energy in the final basis set =     -915.3821510240
   10    -915.3821638461      4.63e-07  Convergence criterion met
 Total energy in the final basis set =     -915.3821638461
   10    -915.3821656663      4.70e-07  Convergence criterion met
 Total energy in the final basis set =     -915.3821656663
   10    -915.3821667645      4.71e-07  Convergence criterion met
   10    -915.3821897132      4.84e-07  Convergence criterion met
 Total energy in the final basis set =     -915.3821897132
   10    -915.3822027293      4.66e-07  Convergence criterion met
 Total energy in the final basis set =     -915.3822027293
   10    -915.3822124608      4.55e-07  Convergence criterion met
 Total energy in the final basis set =     -915.3822124608
   10    -915.3822199960      4.68e-07  Convergence criterion met
 Total energy in the final basis set =     -915.3822199960
   10    -915.3822218656      4.78e-07  Convergence criterion met
 Total energy in the final basis set =     -915.3822218656
   10    -915.3822242375      4.90e-07  Convergence criterion met
 Total energy in the final basis set =     -915.3822242375

             Standard Nuclear Orientation (Angstroms)
    I     Atom           X                Y                Z
 ----------------------------------------------------------------
    1      S       2.5717709127     0.6514523095     0.2266607568
    2      S      -2.9128183077    -0.0551959509    -0.6143802210
    3      C      -0.1204041783     0.1643561555    -0.1716272705
    4      C       1.2000480380    -0.5751501850     0.0651453657
    5      C      -1.2812163693    -0.8165727548    -0.3646853166
    6      H      -0.3377441746     0.8242427277     0.6761675558
    7      H      -0.0341571004     0.8033966124    -1.0571444079
    8      H       1.1451000408    -1.1720065684     0.9803543157
    9      H       1.4173481934    -1.2450851496    -0.7724127717
   10      H      -1.3913904953    -1.4796211588     0.5059369507
   11      H      -1.1029539564    -1.4846415370    -1.2175903798
   12      H       3.5666163062    -0.2419759896     0.3945129928
   13      H      -1.6119989089     2.0504024890     2.5279634300
 ----------------------------------------------------------------

   10    -915.3822251963      4.92e-07  Convergence criterion met
 Total energy in the final basis set =     -915.3822251963

                    Orbital Energies (a.u.)
 --------------------------------------------------------------

 Alpha MOs
 -- Occupied --
-88.894 -88.879 -10.235 -10.229 -10.205  -7.955  -7.941  -5.926
 -5.916  -5.907  -5.906  -5.903  -5.896  -0.831  -0.780  -0.707
 -0.626  -0.600  -0.495  -0.456  -0.433  -0.416  -0.387  -0.363
 -0.349  -0.332  -0.316  -0.287  -0.247  -0.241

 Beta MOs
 -- Occupied --
-88.889 -88.879 -10.235 -10.229 -10.205  -7.950  -7.941  -5.913
 -5.908  -5.906  -5.904  -5.903  -5.896  -0.828  -0.773  -0.696
 -0.614  -0.591  -0.492  -0.455  -0.427  -0.412  -0.386  -0.359
 -0.342  -0.332  -0.241  -0.235

          Ground-State Mulliken Net Atomic Charges

     Atom                 Charge (a.u.)    Spin (a.u.)
  --------------------------------------------------------
      1 S                    -0.039500       0.000773
      2 S                     0.010199       0.975269
      3 C                    -0.167652       0.012376
      4 C                    -0.331803      -0.000728
      5 C                    -0.367306      -0.030543
      6 H                     0.127730      -0.005284
      7 H                     0.130676       0.000796
      8 H                     0.136145       0.000229
      9 H                     0.135368       0.000604
     10 H                     0.153014       0.031086
     11 H                     0.152281       0.024751
     12 H                     0.057291      -0.000097
     13 H                     0.003556       0.990766
  --------------------------------------------------------
  Sum of atomic charges =    -0.000000

                    Cartesian Multipole Moments
 -----------------------------------------------------------------
    Charge (ESU x 10^10)
                 0.0000
    Dipole Moment (Debye)
         X       0.9724      Y      -2.2608      Z       0.2379
       Tot       2.4725
    Quadrupole Moments (Debye-Ang)
        XX     -53.1047     XY      -3.6961     YY     -47.9995
        XZ      -1.1933     YZ      -0.4062     ZZ     -47.3094

 Final energy is   -915.382225196309
 **  OPTIMIZATION CONVERGED  **
 Total job time:  85.01s(wall), 977.11s(cpu)
        *  Thank you very much for using Q-Chem.  Have a nice day.  *
