 Q-Chem 5.1, Q-Chem, Inc., Pleasanton, CA (2018)
 Q-Chem 5.1.1 for Intel X86 EM64T Linux

User input:
--------------------------------------------------------------

$comment
potential surface scanner
$end

$rem
JOBTYPE  PES_SCAN
UNRESTRICTED TRUE
SYM_IGNORE  TRUE
GEOM_OPT_MAX_CYCLES 400
SCF_MAX_CYCLES 400
METHOD   B3LYP
BASIS   6-31G**
PDB_PRINT 2
SCF_CONVERGENCE 6
THRESH 14
SCF_PRINT 1
$end
$molecule
0 3
S 2.642885 0.539543 0.408549
S -2.901402 -0.094333 -0.011100
C -0.074492 0.111814 0.128257
C 1.266898 -0.608164 -0.040716
C -1.245682 -0.815077 -0.215392
H -0.183799 0.466658 1.158447
H -0.107236 0.996648 -0.515962
H 1.309506 -1.488511 0.607726
H 1.398592 -0.934711 -1.076722
H -1.236310 -1.713134 0.419323
H -1.177876 -1.184997 -1.246988
H 3.652185 -0.318226 0.160280
H -2.235066 2.466088 1.403198
$end
$scan
stre 2 13 2.900000 2.901000 0.100000
$end
--------------------------------------------------------------

   10    -915.3828228357      9.40e-07  Convergence criterion met
 Total energy in the final basis set =     -915.3828228357
   10    -915.3828661499      9.50e-07  Convergence criterion met
 Total energy in the final basis set =     -915.3828661499
   10    -915.3828878092      9.47e-07  Convergence criterion met
 Total energy in the final basis set =     -915.3828878092
   10    -915.3829166519      9.39e-07  Convergence criterion met
 Total energy in the final basis set =     -915.3829166519
   10    -915.3829199677      9.38e-07  Convergence criterion met
 Total energy in the final basis set =     -915.3829199677
   10    -915.3829245730      9.40e-07  Convergence criterion met
 Total energy in the final basis set =     -915.3829245730

             Standard Nuclear Orientation (Angstroms)
    I     Atom           X                Y                Z
 ----------------------------------------------------------------
    1      S       2.6537713962     0.5291412980     0.4055633621
    2      S      -2.8963169542    -0.0747074642     0.0057789946
    3      C      -0.0672353124     0.1184753116     0.1347571194
    4      C       1.2692260309    -0.6088853311    -0.0417248538
    5      C      -1.2444510975    -0.8014053316    -0.2072536961
    6      H      -0.1705939101     0.4708272341     1.1663440680
    7      H      -0.0974972152     1.0054383924    -0.5065843670
    8      H       1.3090443989    -1.4914986719     0.6038202331
    9      H       1.3948094780    -0.9330318405    -1.0792447436
   10      H      -1.2369501811    -1.7015477347     0.4245527840
   11      H      -1.1826215264    -1.1682795874    -1.2403192198
   12      H       3.6567502558    -0.3341742272     0.1509977766
   13      H      -2.2797323629     2.4132459527     1.3622125425
 ----------------------------------------------------------------

   10    -915.3829249742      9.45e-07  Convergence criterion met
 Total energy in the final basis set =     -915.3829249742

                    Orbital Energies (a.u.)
 --------------------------------------------------------------

 Alpha MOs
 -- Occupied --
-88.902 -88.880 -10.238 -10.230 -10.207  -7.962  -7.942  -5.933
 -5.923  -5.915  -5.907  -5.903  -5.896  -0.834  -0.783  -0.710
 -0.629  -0.602  -0.497  -0.457  -0.435  -0.419  -0.389  -0.364
 -0.353  -0.333  -0.299  -0.292  -0.242  -0.241

 Beta MOs
 -- Occupied --
-88.896 -88.880 -10.238 -10.231 -10.207  -7.956  -7.942  -5.920
 -5.915  -5.910  -5.907  -5.903  -5.896  -0.830  -0.775  -0.698
 -0.616  -0.593  -0.494  -0.456  -0.429  -0.414  -0.388  -0.361
 -0.345  -0.333  -0.242  -0.241

          Ground-State Mulliken Net Atomic Charges

     Atom                 Charge (a.u.)    Spin (a.u.)
  --------------------------------------------------------
      1 S                    -0.037382       0.000822
      2 S                     0.036509       1.011160
      3 C                    -0.169932       0.005900
      4 C                    -0.332358      -0.000778
      5 C                    -0.369909      -0.030330
      6 H                     0.135403      -0.001540
      7 H                     0.132379       0.000207
      8 H                     0.135565       0.000212
      9 H                     0.136034       0.000433
     10 H                     0.155252       0.032690
     11 H                     0.153735       0.024588
     12 H                     0.057446      -0.000065
     13 H                    -0.032741       0.956702
  --------------------------------------------------------
  Sum of atomic charges =    -0.000000

                    Cartesian Multipole Moments
 -----------------------------------------------------------------
    Charge (ESU x 10^10)
                -0.0000
    Dipole Moment (Debye)
         X       0.9986      Y      -2.5326      Z      -0.9104
       Tot       2.8706
    Quadrupole Moments (Debye-Ang)
        XX     -52.8279     XY      -2.7066     YY     -48.2808
        XZ      -0.9087     YZ      -1.2814     ZZ     -47.9534

 Final energy is   -915.382924974228
 **  OPTIMIZATION CONVERGED  **
 Total job time:  29.66s(wall), 333.36s(cpu)
        *  Thank you very much for using Q-Chem.  Have a nice day.  *
