 Q-Chem 5.1, Q-Chem, Inc., Pleasanton, CA (2018)
 Q-Chem 5.1.1 for Intel X86 EM64T Linux

User input:
--------------------------------------------------------------

$comment
potential surface scanner
$end

$rem
JOBTYPE  PES_SCAN
UNRESTRICTED TRUE
SYM_IGNORE  TRUE
GEOM_OPT_MAX_CYCLES 400
SCF_MAX_CYCLES 400
METHOD   B3LYP
BASIS   6-31G**
PDB_PRINT 2
SCF_CONVERGENCE 6
THRESH 14
SCF_PRINT 1
$end
$molecule
0 1
S 2.715924 0.526477 0.044390
S -2.838797 0.164178 -0.320055
C -0.021154 0.198058 -0.091763
C 1.269831 -0.622453 -0.014317
C -1.258804 -0.702947 -0.134022
H -0.099714 0.855822 0.782005
H -0.007743 0.842761 -0.976646
H 1.274442 -1.245408 0.884796
H 1.366182 -1.273504 -0.888396
H -1.302882 -1.375326 0.728528
H -1.225481 -1.343635 -1.032270
H 3.665722 -0.420970 0.171763
H -2.429323 1.820548 2.024890
$end
$scan
stre 2 13 3.000000 3.001000 0.100000
$end
--------------------------------------------------------------

   12    -915.3598210342      3.10e-07  Convergence criterion met
 Total energy in the final basis set =     -915.3598210342
   12    -915.3538210813      4.91e-07  Convergence criterion met
 Total energy in the final basis set =     -915.3538210813
   12    -915.3537240597      5.13e-07  Convergence criterion met
 Total energy in the final basis set =     -915.3537240597
   12    -915.3537444497      5.44e-07  Convergence criterion met
 Total energy in the final basis set =     -915.3537444497
   12    -915.3537462654      5.51e-07  Convergence criterion met
 Total energy in the final basis set =     -915.3537462654
   12    -915.3537525744      5.89e-07  Convergence criterion met
 Total energy in the final basis set =     -915.3537525744

             Standard Nuclear Orientation (Angstroms)
    I     Atom           X                Y                Z
 ----------------------------------------------------------------
    1      S       2.7086670836     0.5336951318     0.0490429529
    2      S      -2.8403604674     0.1473878492    -0.3350895283
    3      C      -0.0257828238     0.1916857251    -0.0981602474
    4      C       1.2684504474    -0.6221790435    -0.0139355892
    5      C      -1.2602278874    -0.7152018574    -0.1474471164
    6      H      -0.1163691807     0.8491677062     0.7751999529
    7      H      -0.0117037079     0.8368150805    -0.9828392726
    8      H       1.2727728880    -1.2442593621     0.8858024772
    9      H       1.3703528176    -1.2735123652    -0.8871202853
   10      H      -1.3041285785    -1.3899189485     0.7133805631
   11      H      -1.2200957848    -1.3553595783    -1.0463197353
   12      H       3.6617099697    -0.4087094306     0.1888926852
   13      H      -2.3950817757     1.8739900928     2.0774961433
 ----------------------------------------------------------------

   12    -915.3537533226      5.89e-07  Convergence criterion met
 Total energy in the final basis set =     -915.3537533226

                    Orbital Energies (a.u.)
 --------------------------------------------------------------

 Alpha MOs
 -- Occupied --
-88.911 -88.880 -10.238 -10.231 -10.209  -7.968  -7.943  -5.934
 -5.931  -5.921  -5.908  -5.904  -5.897  -0.833  -0.780  -0.705
 -0.623  -0.599  -0.496  -0.457  -0.433  -0.418  -0.388  -0.362
 -0.350  -0.334  -0.267  -0.246  -0.242

 Beta MOs
 -- Occupied --
-88.911 -88.880 -10.238 -10.231 -10.209  -7.968  -7.943  -5.934
 -5.931  -5.921  -5.908  -5.904  -5.897  -0.833  -0.780  -0.705
 -0.623  -0.599  -0.496  -0.457  -0.433  -0.418  -0.388  -0.362
 -0.350  -0.334  -0.267  -0.246  -0.242

          Ground-State Mulliken Net Atomic Charges

     Atom                 Charge (a.u.)    Spin (a.u.)
  --------------------------------------------------------
      1 S                    -0.037031       0.000000
      2 S                    -0.007406       0.000000
      3 C                    -0.172095       0.000000
      4 C                    -0.332218       0.000000
      5 C                    -0.356771       0.000000
      6 H                     0.131133       0.000000
      7 H                     0.136733      -0.000000
      8 H                     0.137787       0.000000
      9 H                     0.136093      -0.000000
     10 H                     0.152318       0.000000
     11 H                     0.154899       0.000000
     12 H                     0.058021       0.000000
     13 H                    -0.001463      -0.000000
  --------------------------------------------------------
  Sum of atomic charges =     0.000000

                    Cartesian Multipole Moments
 -----------------------------------------------------------------
    Charge (ESU x 10^10)
                 0.0000
    Dipole Moment (Debye)
         X       1.0601      Y      -2.4708      Z      -0.0063
       Tot       2.6886
    Quadrupole Moments (Debye-Ang)
        XX     -53.7512     XY      -2.9527     YY     -47.0095
        XZ       0.7290     YZ       1.3343     ZZ     -47.6019

 Final energy is   -915.353753322627
 **  OPTIMIZATION CONVERGED  **
 Total job time:  32.49s(wall), 374.25s(cpu)
        *  Thank you very much for using Q-Chem.  Have a nice day.  *
