 Q-Chem 5.1, Q-Chem, Inc., Pleasanton, CA (2018)
 Q-Chem 5.1.1 for Intel X86 EM64T Linux

User input:
--------------------------------------------------------------

$comment
potential surface scanner
$end

$rem
JOBTYPE  PES_SCAN
UNRESTRICTED TRUE
SYM_IGNORE  TRUE
GEOM_OPT_MAX_CYCLES 400
SCF_MAX_CYCLES 400
METHOD   B3LYP
BASIS   6-31G**
PDB_PRINT 2
SCF_CONVERGENCE 6
THRESH 14
SCF_PRINT 1
$end
$molecule
0 3
S 2.693834 0.482623 0.403710
S -2.912767 0.055220 0.120957
C -0.047561 0.203674 0.213051
C 1.246687 -0.577499 -0.035411
C -1.264708 -0.666969 -0.123013
H -0.101018 0.527292 1.256361
H -0.062723 1.112969 -0.394825
H 1.268923 -1.484319 0.576903
H 1.324234 -0.868908 -1.087451
H -1.268139 -1.589533 0.475094
H -1.240956 -1.001168 -1.169182
H 3.647960 -0.416501 0.091232
H -2.175567 1.646720 0.851481
$end
$scan
stre 2 13 1.800000 1.801000 0.100000
$end
--------------------------------------------------------------

   10    -915.3744533407      7.30e-07  Convergence criterion met
 Total energy in the final basis set =     -915.3744533407
   10    -915.3703923679      8.05e-07  Convergence criterion met
 Total energy in the final basis set =     -915.3703923679
   10    -915.3703827526      8.00e-07  Convergence criterion met
 Total energy in the final basis set =     -915.3703827526

             Standard Nuclear Orientation (Angstroms)
    I     Atom           X                Y                Z
 ----------------------------------------------------------------
    1      S       2.7011954870     0.4752739495     0.3995616156
    2      S      -2.9189912009     0.0651731095     0.1236847216
    3      C      -0.0435914853     0.2176821940     0.2190951412
    4      C       1.2438206634    -0.5736618694    -0.0331263397
    5      C      -1.2644548566    -0.6485623257    -0.1155782340
    6      H      -0.0922682342     0.5427626386     1.2621518489
    7      H      -0.0539317120     1.1269105329    -0.3888865598
    8      H       1.2615637834    -1.4801466402     0.5798354103
    9      H       1.3157662030    -0.8666655411    -1.0851425876
   10      H      -1.2707162854    -1.5716237320     0.4818295043
   11      H      -1.2430573851    -0.9833943645    -1.1615041495
   12      H       3.6468624044    -0.4317004763     0.0836205630
   13      H      -2.1739983816     1.5515535247     0.8133660657
 ----------------------------------------------------------------

   10    -915.3703970950      8.44e-07  Convergence criterion met
 Total energy in the final basis set =     -915.3703970950

                    Orbital Energies (a.u.)
 --------------------------------------------------------------

 Alpha MOs
 -- Occupied --
-88.925 -88.879 -10.244 -10.231 -10.207  -7.984  -7.942  -5.954
 -5.945  -5.940  -5.907  -5.903  -5.896  -0.840  -0.792  -0.719
 -0.638  -0.607  -0.500  -0.462  -0.439  -0.426  -0.397  -0.368
 -0.365  -0.337  -0.332  -0.308  -0.242  -0.134

 Beta MOs
 -- Occupied --
-88.917 -88.879 -10.244 -10.231 -10.207  -7.977  -7.942  -5.940
 -5.935  -5.932  -5.907  -5.903  -5.896  -0.833  -0.780  -0.704
 -0.620  -0.600  -0.495  -0.459  -0.432  -0.417  -0.391  -0.361
 -0.353  -0.333  -0.292  -0.242

          Ground-State Mulliken Net Atomic Charges

     Atom                 Charge (a.u.)    Spin (a.u.)
  --------------------------------------------------------
      1 S                    -0.033699       0.002674
      2 S                     0.187246       1.196175
      3 C                    -0.174446       0.028332
      4 C                    -0.332966      -0.001364
      5 C                    -0.369096      -0.039249
      6 H                     0.143772       0.000599
      7 H                     0.139409       0.000551
      8 H                     0.134574       0.000883
      9 H                     0.134697       0.001363
     10 H                     0.161166       0.031014
     11 H                     0.160566       0.025788
     12 H                     0.056353       0.000509
     13 H                    -0.207577       0.752726
  --------------------------------------------------------
  Sum of atomic charges =     0.000000

                    Cartesian Multipole Moments
 -----------------------------------------------------------------
    Charge (ESU x 10^10)
                 0.0000
    Dipole Moment (Debye)
         X       0.5765      Y      -3.1217      Z      -1.2365
       Tot       3.4068
    Quadrupole Moments (Debye-Ang)
        XX     -51.4452     XY      -1.5330     YY     -49.7097
        XZ      -0.4783     YZ      -1.9428     ZZ     -47.9265

 Final energy is   -915.370397094987
 **  OPTIMIZATION CONVERGED  **
 Total job time:  19.83s(wall), 211.66s(cpu)
        *  Thank you very much for using Q-Chem.  Have a nice day.  *
