 Q-Chem 5.1, Q-Chem, Inc., Pleasanton, CA (2018)
 Q-Chem 5.1.1 for Intel X86 EM64T Linux

User input:
--------------------------------------------------------------

$comment
potential surface scanner
$end

$rem
JOBTYPE  PES_SCAN
UNRESTRICTED TRUE
SYM_IGNORE  TRUE
GEOM_OPT_MAX_CYCLES 400
SCF_MAX_CYCLES 400
METHOD   B3LYP
BASIS   6-31G**
PDB_PRINT 2
SCF_CONVERGENCE 6
THRESH 14
SCF_PRINT 1
$end
$molecule
0 3
S 2.672216 0.508801 0.407349
S -2.893774 -0.016796 0.069407
C -0.057501 0.143492 0.171299
C 1.265064 -0.599407 -0.042944
C -1.251239 -0.754530 -0.170933
H -0.138090 0.475720 1.211226
H -0.086554 1.043874 -0.450604
H 1.302292 -1.496826 0.582133
H 1.369422 -0.902069 -1.089310
H -1.246512 -1.669111 0.439579
H -1.209684 -1.099934 -1.212866
H 3.657738 -0.365931 0.125154
H -2.275177 2.156318 1.139413
$end
$scan
stre 2 13 2.400000 2.401000 0.100000
$end
--------------------------------------------------------------

   10    -915.3829488754      8.25e-07  Convergence criterion met
 Total energy in the final basis set =     -915.3829488754
   10    -915.3825979127      7.75e-07  Convergence criterion met
 Total energy in the final basis set =     -915.3825979127
   10    -915.3826303001      7.70e-07  Convergence criterion met
 Total energy in the final basis set =     -915.3826303001
   10    -915.3826485748      7.65e-07  Convergence criterion met
 Total energy in the final basis set =     -915.3826485748
   10    -915.3826536655      7.66e-07  Convergence criterion met
 Total energy in the final basis set =     -915.3826536655
   10    -915.3826571791      7.70e-07  Convergence criterion met
 Total energy in the final basis set =     -915.3826571791
   10    -915.3826593938      7.74e-07  Convergence criterion met
 Total energy in the final basis set =     -915.3826593938
   10    -915.3826617935      7.80e-07  Convergence criterion met
 Total energy in the final basis set =     -915.3826617935
   10    -915.3826635282      7.82e-07  Convergence criterion met
 Total energy in the final basis set =     -915.3826635282

             Standard Nuclear Orientation (Angstroms)
    I     Atom           X                Y                Z
 ----------------------------------------------------------------
    1      S       2.6749123917     0.5051298924     0.4086981047
    2      S      -2.8954250819    -0.0042233344     0.0816421532
    3      C      -0.0567682656     0.1509778421     0.1807058132
    4      C       1.2623240568    -0.5956464190    -0.0425240932
    5      C      -1.2538408691    -0.7423880106    -0.1616647324
    6      H      -0.1318633701     0.4787622556     1.2223605788
    7      H      -0.0854715087     1.0542187714    -0.4368296473
    8      H       1.2987601246    -1.4966941385     0.5773932243
    9      H       1.3617263858    -0.8928586978    -1.0909521877
   10      H      -1.2499129660    -1.6600193564     0.4441889670
   11      H      -1.2157136059    -1.0834149855    -1.2053116948
   12      H       3.6561860264    -0.3719823080     0.1191515665
   13      H      -2.2567123179     2.0817394888     1.0820449477
 ----------------------------------------------------------------

   10    -915.3826643165      7.80e-07  Convergence criterion met
 Total energy in the final basis set =     -915.3826643165

                    Orbital Energies (a.u.)
 --------------------------------------------------------------

 Alpha MOs
 -- Occupied --
-88.911 -88.880 -10.242 -10.232 -10.208  -7.971  -7.943  -5.942
 -5.932  -5.925  -5.907  -5.904  -5.897  -0.837  -0.787  -0.714
 -0.633  -0.605  -0.500  -0.459  -0.438  -0.422  -0.392  -0.365
 -0.359  -0.334  -0.305  -0.299  -0.242  -0.212

 Beta MOs
 -- Occupied --
-88.905 -88.880 -10.242 -10.232 -10.208  -7.965  -7.943  -5.928
 -5.923  -5.919  -5.907  -5.904  -5.897  -0.833  -0.778  -0.701
 -0.618  -0.597  -0.496  -0.458  -0.431  -0.416  -0.390  -0.362
 -0.349  -0.334  -0.254  -0.242

          Ground-State Mulliken Net Atomic Charges

     Atom                 Charge (a.u.)    Spin (a.u.)
  --------------------------------------------------------
      1 S                    -0.034756       0.001101
      2 S                     0.085943       1.069986
      3 C                    -0.170709       0.010117
      4 C                    -0.332987      -0.001261
      5 C                    -0.372497      -0.032786
      6 H                     0.139298      -0.000940
      7 H                     0.136073      -0.000059
      8 H                     0.135424       0.000407
      9 H                     0.135793       0.000645
     10 H                     0.157749       0.032307
     11 H                     0.156663       0.027240
     12 H                     0.057339      -0.000002
     13 H                    -0.093333       0.893246
  --------------------------------------------------------
  Sum of atomic charges =     0.000000

                    Cartesian Multipole Moments
 -----------------------------------------------------------------
    Charge (ESU x 10^10)
                 0.0000
    Dipole Moment (Debye)
         X       0.9037      Y      -2.9909      Z      -1.1673
       Tot       3.3354
    Quadrupole Moments (Debye-Ang)
        XX     -52.3306     XY      -1.5589     YY     -49.3497
        XZ      -0.4067     YZ      -1.7407     ZZ     -48.0562

 Final energy is   -915.382664316504
 **  OPTIMIZATION CONVERGED  **
 Total job time:  42.25s(wall), 481.23s(cpu)
        *  Thank you very much for using Q-Chem.  Have a nice day.  *
