 Q-Chem 5.1, Q-Chem, Inc., Pleasanton, CA (2018)
 Q-Chem 5.1.1 for Intel X86 EM64T Linux

User input:
--------------------------------------------------------------

$comment
potential surface scanner
$end

$rem
JOBTYPE  PES_SCAN
UNRESTRICTED TRUE
SYM_IGNORE  TRUE
GEOM_OPT_MAX_CYCLES 400
SCF_MAX_CYCLES 400
METHOD   B3LYP
BASIS   6-31G**
PDB_PRINT 2
SCF_CONVERGENCE 6
THRESH 14
SCF_PRINT 1
$end
$molecule
0 3
S 2.631907 0.549767 0.411618
S -2.906723 -0.114324 -0.028614
C -0.081410 0.105171 0.122327
C 1.264555 -0.607495 -0.039660
C -1.246638 -0.828551 -0.222860
H -0.196209 0.462654 1.151210
H -0.116876 0.987896 -0.524748
H 1.310167 -1.485817 0.611322
H 1.402123 -0.936084 -1.074262
H -1.235664 -1.725068 0.413944
H -1.173757 -1.200813 -1.253312
H 3.647413 -0.302300 0.169085
H -2.190684 2.518562 1.442849
$end
$scan
stre 2 13 3.000000 3.001000 0.100000
$end
--------------------------------------------------------------

   10    -915.3827254983      9.52e-07  Convergence criterion met
 Total energy in the final basis set =     -915.3827254983
   10    -915.3827647155      9.71e-07  Convergence criterion met
 Total energy in the final basis set =     -915.3827647155
   10    -915.3827857097      9.64e-07  Convergence criterion met
 Total energy in the final basis set =     -915.3827857097
   10    -915.3828146759      9.39e-07  Convergence criterion met
 Total energy in the final basis set =     -915.3828146759
   10    -915.3828178710      9.36e-07  Convergence criterion met
 Total energy in the final basis set =     -915.3828178710
   10    -915.3828224256      9.35e-07  Convergence criterion met
 Total energy in the final basis set =     -915.3828224256

             Standard Nuclear Orientation (Angstroms)
    I     Atom           X                Y                Z
 ----------------------------------------------------------------
    1      S       2.6428852521     0.5395426913     0.4085487711
    2      S      -2.9014017692    -0.0943327814    -0.0111004601
    3      C      -0.0744922730     0.1118139441     0.1282573805
    4      C       1.2668983093    -0.6081641071    -0.0407159473
    5      C      -1.2456820910    -0.8150769536    -0.2153922604
    6      H      -0.1837986170     0.4666580455     1.1584467093
    7      H      -0.1072360788     0.9966478281    -0.5159619293
    8      H       1.3095058126    -1.4885107540     0.6077260411
    9      H       1.3985921539    -0.9347113487    -1.0767220974
   10      H      -1.2363095910    -1.7131338581     0.4193225902
   11      H      -1.1778759984    -1.1849971983    -1.2469882531
   12      H       3.6521851757    -0.3182260029     0.1602803026
   13      H      -2.2350662853     2.4660884951     1.4031981527
 ----------------------------------------------------------------

   10    -915.3828228356      9.40e-07  Convergence criterion met
 Total energy in the final basis set =     -915.3828228356

                    Orbital Energies (a.u.)
 --------------------------------------------------------------

 Alpha MOs
 -- Occupied --
-88.900 -88.879 -10.237 -10.230 -10.207  -7.960  -7.942  -5.931
 -5.922  -5.914  -5.907  -5.903  -5.896  -0.833  -0.783  -0.710
 -0.628  -0.602  -0.497  -0.457  -0.435  -0.419  -0.389  -0.363
 -0.352  -0.333  -0.299  -0.291  -0.243  -0.242

 Beta MOs
 -- Occupied --
-88.894 -88.879 -10.237 -10.230 -10.207  -7.955  -7.942  -5.919
 -5.914  -5.909  -5.907  -5.903  -5.896  -0.830  -0.774  -0.698
 -0.616  -0.593  -0.494  -0.456  -0.428  -0.414  -0.387  -0.360
 -0.344  -0.333  -0.242  -0.239

          Ground-State Mulliken Net Atomic Charges

     Atom                 Charge (a.u.)    Spin (a.u.)
  --------------------------------------------------------
      1 S                    -0.037776       0.000804
      2 S                     0.030506       1.003855
      3 C                    -0.169738       0.005670
      4 C                    -0.332261      -0.000696
      5 C                    -0.369404      -0.030304
      6 H                     0.134726      -0.001642
      7 H                     0.131976       0.000213
      8 H                     0.135544       0.000201
      9 H                     0.136024       0.000427
     10 H                     0.154865       0.032523
     11 H                     0.153380       0.024448
     12 H                     0.057419      -0.000074
     13 H                    -0.025260       0.964575
  --------------------------------------------------------
  Sum of atomic charges =     0.000000

                    Cartesian Multipole Moments
 -----------------------------------------------------------------
    Charge (ESU x 10^10)
                 0.0000
    Dipole Moment (Debye)
         X       1.0083      Y      -2.4579      Z      -0.8632
       Tot       2.7934
    Quadrupole Moments (Debye-Ang)
        XX     -52.8376     XY      -2.9143     YY     -48.1367
        XZ      -1.0152     YZ      -1.1875     ZZ     -47.9066

 Final energy is   -915.382822835630
 **  OPTIMIZATION CONVERGED  **
 Total job time:  29.42s(wall), 332.45s(cpu)
        *  Thank you very much for using Q-Chem.  Have a nice day.  *
