 Q-Chem 5.1, Q-Chem, Inc., Pleasanton, CA (2018)
 Q-Chem 5.1.1 for Intel X86 EM64T Linux

User input:
--------------------------------------------------------------

$comment
potential surface scanner
$end

$rem
JOBTYPE  PES_SCAN
UNRESTRICTED TRUE
SYM_IGNORE  TRUE
GEOM_OPT_MAX_CYCLES 400
SCF_MAX_CYCLES 400
METHOD   B3LYP
BASIS   6-31G**
PDB_PRINT 2
SCF_CONVERGENCE 6
THRESH 14
SCF_PRINT 1
$end
$molecule
0 3
S 2.701195 0.475274 0.399562
S -2.918991 0.065173 0.123685
C -0.043591 0.217682 0.219095
C 1.243821 -0.573662 -0.033126
C -1.264455 -0.648562 -0.115578
H -0.092268 0.542763 1.262152
H -0.053932 1.126911 -0.388887
H 1.261564 -1.480147 0.579835
H 1.315766 -0.866666 -1.085143
H -1.270716 -1.571624 0.481830
H -1.243057 -0.983394 -1.161504
H 3.646862 -0.431700 0.083621
H -2.173998 1.551554 0.813366
$end
$scan
stre 2 13 1.700000 1.701000 0.100000
$end
--------------------------------------------------------------

   10    -915.3703971143      8.44e-07  Convergence criterion met
 Total energy in the final basis set =     -915.3703971143
   11    -915.3651329723      5.93e-07  Convergence criterion met
 Total energy in the final basis set =     -915.3651329723
   11    -915.3651374832      5.97e-07  Convergence criterion met
 Total energy in the final basis set =     -915.3651374832
   11    -915.3651555535      6.04e-07  Convergence criterion met
 Total energy in the final basis set =     -915.3651555535
   11    -915.3651581614      6.04e-07  Convergence criterion met
 Total energy in the final basis set =     -915.3651581614
   11    -915.3651595890      6.05e-07  Convergence criterion met
 Total energy in the final basis set =     -915.3651595890
   11    -915.3651607864      6.05e-07  Convergence criterion met
 Total energy in the final basis set =     -915.3651607864
   11    -915.3651627300      6.05e-07  Convergence criterion met
 Total energy in the final basis set =     -915.3651627300
   11    -915.3651645832      6.05e-07  Convergence criterion met
 Total energy in the final basis set =     -915.3651645832
   11    -915.3651656966      6.05e-07  Convergence criterion met
 Total energy in the final basis set =     -915.3651656966

             Standard Nuclear Orientation (Angstroms)
    I     Atom           X                Y                Z
 ----------------------------------------------------------------
    1      S       2.7074033641     0.4673082425     0.4045829598
    2      S      -2.9271174121     0.0728203322     0.1505593457
    3      C      -0.0400293210     0.2239739586     0.2353146133
    4      C       1.2423925427    -0.5700086682    -0.0333460050
    5      C      -1.2633040160    -0.6369423769    -0.0981697885
    6      H      -0.0791730174     0.5393082754     1.2821481508
    7      H      -0.0519477043     1.1395749573    -0.3627769528
    8      H       1.2605563124    -1.4841557702     0.5679640689
    9      H       1.3077289140    -0.8497090394    -1.0892980048
   10      H      -1.2713944002    -1.5666512953     0.4878305331
   11      H      -1.2552015466    -0.9599822289    -1.1484699426
   12      H       3.6475410325    -0.4394637660     0.0714363066
   13      H      -2.1692547481     1.4875293790     0.7111327154
 ----------------------------------------------------------------

   11    -915.3651659534      6.04e-07  Convergence criterion met
 Total energy in the final basis set =     -915.3651659534

                    Orbital Energies (a.u.)
 --------------------------------------------------------------

 Alpha MOs
 -- Occupied --
-88.928 -88.879 -10.241 -10.231 -10.206  -7.987  -7.941  -5.957
 -5.947  -5.943  -5.906  -5.903  -5.896  -0.840  -0.792  -0.720
 -0.639  -0.606  -0.499  -0.462  -0.438  -0.426  -0.399  -0.369
 -0.364  -0.342  -0.333  -0.310  -0.241  -0.118

 Beta MOs
 -- Occupied --
-88.921 -88.879 -10.240 -10.231 -10.206  -7.980  -7.941  -5.942
 -5.938  -5.935  -5.906  -5.903  -5.896  -0.832  -0.779  -0.704
 -0.621  -0.601  -0.494  -0.458  -0.430  -0.416  -0.391  -0.360
 -0.351  -0.333  -0.303  -0.241

          Ground-State Mulliken Net Atomic Charges

     Atom                 Charge (a.u.)    Spin (a.u.)
  --------------------------------------------------------
      1 S                    -0.034994       0.003686
      2 S                     0.202069       1.237173
      3 C                    -0.174690       0.031858
      4 C                    -0.332412      -0.001429
      5 C                    -0.367012      -0.030779
      6 H                     0.140976       0.001045
      7 H                     0.139765       0.000911
      8 H                     0.134461       0.001073
      9 H                     0.134842       0.001152
     10 H                     0.160253       0.027972
     11 H                     0.160205       0.026838
     12 H                     0.056010       0.000759
     13 H                    -0.219472       0.699741
  --------------------------------------------------------
  Sum of atomic charges =     0.000000

                    Cartesian Multipole Moments
 -----------------------------------------------------------------
    Charge (ESU x 10^10)
                -0.0000
    Dipole Moment (Debye)
         X       0.5111      Y      -2.9758      Z      -1.1535
       Tot       3.2322
    Quadrupole Moments (Debye-Ang)
        XX     -51.5779     XY      -1.9000     YY     -49.6625
        XZ      -0.7275     YZ      -1.6501     ZZ     -47.6513

 Final energy is   -915.365165953412
 **  OPTIMIZATION CONVERGED  **
 Total job time:  48.66s(wall), 559.17s(cpu)
        *  Thank you very much for using Q-Chem.  Have a nice day.  *
