 Q-Chem 5.0, Q-Chem, Inc., Pleasanton, CA (2017)
 Q-Chem 5.0.0 for Intel X86 Linux

User input:
--------------------------------------------------------------
$comment
A single point DFT calculation in with basis
Mo
lanl2dz
**** set projection
$end

$molecule
0  1
C        -1.0016905845    0.0000169410    0.6861102447
C         0.5167837063    0.0000649593    0.5441442865
C        -1.7984784075   -0.0000631302   -0.6173342651
Cl        1.1168112862   -1.4878904270   -0.2976735872
Cl        1.1167228052    1.4879483389   -0.2978108417
H        -1.2547338464    0.8810367667    1.2883387314
H        -1.2546717132   -0.8809714359    1.2884097795
H         1.0092900636    0.0001119619    1.5144718527
H        -1.5762230852   -0.8857751786   -1.2181748724
H        -2.8696278818   -0.0000909251   -0.3968310521
H        -1.5762823426    0.8856121291   -1.2182502763
$end

$rem
JOBTYPE  PES_SCAN
UNRESTRICTED TRUE
SYM_IGNORE  TRUE
GEOM_OPT_MAX_CYCLES 400
SCF_MAX_CYCLES 400
METHOD   B3LYP
BASIS   6-31G**
PDB_PRINT 2
SCF_CONVERGENCE 6
THRESH 14
SCF_PRINT 1
$end

$scan
stre 2 5 1.2 2.2 0.1
$end
--------------------------------------------------------------

    9   -1038.3381067179      8.96E-07 Convergence criterion met
    9   -1038.3286503524      8.73E-07 Convergence criterion met
    9   -1038.2898025833      9.33E-07 Convergence criterion met
    9   -1038.2146378103      9.16E-07 Convergence criterion met
   10   -1038.0988259894      1.23E-07 Convergence criterion met
   10   -1037.9641032869      1.78E-07 Convergence criterion met
   10   -1037.9596783675      1.89E-07 Convergence criterion met
   10   -1037.9644483682      2.25E-07 Convergence criterion met
   10   -1037.9656889630      2.58E-07 Convergence criterion met
   10   -1037.9661966771      2.63E-07 Convergence criterion met
   10   -1037.9666948904      2.60E-07 Convergence criterion met
   10   -1037.9672083383      2.89E-07 Convergence criterion met
   10   -1037.9674597398      3.23E-07 Convergence criterion met
   10   -1037.9675599796      3.31E-07 Convergence criterion met
   10   -1037.9676121922      3.32E-07 Convergence criterion met
 **  OPTIMIZATION CONVERGED  **
 **  OPTIMIZATION CONVERGED  **
 **  OPTIMIZATION CONVERGED  **
 Final energy is   -1038.33113114950
    9   -1038.3311311611      9.90E-07 Convergence criterion met
   10   -1038.3240893017      2.82E-07 Convergence criterion met
   10   -1038.3242206040      2.86E-07 Convergence criterion met
   10   -1038.3243322999      2.86E-07 Convergence criterion met
   10   -1038.3243367695      2.86E-07 Convergence criterion met
   10   -1038.3243376949      2.86E-07 Convergence criterion met
 Final energy is   -1038.32433769492
   10   -1038.3243377067      2.86E-07 Convergence criterion met
   10   -1038.3165729227      3.91E-07 Convergence criterion met
   10   -1038.3166369963      3.91E-07 Convergence criterion met
   10   -1038.3167594006      3.88E-07 Convergence criterion met
   10   -1038.3167637808      3.88E-07 Convergence criterion met

             Standard Nuclear Orientation (Angstroms)
    I     Atom           X                Y                Z
 ----------------------------------------------------------------
    1      C      -1.0191487327    -0.0257715154     0.6990840846
    2      C       0.4749335980    -0.1360121215     0.5955521976
    3      C      -1.7956401289    -0.0209617749    -0.6168600734
    4      Cl      1.1054211054    -1.4774354981    -0.3282252146
    5      Cl      1.1678516411     1.7226082465    -0.3559697329
    6      H      -1.2253822008     0.8799629413     1.2784220646
    7      H      -1.3310205778    -0.8791207251     1.3221926238
    8      H       1.0389022820    -0.0111622315     1.5136738773
    9      H      -1.6247498643    -0.9380480152    -1.1866863410
   10      H      -2.8668873517     0.0562165956    -0.4123940726
   11      H      -1.4963797702     0.8297240984    -1.2333894136
 ----------------------------------------------------------------

   10   -1038.3167646208      3.88E-07 Convergence criterion met

                    Orbital Energies (a.u.)
 --------------------------------------------------------------

 Alpha MOs
 -- Occupied --
*******-101.517 -10.333 -10.228 -10.193  -9.493  -9.431  -7.257
 -7.247  -7.246  -7.194  -7.185  -7.185  -0.906  -0.803  -0.767
 -0.694  -0.601  -0.506  -0.484  -0.454  -0.405  -0.393  -0.380
 -0.363  -0.331  -0.314  -0.287  -0.286

 Beta MOs
 -- Occupied --
*******-101.517 -10.333 -10.228 -10.193  -9.493  -9.431  -7.257
 -7.247  -7.246  -7.194  -7.185  -7.185  -0.906  -0.803  -0.767
 -0.694  -0.601  -0.506  -0.484  -0.454  -0.405  -0.393  -0.380
 -0.363  -0.331  -0.314  -0.287  -0.286

          Ground-State Mulliken Net Atomic Charges

     Atom                 Charge (a.u.)    Spin (a.u.)
  --------------------------------------------------------
      1 C                    -0.179883       0.000000
      2 C                    -0.187301      -0.000000
      3 C                    -0.323190       0.000000
      4 Cl                    0.051913      -0.000000
      5 Cl                   -0.248724       0.000000
      6 H                     0.149023      -0.000000
      7 H                     0.136246      -0.000000
      8 H                     0.208971      -0.000000
      9 H                     0.127744      -0.000000
     10 H                     0.115179       0.000000
     11 H                     0.150022      -0.000000
  --------------------------------------------------------
  Sum of atomic charges =    -0.000000

                    Cartesian Multipole Moments
 -----------------------------------------------------------------
    Charge (ESU x 10^10)
                -0.0000
    Dipole Moment (Debye)
         X      -2.2112      Y      -1.9389      Z       1.9647
       Tot       3.5368
    Quadrupole Moments (Debye-Ang)
        XX     -45.3055     XY      -2.4012     YY     -48.6557
        XZ       1.0218     YZ       0.6241     ZZ     -42.8138

 Final energy is   -1038.31676462083
 **  OPTIMIZATION CONVERGED  **
 Total job time:  291.33s(wall), 3336.62s(cpu)
        *  Thank you very much for using Q-Chem.  Have a nice day.  *
