 Q-Chem 5.1, Q-Chem, Inc., Pleasanton, CA (2018)
 Q-Chem 5.1.1 for Intel X86 EM64T Linux

User input:
--------------------------------------------------------------

$comment
potential surface scanner
$end

$rem
JOBTYPE  PES_SCAN
UNRESTRICTED TRUE
SYM_IGNORE  TRUE
GEOM_OPT_MAX_CYCLES 400
SCF_MAX_CYCLES 400
METHOD   B3LYP
BASIS   6-31G**
PDB_PRINT 2
SCF_CONVERGENCE 6
THRESH 14
SCF_PRINT 1
$end
$molecule
0 1
S 1.423184 0.090470 0.616711
C -1.312165 -0.118452 0.711000
C -0.176887 -0.553884 0.158745
C -2.682717 -0.530250 0.258728
H -1.259574 0.589704 1.537155
H 3.088186 2.570178 -2.663234
H 2.098877 -1.075993 0.577375
H -0.186302 -1.260251 -0.668125
H -3.258955 -0.957234 1.088695
H -3.252876 0.332491 -0.108685
H -2.638765 -1.271346 -0.544648
H 2.870594 2.088370 -2.140715
$end
$scan
stre 1 12 3.800000 3.801000 0.100000
$end
--------------------------------------------------------------

    9    -517.2849198046      8.50e-07  Convergence criterion met
 Total energy in the final basis set =     -517.2849198046
    9    -517.2848910619      8.50e-07  Convergence criterion met
 Total energy in the final basis set =     -517.2848910619

             Standard Nuclear Orientation (Angstroms)
    I     Atom           X                Y                Z
 ----------------------------------------------------------------
    1      S       1.4146842444     0.0750043038     0.6359251505
    2      C      -1.3215593063    -0.1272003980     0.7202993400
    3      C      -0.1854709822    -0.5640239641     0.1708190799
    4      C      -2.6915769303    -0.5343948246     0.2622663042
    5      H      -1.2700467131     0.5786101620     1.5485240439
    6      H       3.1352643684     2.6121392088    -2.7075125582
    7      H       2.0874382559    -1.0931259449     0.5959291216
    8      H      -0.1938531682    -1.2682393490    -0.6579008450
    9      H      -3.2716132697    -0.9623325790     1.0890933132
   10      H      -3.2584647944     0.3307236587    -0.1046238186
   11      H      -2.6467121781    -1.2733341793    -0.5430469766
   12      H       2.9145104737     2.1299769056    -2.1867701551
 ----------------------------------------------------------------

    9    -517.2848906343      8.50e-07  Convergence criterion met
 Total energy in the final basis set =     -517.2848906343

                    Orbital Energies (a.u.)
 --------------------------------------------------------------

 Alpha MOs
 -- Occupied --
-88.883 -10.215 -10.198 -10.190  -7.945  -5.910  -5.907  -5.900
 -0.812  -0.747  -0.661  -0.555  -0.464  -0.441  -0.422  -0.417
 -0.390  -0.371  -0.336  -0.291  -0.224

 Beta MOs
 -- Occupied --
-88.883 -10.215 -10.198 -10.190  -7.945  -5.910  -5.907  -5.900
 -0.812  -0.747  -0.661  -0.555  -0.464  -0.441  -0.422  -0.417
 -0.390  -0.371  -0.336  -0.291  -0.224

          Ground-State Mulliken Net Atomic Charges

     Atom                 Charge (a.u.)    Spin (a.u.)
  --------------------------------------------------------
      1 S                    -0.007718       0.000000
      2 C                    -0.029598       0.000000
      3 C                    -0.246562      -0.000000
      4 C                    -0.351449      -0.000000
      5 H                     0.102415       0.000000
      6 H                    -0.016331      -0.000000
      7 H                     0.059931      -0.000000
      8 H                     0.118683       0.000000
      9 H                     0.121166       0.000000
     10 H                     0.123414       0.000000
     11 H                     0.111843       0.000000
     12 H                     0.014206       0.000000
  --------------------------------------------------------
  Sum of atomic charges =    -0.000000

                    Cartesian Multipole Moments
 -----------------------------------------------------------------
    Charge (ESU x 10^10)
                 0.0000
    Dipole Moment (Debye)
         X      -1.1087      Y      -1.1761      Z      -0.2253
       Tot       1.6320
    Quadrupole Moments (Debye-Ang)
        XX     -31.5717     XY      -2.3424     YY     -33.6093
        XZ      -0.4679     YZ       0.8447     ZZ     -35.8677

 Final energy is   -517.284890634252
 **  OPTIMIZATION CONVERGED  **
 Total job time:  8.79s(wall), 98.15s(cpu)
        *  Thank you very much for using Q-Chem.  Have a nice day.  *
