 Q-Chem 5.1, Q-Chem, Inc., Pleasanton, CA (2018)
 Q-Chem 5.1.1 for Intel X86 EM64T Linux

User input:
--------------------------------------------------------------

$comment
potential surface scanner
$end

$rem
JOBTYPE  PES_SCAN
UNRESTRICTED TRUE
SYM_IGNORE  TRUE
GEOM_OPT_MAX_CYCLES 400
SCF_MAX_CYCLES 400
METHOD   B3LYP
BASIS   6-31G**
PDB_PRINT 2
SCF_CONVERGENCE 6
THRESH 14
SCF_PRINT 1
$end
$molecule
0 1
S 2.176004 -0.216547 0.316966
C -0.565903 0.429759 0.053448
C 0.446953 -0.717997 0.131387
C -2.009761 -0.072310 -0.037403
H -0.438103 1.085128 0.921607
H -0.312234 1.032920 -0.829242
H 0.261295 -1.309856 1.044656
H 0.339037 -1.400508 -0.717356
H -2.303860 -0.620492 0.864471
H -2.705230 0.764196 -0.157378
H -2.145488 -0.742182 -0.893755
H 1.969890 1.671690 -1.874398
$end
$scan
stre 1 12 3.000000 3.001000 0.100000
$end
--------------------------------------------------------------

   12    -517.1774948167      2.45e-07  Convergence criterion met
 Total energy in the final basis set =     -517.1774948167
   12    -517.1715583301      6.51e-07  Convergence criterion met
 Total energy in the final basis set =     -517.1715583301
   12    -517.1714553630      7.72e-07  Convergence criterion met
 Total energy in the final basis set =     -517.1714553630
   13    -517.1714737782      8.16e-07  Convergence criterion met
 Total energy in the final basis set =     -517.1714737782

             Standard Nuclear Orientation (Angstroms)
    I     Atom           X                Y                Z
 ----------------------------------------------------------------
    1      S       2.1744109959    -0.2377819955     0.3418804523
    2      C      -0.5601536615     0.4260550486     0.0578923953
    3      C       0.4455792112    -0.7270909354     0.1403048828
    4      C      -2.0061759529    -0.0702672155    -0.0400605008
    5      H      -0.4350451060     1.0805301918     0.9270073404
    6      H      -0.3014152844     1.0288334644    -0.8240171542
    7      H       0.2473792222    -1.3179192002     1.0524762808
    8      H       0.3402875802    -1.4087879534    -0.7091073175
    9      H      -2.3067880195    -0.6179388061     0.8598854744
   10      H      -2.6974293654     0.7692823111    -0.1630988474
   11      H      -2.1403203601    -0.7387425917    -0.8977480512
   12      H       1.9522707404     1.7176286820    -1.9224119550
 ----------------------------------------------------------------

   13    -517.1714745683      8.19e-07  Convergence criterion met
 Total energy in the final basis set =     -517.1714745683

                    Orbital Energies (a.u.)
 --------------------------------------------------------------

 Alpha MOs
 -- Occupied --
-88.905 -10.229 -10.198 -10.186  -7.962  -5.928  -5.924  -5.915
 -0.815  -0.738  -0.638  -0.588  -0.481  -0.433  -0.411  -0.409
 -0.359  -0.346  -0.342  -0.262  -0.240

 Beta MOs
 -- Occupied --
-88.905 -10.229 -10.198 -10.186  -7.962  -5.928  -5.924  -5.915
 -0.815  -0.738  -0.638  -0.588  -0.481  -0.433  -0.411  -0.409
 -0.359  -0.346  -0.342  -0.262  -0.240

          Ground-State Mulliken Net Atomic Charges

     Atom                 Charge (a.u.)    Spin (a.u.)
  --------------------------------------------------------
      1 S                    -0.015065       0.000000
      2 C                    -0.163559       0.000000
      3 C                    -0.343371       0.000000
      4 C                    -0.325133       0.000000
      5 H                     0.119208      -0.000000
      6 H                     0.111476       0.000000
      7 H                     0.152345       0.000000
      8 H                     0.147009       0.000000
      9 H                     0.107566      -0.000000
     10 H                     0.114049       0.000000
     11 H                     0.108568       0.000000
     12 H                    -0.013093      -0.000000
  --------------------------------------------------------
  Sum of atomic charges =     0.000000

                    Cartesian Multipole Moments
 -----------------------------------------------------------------
    Charge (ESU x 10^10)
                 0.0000
    Dipole Moment (Debye)
         X      -2.1181      Y      -0.6089      Z       0.1330
       Tot       2.2078
    Quadrupole Moments (Debye-Ang)
        XX     -39.4166     XY      -0.1676     YY     -34.1971
        XZ       0.0720     YZ      -1.4329     ZZ     -34.0471

 Final energy is   -517.171474568335
 **  OPTIMIZATION CONVERGED  **
 Total job time:  18.94s(wall), 217.24s(cpu)
        *  Thank you very much for using Q-Chem.  Have a nice day.  *
