 Q-Chem 5.1, Q-Chem, Inc., Pleasanton, CA (2018)
 Q-Chem 5.1.1 for Intel X86 EM64T Linux

User input:
--------------------------------------------------------------

$comment
potential surface scanner
$end

$rem
JOBTYPE  PES_SCAN
UNRESTRICTED TRUE
SYM_IGNORE  TRUE
GEOM_OPT_MAX_CYCLES 400
SCF_MAX_CYCLES 400
METHOD   B3LYP
BASIS   6-31G**
PDB_PRINT 2
SCF_CONVERGENCE 6
THRESH 14
SCF_PRINT 1
$end
$molecule
0 1
S 2.170478 -0.123716 0.278109
C -0.596721 0.454739 0.049355
C 0.446577 -0.663814 0.091768
C -2.027425 -0.091291 -0.016502
H -0.472090 1.100453 0.925213
H -0.390191 1.079637 -0.828925
H 0.290412 -1.285689 0.989203
H 0.355346 -1.328021 -0.772879
H -2.275225 -0.678495 0.874733
H -2.753550 0.724361 -0.088312
H -2.166929 -0.737738 -0.890156
H 2.131917 1.453375 -1.788603
$end
$scan
stre 1 12 2.700000 2.701000 0.100000
$end
--------------------------------------------------------------

   11    -517.1995750947      6.54e-07  Convergence criterion met
 Total energy in the final basis set =     -517.1995750947
   12    -517.1916001984      1.21e-07  Convergence criterion met
 Total energy in the final basis set =     -517.1916001984
   12    -517.1914526622      1.22e-07  Convergence criterion met
 Total energy in the final basis set =     -517.1914526622
   12    -517.1914787411      1.24e-07  Convergence criterion met
 Total energy in the final basis set =     -517.1914787411
   12    -517.1914811353      1.25e-07  Convergence criterion met
 Total energy in the final basis set =     -517.1914811353
   12    -517.1914873566      1.26e-07  Convergence criterion met
 Total energy in the final basis set =     -517.1914873566

             Standard Nuclear Orientation (Angstroms)
    I     Atom           X                Y                Z
 ----------------------------------------------------------------
    1      S       2.1672574797    -0.1412739715     0.2952146375
    2      C      -0.5937058753     0.4477936545     0.0546581497
    3      C       0.4451509939    -0.6761253660     0.1036080547
    4      C      -2.0270274585    -0.0883541732    -0.0198815970
    5      H      -0.4692091738     1.0938485937     0.9303403281
    6      H      -0.3732213351     1.0697484610    -0.8229732895
    7      H       0.2825300606    -1.2979463965     1.0007531399
    8      H       0.3538062228    -1.3416239420    -0.7601650061
    9      H      -2.2848842617    -0.6695531151     0.8723147316
   10      H      -2.7464484015     0.7323975755    -0.1004279513
   11      H      -2.1654159594    -0.7374860587    -0.8917466949
   12      H       2.1237667080     1.5123757383    -1.8386905028
 ----------------------------------------------------------------

   12    -517.1914880633      1.26e-07  Convergence criterion met
 Total energy in the final basis set =     -517.1914880633

                    Orbital Energies (a.u.)
 --------------------------------------------------------------

 Alpha MOs
 -- Occupied --
-88.905 -10.227 -10.196 -10.185  -7.962  -5.929  -5.924  -5.915
 -0.813  -0.737  -0.637  -0.587  -0.479  -0.432  -0.409  -0.408
 -0.358  -0.345  -0.340  -0.272  -0.239

 Beta MOs
 -- Occupied --
-88.905 -10.227 -10.196 -10.185  -7.962  -5.929  -5.924  -5.915
 -0.813  -0.737  -0.637  -0.587  -0.479  -0.432  -0.409  -0.408
 -0.358  -0.345  -0.340  -0.272  -0.239

          Ground-State Mulliken Net Atomic Charges

     Atom                 Charge (a.u.)    Spin (a.u.)
  --------------------------------------------------------
      1 S                    -0.019008       0.000000
      2 C                    -0.162786      -0.000000
      3 C                    -0.341806       0.000000
      4 C                    -0.324367       0.000000
      5 H                     0.117702      -0.000000
      6 H                     0.110799       0.000000
      7 H                     0.148205       0.000000
      8 H                     0.146850      -0.000000
      9 H                     0.106890      -0.000000
     10 H                     0.112971      -0.000000
     11 H                     0.107822      -0.000000
     12 H                    -0.003271      -0.000000
  --------------------------------------------------------
  Sum of atomic charges =    -0.000000

                    Cartesian Multipole Moments
 -----------------------------------------------------------------
    Charge (ESU x 10^10)
                 0.0000
    Dipole Moment (Debye)
         X      -2.0290      Y      -0.5457      Z       0.0156
       Tot       2.1012
    Quadrupole Moments (Debye-Ang)
        XX     -39.3717     XY      -0.0853     YY     -34.2347
        XZ      -0.0985     YZ      -1.5735     ZZ     -33.6966

 Final energy is   -517.191488063348
 **  OPTIMIZATION CONVERGED  **
 Total job time:  25.64s(wall), 295.34s(cpu)
        *  Thank you very much for using Q-Chem.  Have a nice day.  *
