 Q-Chem 5.1, Q-Chem, Inc., Pleasanton, CA (2018)
 Q-Chem 5.1.1 for Intel X86 EM64T Linux

User input:
--------------------------------------------------------------

$comment
potential surface scanner
$end

$rem
JOBTYPE  PES_SCAN
UNRESTRICTED TRUE
SYM_IGNORE  TRUE
GEOM_OPT_MAX_CYCLES 400
SCF_MAX_CYCLES 400
METHOD   B3LYP
BASIS   6-31G**
PDB_PRINT 2
SCF_CONVERGENCE 6
THRESH 14
SCF_PRINT 1
$end
$molecule
0 3
S 1.857476 0.022880 -1.071622
C -0.706508 0.039173 0.152816
C 0.448516 -0.735812 -0.427642
C -1.929607 -0.854541 0.394268
H -0.977658 0.860249 -0.522997
H 1.147934 2.885037 -1.051783
H -0.412551 0.518362 1.102318
H 0.613024 -1.760857 -0.092540
H -2.755390 -0.272703 0.815587
H -2.273774 -1.311154 -0.538421
H -1.695295 -1.660541 1.097812
H 1.396430 2.173712 -1.034794
$end
$scan
stre 1 12 2.100000 2.101000 0.100000
$end
--------------------------------------------------------------

   11    -517.2132379143      3.56e-07  Convergence criterion met
 Total energy in the final basis set =     -517.2132379143
   11    -517.2115716116      3.14e-07  Convergence criterion met
 Total energy in the final basis set =     -517.2115716116
   11    -517.2115547537      3.18e-07  Convergence criterion met
 Total energy in the final basis set =     -517.2115547537
   11    -517.2115609807      3.23e-07  Convergence criterion met
 Total energy in the final basis set =     -517.2115609807
   11    -517.2115666835      3.29e-07  Convergence criterion met
 Total energy in the final basis set =     -517.2115666835
   11    -517.2115692842      3.33e-07  Convergence criterion met
 Total energy in the final basis set =     -517.2115692842
   11    -517.2115703818      3.35e-07  Convergence criterion met
 Total energy in the final basis set =     -517.2115703818

             Standard Nuclear Orientation (Angstroms)
    I     Atom           X                Y                Z
 ----------------------------------------------------------------
    1      S       1.8753417114     0.0504744385    -1.0602159386
    2      C      -0.6993636870     0.0579539180     0.1572181218
    3      C       0.4584946155    -0.7070212217    -0.4290776733
    4      C      -1.9201034522    -0.8419582302     0.3871193637
    5      H      -0.9720833951     0.8854142486    -0.5100304296
    6      H       1.0929678310     2.7945445551    -1.0413327645
    7      H      -0.4086858836     0.5280009793     1.1124117668
    8      H       0.6200042716    -1.7377633437    -0.1102662857
    9      H      -2.7485024895    -0.2674771472     0.8133451330
   10      H      -2.2612926630    -1.2894689776    -0.5510978729
   11      H      -1.6845247710    -1.6549738210     1.0821231878
   12      H       1.3603449118     2.0860796016    -1.0271946085
 ----------------------------------------------------------------

   11    -517.2115713656      3.36e-07  Convergence criterion met
 Total energy in the final basis set =     -517.2115713656

                    Orbital Energies (a.u.)
 --------------------------------------------------------------

 Alpha MOs
 -- Occupied --
-88.905 -10.213 -10.201 -10.183  -7.966  -5.936  -5.926  -5.921
 -0.816  -0.751  -0.643  -0.576  -0.463  -0.456  -0.429  -0.422
 -0.369  -0.362  -0.347  -0.307  -0.281  -0.169

 Beta MOs
 -- Occupied --
-88.899 -10.201 -10.201 -10.182  -7.960  -5.923  -5.918  -5.915
 -0.794  -0.731  -0.629  -0.549  -0.450  -0.445  -0.419  -0.408
 -0.360  -0.354  -0.337  -0.269

          Ground-State Mulliken Net Atomic Charges

     Atom                 Charge (a.u.)    Spin (a.u.)
  --------------------------------------------------------
      1 S                     0.084421       1.037670
      2 C                    -0.181259      -0.025935
      3 C                    -0.274154       0.839585
      4 C                    -0.320186       0.007873
      5 H                     0.114339       0.015410
      6 H                     0.033210       0.105185
      7 H                     0.114244       0.050388
      8 H                     0.134444       0.001951
      9 H                     0.106763       0.000799
     10 H                     0.116989       0.001518
     11 H                     0.107888      -0.000736
     12 H                    -0.036700      -0.033708
  --------------------------------------------------------
  Sum of atomic charges =     0.000000

                    Cartesian Multipole Moments
 -----------------------------------------------------------------
    Charge (ESU x 10^10)
                -0.0000
    Dipole Moment (Debye)
         X      -0.9872      Y      -0.0661      Z       0.7637
       Tot       1.2498
    Quadrupole Moments (Debye-Ang)
        XX     -35.8201     XY      -0.7526     YY     -32.2704
        XZ       0.3478     YZ      -0.8431     ZZ     -36.7661

 Final energy is   -517.211571365580
 **  OPTIMIZATION CONVERGED  **
 Total job time:  27.34s(wall), 314.81s(cpu)
        *  Thank you very much for using Q-Chem.  Have a nice day.  *
