 Q-Chem 5.1, Q-Chem, Inc., Pleasanton, CA (2018)
 Q-Chem 5.1.1 for Intel X86 EM64T Linux

User input:
--------------------------------------------------------------

$comment
potential surface scanner
$end

$rem
JOBTYPE  PES_SCAN
UNRESTRICTED TRUE
SYM_IGNORE  TRUE
GEOM_OPT_MAX_CYCLES 400
SCF_MAX_CYCLES 400
METHOD   B3LYP
BASIS   6-31G**
PDB_PRINT 2
SCF_CONVERGENCE 6
THRESH 14
SCF_PRINT 1
$end
$molecule
0 1
S 2.126400 0.172600 -0.001000
C -0.602600 0.507000 0.001200
C 0.472000 -0.574500 0.001000
C -1.995800 -0.105100 -0.001200
H -0.500600 1.146800 0.886100
H -0.499900 1.148900 -0.882200
H 0.380400 -1.208800 0.888400
H 0.378500 -1.212800 -0.883500
H -2.152000 -0.728200 0.885200
H -2.755700 0.682700 -0.000800
H -2.150200 -0.725500 -0.889800
H 2.012100 0.800700 -1.180400
$end
$scan
stre 1 12 1.000000 1.001000 0.100000
$end
--------------------------------------------------------------

    9    -517.3385956811      3.60e-07  Convergence criterion met
 Total energy in the final basis set =     -517.3385956811
    9    -517.3245232978      4.10e-07  Convergence criterion met
 Total energy in the final basis set =     -517.3245232978
    9    -517.2595039446      4.47e-07  Convergence criterion met
 Total energy in the final basis set =     -517.2595039446
    9    -517.2291243513      4.52e-07  Convergence criterion met
 Total energy in the final basis set =     -517.2291243513
    9    -517.2270378106      4.52e-07  Convergence criterion met
 Total energy in the final basis set =     -517.2270378106
    9    -517.2270311552      4.52e-07  Convergence criterion met
 Total energy in the final basis set =     -517.2270311552

             Standard Nuclear Orientation (Angstroms)
    I     Atom           X                Y                Z
 ----------------------------------------------------------------
    1      S       2.1812650134     0.1844822185    -0.0723871008
    2      C      -0.6346770758     0.5282598862    -0.0279041617
    3      C       0.4788075084    -0.5217480104    -0.0595773919
    4      C      -2.0257960658    -0.1149866687     0.0146373832
    5      H      -0.4898923893     1.1775453713     0.8426176964
    6      H      -0.5523202659     1.1719292954    -0.9127249947
    7      H       0.4404020712    -1.1508840925     0.8338233391
    8      H       0.3683940569    -1.1842762259    -0.9240075871
    9      H      -2.1451146661    -0.7423202613     0.9050201807
   10      H      -2.8109291480     0.6471432132     0.0368906004
   11      H      -2.2002304900    -0.7476561715    -0.8628190011
   12      H       2.1026914510     0.6563114457    -0.9505689624
 ----------------------------------------------------------------

    9    -517.2270356339      4.52e-07  Convergence criterion met
 Total energy in the final basis set =     -517.2270356339

                    Orbital Energies (a.u.)
 --------------------------------------------------------------

 Alpha MOs
 -- Occupied --
-88.841 -10.219 -10.193 -10.183  -7.921  -5.885  -5.880  -5.873
 -0.823  -0.765  -0.672  -0.597  -0.480  -0.449  -0.416  -0.403
 -0.380  -0.352  -0.341  -0.318  -0.237

 Beta MOs
 -- Occupied --
-88.841 -10.219 -10.193 -10.183  -7.921  -5.885  -5.880  -5.873
 -0.823  -0.765  -0.672  -0.597  -0.480  -0.449  -0.416  -0.403
 -0.380  -0.352  -0.341  -0.318  -0.237

          Ground-State Mulliken Net Atomic Charges

     Atom                 Charge (a.u.)    Spin (a.u.)
  --------------------------------------------------------
      1 S                    -0.024622      -0.000000
      2 C                    -0.167957       0.000000
      3 C                    -0.328706       0.000000
      4 C                    -0.322976       0.000000
      5 H                     0.117156      -0.000000
      6 H                     0.098966      -0.000000
      7 H                     0.139719      -0.000000
      8 H                     0.132965      -0.000000
      9 H                     0.107769      -0.000000
     10 H                     0.110069       0.000000
     11 H                     0.105733      -0.000000
     12 H                     0.031885       0.000000
  --------------------------------------------------------
  Sum of atomic charges =    -0.000000

                    Cartesian Multipole Moments
 -----------------------------------------------------------------
    Charge (ESU x 10^10)
                -0.0000
    Dipole Moment (Debye)
         X      -1.7710      Y      -0.0480      Z      -0.8316
       Tot       1.9571
    Quadrupole Moments (Debye-Ang)
        XX     -38.6094     XY       0.7479     YY     -33.8274
        XZ      -1.9947     YZ      -1.5100     ZZ     -32.4506

 Final energy is   -517.227035633923
 **  OPTIMIZATION CONVERGED  **
 Total job time:  22.10s(wall), 252.08s(cpu)
        *  Thank you very much for using Q-Chem.  Have a nice day.  *
