 Q-Chem 5.1, Q-Chem, Inc., Pleasanton, CA (2018)
 Q-Chem 5.1.1 for Intel X86 EM64T Linux

User input:
--------------------------------------------------------------

$comment
potential surface scanner
$end

$rem
JOBTYPE  PES_SCAN
UNRESTRICTED TRUE
SYM_IGNORE  TRUE
GEOM_OPT_MAX_CYCLES 400
SCF_MAX_CYCLES 400
METHOD   B3LYP
BASIS   6-31G**
PDB_PRINT 2
SCF_CONVERGENCE 6
THRESH 14
SCF_PRINT 1
$end
$molecule
0 1
S 2.188243 0.075358 0.070698
C -0.624555 0.502305 0.001378
C 0.466538 -0.569843 -0.004995
C -2.030997 -0.107785 0.004805
H -0.487533 1.149881 0.874407
H -0.499106 1.141841 -0.881528
H 0.389552 -1.200099 0.888846
H 0.365657 -1.229139 -0.872109
H -2.193766 -0.726460 0.894376
H -2.798254 0.672649 -0.002288
H -2.192953 -0.741661 -0.874223
H 2.129772 0.936754 -1.276364
$end
$scan
stre 1 12 1.700000 1.701000 0.100000
$end
--------------------------------------------------------------

    9    -517.3209624818      4.68e-07  Convergence criterion met
 Total energy in the final basis set =     -517.3209624818
    9    -517.3079346263      5.47e-07  Convergence criterion met
 Total energy in the final basis set =     -517.3079346263
    9    -517.3075613994      5.55e-07  Convergence criterion met
 Total energy in the final basis set =     -517.3075613994

             Standard Nuclear Orientation (Angstroms)
    I     Atom           X                Y                Z
 ----------------------------------------------------------------
    1      S       2.1871129429     0.0589386106     0.0941921038
    2      C      -0.6236646393     0.4990289048     0.0073418853
    3      C       0.4639916714    -0.5763800512     0.0049569195
    4      C      -2.0319480807    -0.1070932449     0.0027326669
    5      H      -0.4894244795     1.1445528001     0.8823307737
    6      H      -0.4908342092     1.1393916351    -0.8737400354
    7      H       0.3803341921    -1.2072285735     0.8984148575
    8      H       0.3662856116    -1.2346523604    -0.8631801784
    9      H      -2.2013649903    -0.7262331506     0.8907660552
   10      H      -2.7968773340     0.6755629220    -0.0075471217
   11      H      -2.1910806048    -0.7396226137    -0.8777838586
   12      H       2.1400679200     0.9775361218    -1.3354810679
 ----------------------------------------------------------------

    9    -517.3075617053      5.54e-07  Convergence criterion met
 Total energy in the final basis set =     -517.3075617053

                    Orbital Energies (a.u.)
 --------------------------------------------------------------

 Alpha MOs
 -- Occupied --
-88.889 -10.220 -10.193 -10.183  -7.946  -5.912  -5.908  -5.900
 -0.807  -0.732  -0.638  -0.588  -0.477  -0.432  -0.408  -0.403
 -0.361  -0.349  -0.341  -0.316  -0.234

 Beta MOs
 -- Occupied --
-88.889 -10.220 -10.193 -10.183  -7.946  -5.912  -5.908  -5.900
 -0.807  -0.732  -0.638  -0.588  -0.477  -0.432  -0.408  -0.403
 -0.361  -0.349  -0.341  -0.316  -0.234

          Ground-State Mulliken Net Atomic Charges

     Atom                 Charge (a.u.)    Spin (a.u.)
  --------------------------------------------------------
      1 S                    -0.050239      -0.000000
      2 C                    -0.162198       0.000000
      3 C                    -0.328600      -0.000000
      4 C                    -0.322815       0.000000
      5 H                     0.116024      -0.000000
      6 H                     0.101310      -0.000000
      7 H                     0.138101      -0.000000
      8 H                     0.138560      -0.000000
      9 H                     0.106967      -0.000000
     10 H                     0.110373      -0.000000
     11 H                     0.106123      -0.000000
     12 H                     0.046396       0.000000
  --------------------------------------------------------
  Sum of atomic charges =     0.000000

                    Cartesian Multipole Moments
 -----------------------------------------------------------------
    Charge (ESU x 10^10)
                 0.0000
    Dipole Moment (Debye)
         X      -1.7625      Y      -0.1544      Z      -0.5336
       Tot       1.8480
    Quadrupole Moments (Debye-Ang)
        XX     -38.9158     XY       0.6154     YY     -34.2615
        XZ      -1.2768     YZ      -1.6736     ZZ     -33.1047

 Final energy is   -517.307561705261
 **  OPTIMIZATION CONVERGED  **
 Total job time:  13.74s(wall), 144.82s(cpu)
        *  Thank you very much for using Q-Chem.  Have a nice day.  *
