 Q-Chem 5.1, Q-Chem, Inc., Pleasanton, CA (2018)
 Q-Chem 5.1.1 for Intel X86 EM64T Linux

User input:
--------------------------------------------------------------

$comment
potential surface scanner
$end

$rem
JOBTYPE  PES_SCAN
UNRESTRICTED TRUE
SYM_IGNORE  TRUE
GEOM_OPT_MAX_CYCLES 400
SCF_MAX_CYCLES 400
METHOD   B3LYP
BASIS   6-31G**
PDB_PRINT 2
SCF_CONVERGENCE 6
THRESH 14
SCF_PRINT 1
$end
$molecule
0 1
S 2.173903 -0.058312 0.218310
C -0.610077 0.470101 0.036563
C 0.451461 -0.631321 0.061629
C -2.032781 -0.098076 -0.008568
H -0.482024 1.115301 0.912459
H -0.427401 1.100629 -0.843031
H 0.325294 -1.259041 0.957879
H 0.358452 -1.293174 -0.804394
H -2.252382 -0.698386 0.881354
H -2.773815 0.705773 -0.057524
H -2.178785 -0.738357 -0.885723
H 2.160753 1.288666 -1.645953
$end
$scan
stre 1 12 2.400000 2.401000 0.100000
$end
--------------------------------------------------------------

   10    -517.2286602344      5.39e-07  Convergence criterion met
 Total energy in the final basis set =     -517.2286602344
   10    -517.2183527637      7.12e-07  Convergence criterion met
 Total energy in the final basis set =     -517.2183527637
   10    -517.2181284639      7.19e-07  Convergence criterion met
 Total energy in the final basis set =     -517.2181284639
   10    -517.2181300934      7.21e-07  Convergence criterion met
 Total energy in the final basis set =     -517.2181300934
   10    -517.2181313283      7.25e-07  Convergence criterion met
 Total energy in the final basis set =     -517.2181313283
   10    -517.2181326518      7.31e-07  Convergence criterion met
 Total energy in the final basis set =     -517.2181326518

             Standard Nuclear Orientation (Angstroms)
    I     Atom           X                Y                Z
 ----------------------------------------------------------------
    1      S       2.1734588694    -0.0849649345     0.2331837309
    2      C      -0.6041261327     0.4628252428     0.0385619384
    3      C       0.4499061469    -0.6461028430     0.0713830551
    4      C      -2.0307024276    -0.0946631998    -0.0110965400
    5      H      -0.4746830629     1.1106677502     0.9122494289
    6      H      -0.4115271945     1.0880797307    -0.8429153202
    7      H       0.3144184898    -1.2689118850     0.9703089927
    8      H       0.3541857308    -1.3111498691    -0.7920063890
    9      H      -2.2620493771    -0.6840879191     0.8830806717
   10      H      -2.7646732068     0.7147054641    -0.0737041955
   11      H      -2.1754635764    -0.7423440330    -0.8830019690
   12      H       2.1438537411     1.3597494957    -1.6830424040
 ----------------------------------------------------------------

   10    -517.2181331702      7.33e-07  Convergence criterion met
 Total energy in the final basis set =     -517.2181331702

                    Orbital Energies (a.u.)
 --------------------------------------------------------------

 Alpha MOs
 -- Occupied --
-88.904 -10.225 -10.195 -10.185  -7.960  -5.927  -5.922  -5.914
 -0.811  -0.735  -0.637  -0.586  -0.478  -0.431  -0.408  -0.407
 -0.357  -0.344  -0.339  -0.286  -0.238

 Beta MOs
 -- Occupied --
-88.904 -10.225 -10.195 -10.185  -7.960  -5.927  -5.922  -5.914
 -0.811  -0.735  -0.637  -0.586  -0.478  -0.431  -0.408  -0.407
 -0.357  -0.344  -0.339  -0.286  -0.238

          Ground-State Mulliken Net Atomic Charges

     Atom                 Charge (a.u.)    Spin (a.u.)
  --------------------------------------------------------
      1 S                    -0.026801      -0.000000
      2 C                    -0.161747      -0.000000
      3 C                    -0.337556       0.000000
      4 C                    -0.323948      -0.000000
      5 H                     0.116959       0.000000
      6 H                     0.108363      -0.000000
      7 H                     0.144535      -0.000000
      8 H                     0.144869       0.000000
      9 H                     0.106771       0.000000
     10 H                     0.112143      -0.000000
     11 H                     0.107320       0.000000
     12 H                     0.009091       0.000000
  --------------------------------------------------------
  Sum of atomic charges =     0.000000

                    Cartesian Multipole Moments
 -----------------------------------------------------------------
    Charge (ESU x 10^10)
                 0.0000
    Dipole Moment (Debye)
         X      -1.9501      Y      -0.4417      Z      -0.1035
       Tot       2.0022
    Quadrupole Moments (Debye-Ang)
        XX     -39.2811     XY       0.0728     YY     -34.2286
        XZ      -0.3061     YZ      -1.6668     ZZ     -33.5383

 Final energy is   -517.218133170226
 **  OPTIMIZATION CONVERGED  **
 Total job time:  23.23s(wall), 264.88s(cpu)
        *  Thank you very much for using Q-Chem.  Have a nice day.  *
