 Q-Chem 5.1, Q-Chem, Inc., Pleasanton, CA (2018)
 Q-Chem 5.1.1 for Intel X86 EM64T Linux

User input:
--------------------------------------------------------------

$comment
potential surface scanner
$end

$rem
JOBTYPE  PES_SCAN
UNRESTRICTED TRUE
SYM_IGNORE  TRUE
GEOM_OPT_MAX_CYCLES 400
SCF_MAX_CYCLES 400
METHOD   B3LYP
BASIS   6-31G**
PDB_PRINT 2
SCF_CONVERGENCE 6
THRESH 14
SCF_PRINT 1
$end
$molecule
0 1
S 2.126400 0.172600 -0.001000
C -0.602600 0.507000 0.001200
C 0.472000 -0.574500 0.001000
C -1.995800 -0.105100 -0.001200
H -0.500600 1.146800 0.886100
H -0.499900 1.148900 -0.882200
H 0.380400 -1.208800 0.888400
H 0.378500 -1.212800 -0.883500
H -2.152000 -0.728200 0.885200
H -2.755700 0.682700 -0.000800
H -2.150200 -0.725500 -0.889800
H 2.012100 0.800700 -1.180400
$end
$scan
stre 1 12 0.800000 0.801000 0.100000
$end
--------------------------------------------------------------

    9    -517.3385956811      3.60e-07  Convergence criterion met
 Total energy in the final basis set =     -517.3385956811
    9    -517.3245232978      4.10e-07  Convergence criterion met
 Total energy in the final basis set =     -517.3245232978
    9    -517.2595039446      4.47e-07  Convergence criterion met
 Total energy in the final basis set =     -517.2595039446
    9    -517.1530181921      4.54e-07  Convergence criterion met
 Total energy in the final basis set =     -517.1530181921
    9    -516.9321032310      4.43e-07  Convergence criterion met
 Total energy in the final basis set =     -516.9321032310
    9    -516.9119771661      4.40e-07  Convergence criterion met
 Total energy in the final basis set =     -516.9119771661
    9    -516.8994161938      4.36e-07  Convergence criterion met
 Total energy in the final basis set =     -516.8994161938
    9    -516.8993912784      4.34e-07  Convergence criterion met
 Total energy in the final basis set =     -516.8993912784
    9    -516.8994361891      4.27e-07  Convergence criterion met
 Total energy in the final basis set =     -516.8994361891
    9    -516.8994372761      4.27e-07  Convergence criterion met
 Total energy in the final basis set =     -516.8994372761

             Standard Nuclear Orientation (Angstroms)
    I     Atom           X                Y                Z
 ----------------------------------------------------------------
    1      S       2.1740584099     0.2154751511    -0.1271325179
    2      C      -0.6365619338     0.5334886915    -0.0385835016
    3      C       0.4830192770    -0.5098140968    -0.0790190426
    4      C      -2.0242834328    -0.1162875574     0.0191036149
    5      H      -0.4861135035     1.1857057998     0.8287893493
    6      H      -0.5679382255     1.1758392811    -0.9255727562
    7      H       0.4595923179    -1.1365113938     0.8161943058
    8      H       0.3686024547    -1.1749592751    -0.9410389115
    9      H      -2.1323281883    -0.7426273641     0.9115656807
   10      H      -2.8130826920     0.6418627865     0.0472609248
   11      H      -2.2041024087    -0.7512662911    -0.8555829802
   12      H       2.0917379252     0.5828942682    -0.8329841656
 ----------------------------------------------------------------

    9    -516.8994405944      4.29e-07  Convergence criterion met
 Total energy in the final basis set =     -516.8994405944

                    Orbital Energies (a.u.)
 --------------------------------------------------------------

 Alpha MOs
 -- Occupied --
-88.823 -10.220 -10.193 -10.183  -7.927  -5.895  -5.881  -5.873
 -0.849  -0.779  -0.681  -0.599  -0.480  -0.453  -0.417  -0.404
 -0.381  -0.353  -0.342  -0.319  -0.240

 Beta MOs
 -- Occupied --
-88.823 -10.220 -10.193 -10.183  -7.927  -5.895  -5.881  -5.873
 -0.849  -0.779  -0.681  -0.599  -0.480  -0.453  -0.417  -0.404
 -0.381  -0.353  -0.342  -0.319  -0.240

          Ground-State Mulliken Net Atomic Charges

     Atom                 Charge (a.u.)    Spin (a.u.)
  --------------------------------------------------------
      1 S                     0.101160       0.000000
      2 C                    -0.169994       0.000000
      3 C                    -0.329270       0.000000
      4 C                    -0.323474       0.000000
      5 H                     0.117630      -0.000000
      6 H                     0.100494      -0.000000
      7 H                     0.141067      -0.000000
      8 H                     0.133331      -0.000000
      9 H                     0.107978      -0.000000
     10 H                     0.110486      -0.000000
     11 H                     0.105963      -0.000000
     12 H                    -0.095372      -0.000000
  --------------------------------------------------------
  Sum of atomic charges =     0.000000

                    Cartesian Multipole Moments
 -----------------------------------------------------------------
    Charge (ESU x 10^10)
                 0.0000
    Dipole Moment (Debye)
         X      -1.8240      Y      -0.0895      Z      -0.7920
       Tot       1.9905
    Quadrupole Moments (Debye-Ang)
        XX     -38.5596     XY       0.6052     YY     -33.6356
        XZ      -1.8730     YZ      -1.4051     ZZ     -32.3212

 Final energy is   -516.899440594443
 **  OPTIMIZATION CONVERGED  **
 Total job time:  34.50s(wall), 396.00s(cpu)
        *  Thank you very much for using Q-Chem.  Have a nice day.  *
