 Q-Chem 5.1, Q-Chem, Inc., Pleasanton, CA (2018)
 Q-Chem 5.1.1 for Intel X86 EM64T Linux

User input:
--------------------------------------------------------------

$comment
potential surface scanner
$end

$rem
JOBTYPE  PES_SCAN
UNRESTRICTED TRUE
SYM_IGNORE  TRUE
GEOM_OPT_MAX_CYCLES 400
SCF_MAX_CYCLES 400
METHOD   B3LYP
BASIS   6-31G**
PDB_PRINT 2
SCF_CONVERGENCE 6
THRESH 14
SCF_PRINT 1
$end
$molecule
0 3
S 1.359876 -0.117515 -1.706785
C -0.956984 -0.070554 -0.101561
C 0.283573 -0.802795 -0.549952
C -1.969832 -1.013904 0.560261
H -1.423494 0.429632 -0.959556
H 2.057371 3.379627 -0.595067
H -0.689918 0.733585 0.605152
H 0.736177 -1.529212 0.126110
H -2.845118 -0.456509 0.908510
H -2.308949 -1.782982 -0.139935
H -1.527592 -1.518963 1.425785
H 1.997488 2.653394 -0.749959
$end
$scan
stre 1 12 2.900000 2.901000 0.100000
$end
--------------------------------------------------------------

   11    -517.2182696784      4.48e-07  Convergence criterion met
 Total energy in the final basis set =     -517.2182696784
   11    -517.2180880411      4.21e-07  Convergence criterion met
 Total energy in the final basis set =     -517.2180880411
   11    -517.2180845290      4.21e-07  Convergence criterion met
 Total energy in the final basis set =     -517.2180845290

             Standard Nuclear Orientation (Angstroms)
    I     Atom           X                Y                Z
 ----------------------------------------------------------------
    1      S       1.3708557817    -0.0863935291    -1.6950740696
    2      C      -0.9518954729    -0.0573752298    -0.0975404945
    3      C       0.2928158727    -0.7822293698    -0.5462696973
    4      C      -1.9629410473    -1.0084881539     0.5558607656
    5      H      -1.4177389831     0.4459582498    -0.9540628448
    6      H       2.0211184071     3.3186116021    -0.5971136689
    7      H      -0.6902580688     0.7437017385     0.6145933718
    8      H       0.7440534835    -1.5140492804     0.1247613980
    9      H      -2.8415050189    -0.4566131846     0.9046328289
   10      H      -2.2969903508    -1.7750068451    -0.1495889095
   11      H      -1.5211616136    -1.5166378849     1.4198090565
   12      H       1.9662450104     2.5923258870    -0.7570047362
 ----------------------------------------------------------------

   11    -517.2180853322      4.21e-07  Convergence criterion met
 Total energy in the final basis set =     -517.2180853322

                    Orbital Energies (a.u.)
 --------------------------------------------------------------

 Alpha MOs
 -- Occupied --
-88.911 -10.215 -10.204 -10.184  -7.971  -5.941  -5.931  -5.926
 -0.818  -0.752  -0.644  -0.575  -0.462  -0.437  -0.423  -0.422
 -0.372  -0.364  -0.350  -0.310  -0.295  -0.171

 Beta MOs
 -- Occupied --
-88.904 -10.203 -10.202 -10.184  -7.965  -5.927  -5.923  -5.919
 -0.796  -0.731  -0.629  -0.547  -0.452  -0.428  -0.421  -0.407
 -0.363  -0.355  -0.341  -0.271

          Ground-State Mulliken Net Atomic Charges

     Atom                 Charge (a.u.)    Spin (a.u.)
  --------------------------------------------------------
      1 S                     0.090163       1.108611
      2 C                    -0.184641      -0.020037
      3 C                    -0.279247       0.829090
      4 C                    -0.316559       0.013734
      5 H                     0.113875       0.009787
      6 H                    -0.020413       0.006738
      7 H                     0.117267       0.049524
      8 H                     0.135922       0.001169
      9 H                     0.107194       0.002518
     10 H                     0.118068       0.001488
     11 H                     0.107772      -0.001057
     12 H                     0.010597      -0.001567
  --------------------------------------------------------
  Sum of atomic charges =    -0.000000

                    Cartesian Multipole Moments
 -----------------------------------------------------------------
    Charge (ESU x 10^10)
                -0.0000
    Dipole Moment (Debye)
         X      -0.8118      Y      -0.2587      Z       0.9710
       Tot       1.2918
    Quadrupole Moments (Debye-Ang)
        XX     -34.4673     XY      -1.5205     YY     -34.7184
        XZ       0.8267     YZ      -1.2805     ZZ     -36.5177

 Final energy is   -517.218085332204
 **  OPTIMIZATION CONVERGED  **
 Total job time:  13.82s(wall), 155.58s(cpu)
        *  Thank you very much for using Q-Chem.  Have a nice day.  *
