 Q-Chem 5.1, Q-Chem, Inc., Pleasanton, CA (2018)
 Q-Chem 5.1.1 for Intel X86 EM64T Linux

User input:
--------------------------------------------------------------

$comment
potential surface scanner
$end

$rem
JOBTYPE  PES_SCAN
UNRESTRICTED TRUE
SYM_IGNORE  TRUE
GEOM_OPT_MAX_CYCLES 400
SCF_MAX_CYCLES 400
METHOD   B3LYP
BASIS   6-31G**
PDB_PRINT 2
SCF_CONVERGENCE 6
THRESH 14
SCF_PRINT 1
$end
$molecule
0 1
S 2.126400 0.172600 -0.001000
C -0.602600 0.507000 0.001200
C 0.472000 -0.574500 0.001000
C -1.995800 -0.105100 -0.001200
H -0.500600 1.146800 0.886100
H -0.499900 1.148900 -0.882200
H 0.380400 -1.208800 0.888400
H 0.378500 -1.212800 -0.883500
H -2.152000 -0.728200 0.885200
H -2.755700 0.682700 -0.000800
H -2.150200 -0.725500 -0.889800
H 2.012100 0.800700 -1.180400
$end
$scan
stre 1 12 1.300000 1.301000 0.100000
$end
--------------------------------------------------------------

    9    -517.3385956811      3.60e-07  Convergence criterion met
 Total energy in the final basis set =     -517.3385956811
    9    -517.3392111872      3.97e-07  Convergence criterion met
 Total energy in the final basis set =     -517.3392111872
    9    -517.3393191437      3.93e-07  Convergence criterion met
 Total energy in the final basis set =     -517.3393191437
    9    -517.3393318325      3.92e-07  Convergence criterion met
 Total energy in the final basis set =     -517.3393318325

             Standard Nuclear Orientation (Angstroms)
    I     Atom           X                Y                Z
 ----------------------------------------------------------------
    1      S       2.1874249825     0.1386790044     0.0044259467
    2      C      -0.6327835232     0.5189203284    -0.0104842704
    3      C       0.4725444440    -0.5391255939    -0.0307754031
    4      C      -2.0295837404    -0.1132316245     0.0090546314
    5      H      -0.4954368609     1.1638281390     0.8645309552
    6      H      -0.5309044785     1.1653458408    -0.8913252155
    7      H       0.4153220194    -1.1703255417     0.8616427259
    8      H       0.3688337734    -1.1991424468    -0.8974452712
    9      H      -2.1670257248    -0.7432102738     0.8949880573
   10      H      -2.8095511406     0.6544030023     0.0227347623
   11      H      -2.1957735719    -0.7413468286    -0.8732834383
   12      H       2.1295338211     0.7690059942    -1.1310634803
 ----------------------------------------------------------------

    9    -517.3393327562      3.92e-07  Convergence criterion met
 Total energy in the final basis set =     -517.3393327562

                    Orbital Energies (a.u.)
 --------------------------------------------------------------

 Alpha MOs
 -- Occupied --
-88.867 -10.218 -10.192 -10.183  -7.931  -5.896  -5.892  -5.886
 -0.808  -0.741  -0.653  -0.593  -0.478  -0.440  -0.413  -0.402
 -0.375  -0.351  -0.340  -0.317  -0.234

 Beta MOs
 -- Occupied --
-88.867 -10.218 -10.192 -10.183  -7.931  -5.896  -5.892  -5.886
 -0.808  -0.741  -0.653  -0.593  -0.478  -0.440  -0.413  -0.402
 -0.375  -0.351  -0.340  -0.317  -0.234

          Ground-State Mulliken Net Atomic Charges

     Atom                 Charge (a.u.)    Spin (a.u.)
  --------------------------------------------------------
      1 S                    -0.051952       0.000000
      2 C                    -0.164673      -0.000000
      3 C                    -0.329200       0.000000
      4 C                    -0.322710      -0.000000
      5 H                     0.116355      -0.000000
      6 H                     0.098839       0.000000
      7 H                     0.138118      -0.000000
      8 H                     0.134411      -0.000000
      9 H                     0.107361       0.000000
     10 H                     0.109925       0.000000
     11 H                     0.105661      -0.000000
     12 H                     0.057864      -0.000000
  --------------------------------------------------------
  Sum of atomic charges =    -0.000000

                    Cartesian Multipole Moments
 -----------------------------------------------------------------
    Charge (ESU x 10^10)
                -0.0000
    Dipole Moment (Debye)
         X      -1.7213      Y      -0.0599      Z      -0.7782
       Tot       1.8900
    Quadrupole Moments (Debye-Ang)
        XX     -38.6692     XY       0.7851     YY     -34.1300
        XZ      -1.8966     YZ      -1.5777     ZZ     -32.7001

 Final energy is   -517.339332756221
 **  OPTIMIZATION CONVERGED  **
 Total job time:  15.91s(wall), 178.93s(cpu)
        *  Thank you very much for using Q-Chem.  Have a nice day.  *
