 Q-Chem 5.1, Q-Chem, Inc., Pleasanton, CA (2018)
 Q-Chem 5.1.1 for Intel X86 EM64T Linux

User input:
--------------------------------------------------------------

$comment
potential surface scanner
$end

$rem
JOBTYPE  PES_SCAN
UNRESTRICTED TRUE
SYM_IGNORE  TRUE
GEOM_OPT_MAX_CYCLES 400
SCF_MAX_CYCLES 400
METHOD   B3LYP
BASIS   6-31G**
PDB_PRINT 2
SCF_CONVERGENCE 6
THRESH 14
SCF_PRINT 1
$end
$molecule
0 1
S 1.431537 0.106062 0.597267
C -1.302836 -0.109713 0.701678
C -0.168395 -0.543733 0.146598
C -2.673899 -0.526183 0.255288
H -1.249158 0.600823 1.525720
H 3.041392 2.528240 -2.618934
H 2.110245 -1.058684 0.558664
H -0.178835 -1.252284 -0.678384
H -3.246253 -0.952195 1.088433
H -3.247391 0.334135 -0.112617
H -2.630867 -1.269454 -0.546121
H 2.827060 2.046789 -2.094590
$end
$scan
stre 1 12 3.700000 3.701000 0.100000
$end
--------------------------------------------------------------

    9    -517.2849465726      8.50e-07  Convergence criterion met
 Total energy in the final basis set =     -517.2849465726
    9    -517.2849202069      8.50e-07  Convergence criterion met
 Total energy in the final basis set =     -517.2849202069

             Standard Nuclear Orientation (Angstroms)
    I     Atom           X                Y                Z
 ----------------------------------------------------------------
    1      S       1.4231836031     0.0904698666     0.6167109487
    2      C      -1.3121654349    -0.1184524394     0.7110001908
    3      C      -0.1768874396    -0.5538843791     0.1587452895
    4      C      -2.6827168035    -0.5302504858     0.2587279354
    5      H      -1.2595735695     0.5897037934     1.5371549174
    6      H       3.0881857232     2.5701783749    -2.6632344772
    7      H       2.0988768971    -1.0759925116     0.5773748908
    8      H      -0.1863017701    -1.2602512828    -0.6681249338
    9      H      -3.2589545949    -0.9572335301     1.0886950775
   10      H      -3.2528761966     0.3324914767    -0.1086854863
   11      H      -2.6387646991    -1.2713460908    -0.5446476106
   12      H       2.8705942847     2.0883702080    -2.1407147425
 ----------------------------------------------------------------

    9    -517.2849198044      8.50e-07  Convergence criterion met
 Total energy in the final basis set =     -517.2849198044

                    Orbital Energies (a.u.)
 --------------------------------------------------------------

 Alpha MOs
 -- Occupied --
-88.883 -10.215 -10.198 -10.190  -7.945  -5.910  -5.907  -5.900
 -0.812  -0.747  -0.661  -0.555  -0.464  -0.441  -0.421  -0.417
 -0.390  -0.371  -0.336  -0.291  -0.224

 Beta MOs
 -- Occupied --
-88.883 -10.215 -10.198 -10.190  -7.945  -5.910  -5.907  -5.900
 -0.812  -0.747  -0.661  -0.555  -0.464  -0.441  -0.421  -0.417
 -0.390  -0.371  -0.336  -0.291  -0.224

          Ground-State Mulliken Net Atomic Charges

     Atom                 Charge (a.u.)    Spin (a.u.)
  --------------------------------------------------------
      1 S                    -0.007553      -0.000000
      2 C                    -0.029585       0.000000
      3 C                    -0.246567      -0.000000
      4 C                    -0.351458      -0.000000
      5 H                     0.102456       0.000000
      6 H                    -0.017844      -0.000000
      7 H                     0.060010      -0.000000
      8 H                     0.118753       0.000000
      9 H                     0.121187       0.000000
     10 H                     0.123459      -0.000000
     11 H                     0.111869       0.000000
     12 H                     0.015273       0.000000
  --------------------------------------------------------
  Sum of atomic charges =    -0.000000

                    Cartesian Multipole Moments
 -----------------------------------------------------------------
    Charge (ESU x 10^10)
                -0.0000
    Dipole Moment (Debye)
         X      -1.1130      Y      -1.1863      Z      -0.2105
       Tot       1.6402
    Quadrupole Moments (Debye-Ang)
        XX     -31.5912     XY      -2.3733     YY     -33.6545
        XZ      -0.4446     YZ       0.8751     ZZ     -35.8743

 Final energy is   -517.284919804371
 **  OPTIMIZATION CONVERGED  **
 Total job time:  9.03s(wall), 100.80s(cpu)
        *  Thank you very much for using Q-Chem.  Have a nice day.  *
