 Q-Chem 5.1, Q-Chem, Inc., Pleasanton, CA (2018)
 Q-Chem 5.1.1 for Intel X86 EM64T Linux

User input:
--------------------------------------------------------------

$comment
potential surface scanner
$end

$rem
JOBTYPE  PES_SCAN
UNRESTRICTED TRUE
SYM_IGNORE  TRUE
GEOM_OPT_MAX_CYCLES 400
SCF_MAX_CYCLES 400
METHOD   B3LYP
BASIS   6-31G**
PDB_PRINT 2
SCF_CONVERGENCE 6
THRESH 14
SCF_PRINT 1
$end
$molecule
0 3
S 1.962824 0.016925 -0.415619
C -0.691739 -0.155790 0.532741
C 0.450631 -0.785318 -0.224657
C -2.034267 -0.818715 0.197133
H -0.742107 0.916222 0.304226
H 1.504416 2.527511 -1.637431
H -0.513648 -0.221782 1.619683
H 0.498449 -1.872643 -0.295770
H -2.845163 -0.361718 0.773243
H -2.268877 -0.716549 -0.866382
H -2.015496 -1.887656 0.435797
H 1.407575 3.263313 -1.599961
$end
$scan
stre 1 12 3.400000 3.401000 0.100000
$end
--------------------------------------------------------------

   11    -517.2177427568      4.83e-07  Convergence criterion met
 Total energy in the final basis set =     -517.2177427568
   11    -517.2161177738      5.72e-07  Convergence criterion met
 Total energy in the final basis set =     -517.2161177738
   11    -517.2171490201      5.59e-07  Convergence criterion met
 Total energy in the final basis set =     -517.2171490201
   11    -517.2174335971      5.46e-07  Convergence criterion met
 Total energy in the final basis set =     -517.2174335971
   11    -517.2174399728      5.43e-07  Convergence criterion met
 Total energy in the final basis set =     -517.2174399728
   11    -517.2174421438      5.42e-07  Convergence criterion met
 Total energy in the final basis set =     -517.2174421438
   11    -517.2174523549      5.31e-07  Convergence criterion met
 Total energy in the final basis set =     -517.2174523549
   11    -517.2174667357      5.12e-07  Convergence criterion met
   11    -517.2184929635      4.64e-07  Convergence criterion met
 Total energy in the final basis set =     -517.2184929635
   11    -517.2184953495      4.63e-07  Convergence criterion met
 Total energy in the final basis set =     -517.2184953495
   11    -517.2184984327      4.65e-07  Convergence criterion met
 Total energy in the final basis set =     -517.2184984327
   11    -517.2184998299      4.66e-07  Convergence criterion met
 Total energy in the final basis set =     -517.2184998299
   11    -517.2185006142      4.71e-07  Convergence criterion met
 Total energy in the final basis set =     -517.2185006142
   11    -517.2185017097      4.69e-07  Convergence criterion met
 Total energy in the final basis set =     -517.2185017097

             Standard Nuclear Orientation (Angstroms)
    I     Atom           X                Y                Z
 ----------------------------------------------------------------
    1      S       1.2900445742    -0.2166502268    -1.7588318155
    2      C      -0.9975619122    -0.1216771369    -0.1139509907
    3      C       0.2421795794    -0.8600639266    -0.5535669336
    4      C      -2.0015322225    -1.0520452914     0.5790043141
    5      H      -1.4730003185     0.3539309874    -0.9810460913
    6      H       2.2651760325     3.6268002156    -0.6045834168
    7      H      -0.7284722912     0.7022479556     0.5689854962
    8      H       0.7083933871    -1.5629675656     0.1376640826
    9      H      -2.8754833559    -0.4895404069     0.9223729526
   10      H      -2.3440449097    -1.8377228042    -0.1007829132
   11      H      -1.5502758557    -1.5366387594     1.4516004682
   12      H       2.1771752925     2.8981269591    -0.7238621527
 ----------------------------------------------------------------

   11    -517.2185022004      4.70e-07  Convergence criterion met
 Total energy in the final basis set =     -517.2185022004

                    Orbital Energies (a.u.)
 --------------------------------------------------------------

 Alpha MOs
 -- Occupied --
-88.910 -10.214 -10.203 -10.184  -7.970  -5.941  -5.930  -5.925
 -0.818  -0.751  -0.643  -0.574  -0.462  -0.436  -0.425  -0.422
 -0.372  -0.364  -0.350  -0.309  -0.294  -0.170

 Beta MOs
 -- Occupied --
-88.904 -10.203 -10.202 -10.183  -7.964  -5.927  -5.923  -5.919
 -0.796  -0.731  -0.629  -0.547  -0.452  -0.427  -0.424  -0.407
 -0.363  -0.355  -0.340  -0.271

          Ground-State Mulliken Net Atomic Charges

     Atom                 Charge (a.u.)    Spin (a.u.)
  --------------------------------------------------------
      1 S                     0.086871       1.111193
      2 C                    -0.184244      -0.020327
      3 C                    -0.280228       0.829912
      4 C                    -0.316023       0.014095
      5 H                     0.113302       0.009253
      6 H                    -0.015514       0.002496
      7 H                     0.116433       0.049815
      8 H                     0.135713       0.000709
      9 H                     0.106874       0.002776
     10 H                     0.118016       0.001499
     11 H                     0.107631      -0.001080
     12 H                     0.011169      -0.000341
  --------------------------------------------------------
  Sum of atomic charges =    -0.000000

                    Cartesian Multipole Moments
 -----------------------------------------------------------------
    Charge (ESU x 10^10)
                 0.0000
    Dipole Moment (Debye)
         X      -0.7773      Y      -0.1615      Z       0.9921
       Tot       1.2706
    Quadrupole Moments (Debye-Ang)
        XX     -34.3559     XY      -1.3460     YY     -34.6211
        XZ       0.8515     YZ      -1.4318     ZZ     -36.5280

 Final energy is   -517.218502200372
 **  OPTIMIZATION CONVERGED  **
 Total job time:  247.34s(wall), 2879.84s(cpu)
        *  Thank you very much for using Q-Chem.  Have a nice day.  *
