 Q-Chem 5.1, Q-Chem, Inc., Pleasanton, CA (2018)
 Q-Chem 5.1.1 for Intel X86 EM64T Linux

User input:
--------------------------------------------------------------

$comment
potential surface scanner
$end

$rem
JOBTYPE  PES_SCAN
UNRESTRICTED TRUE
SYM_IGNORE  TRUE
GEOM_OPT_MAX_CYCLES 400
SCF_MAX_CYCLES 400
METHOD   B3LYP
BASIS   6-31G**
PDB_PRINT 2
SCF_CONVERGENCE 6
THRESH 14
SCF_PRINT 1
$end
$molecule
0 1
S 2.179096 -0.020653 0.176517
C -0.614729 0.479362 0.026087
C 0.455469 -0.613395 0.042227
C -2.033040 -0.101064 -0.004465
H -0.483871 1.125640 0.900867
H -0.448880 1.112355 -0.854896
H 0.344765 -1.241178 0.938634
H 0.359865 -1.274994 -0.823609
H -2.236093 -0.706797 0.885727
H -2.782046 0.696033 -0.041380
H -2.183667 -0.739588 -0.882127
H 2.155728 1.188082 -1.540577
$end
$scan
stre 1 12 2.200000 2.201000 0.100000
$end
--------------------------------------------------------------

    9    -517.2523203443      9.46e-07  Convergence criterion met
 Total energy in the final basis set =     -517.2523203443
   10    -517.2403465593      4.32e-07  Convergence criterion met
 Total energy in the final basis set =     -517.2403465593
   10    -517.2400595140      4.33e-07  Convergence criterion met
 Total energy in the final basis set =     -517.2400595140

             Standard Nuclear Orientation (Angstroms)
    I     Atom           X                Y                Z
 ----------------------------------------------------------------
    1      S       2.1764315444    -0.0377204084     0.1983261278
    2      C      -0.6129296368     0.4751078609     0.0320264670
    3      C       0.4531348641    -0.6215922056     0.0523173561
    4      C      -2.0333292254    -0.0998001541    -0.0066166327
    5      H      -0.4842583707     1.1200221945     0.9080981836
    6      H      -0.4387989080     1.1078337075    -0.8475427524
    7      H       0.3354254459    -1.2499997298     0.9481968005
    8      H       0.3603038611    -1.2822987275    -0.8144711120
    9      H      -2.2442419834    -0.7043818146     0.8825276493
   10      H      -2.7787934107     0.7003659629    -0.0482158458
   11      H      -2.1814047190    -0.7379476806    -0.8849896936
   12      H       2.1610575386     1.2342139948    -1.5966515478
 ----------------------------------------------------------------

   10    -517.2400601198      4.34e-07  Convergence criterion met
 Total energy in the final basis set =     -517.2400601198

                    Orbital Energies (a.u.)
 --------------------------------------------------------------

 Alpha MOs
 -- Occupied --
-88.902 -10.224 -10.194 -10.184  -7.958  -5.925  -5.920  -5.912
 -0.809  -0.734  -0.636  -0.586  -0.478  -0.431  -0.407  -0.406
 -0.356  -0.344  -0.338  -0.297  -0.237

 Beta MOs
 -- Occupied --
-88.902 -10.224 -10.194 -10.184  -7.958  -5.925  -5.920  -5.912
 -0.809  -0.734  -0.636  -0.586  -0.478  -0.431  -0.407  -0.406
 -0.356  -0.344  -0.338  -0.297  -0.237

          Ground-State Mulliken Net Atomic Charges

     Atom                 Charge (a.u.)    Spin (a.u.)
  --------------------------------------------------------
      1 S                    -0.034129       0.000000
      2 C                    -0.161188      -0.000000
      3 C                    -0.334642       0.000000
      4 C                    -0.323569       0.000000
      5 H                     0.116358       0.000000
      6 H                     0.106560       0.000000
      7 H                     0.142179       0.000000
      8 H                     0.143703      -0.000000
      9 H                     0.106638       0.000000
     10 H                     0.111553      -0.000000
     11 H                     0.106941      -0.000000
     12 H                     0.019596      -0.000000
  --------------------------------------------------------
  Sum of atomic charges =    -0.000000

                    Cartesian Multipole Moments
 -----------------------------------------------------------------
    Charge (ESU x 10^10)
                -0.0000
    Dipole Moment (Debye)
         X      -1.8880      Y      -0.3691      Z      -0.2132
       Tot       1.9355
    Quadrupole Moments (Debye-Ang)
        XX     -39.1954     XY       0.2058     YY     -34.2958
        XZ      -0.5439     YZ      -1.6802     ZZ     -33.3907

 Final energy is   -517.240060119843
 **  OPTIMIZATION CONVERGED  **
 Total job time:  19.20s(wall), 154.67s(cpu)
        *  Thank you very much for using Q-Chem.  Have a nice day.  *
