 Q-Chem 5.1, Q-Chem, Inc., Pleasanton, CA (2018)
 Q-Chem 5.1.1 for Intel X86 EM64T Linux

User input:
--------------------------------------------------------------

$comment
potential surface scanner
$end

$rem
JOBTYPE  PES_SCAN
UNRESTRICTED TRUE
SYM_IGNORE  TRUE
GEOM_OPT_MAX_CYCLES 400
SCF_MAX_CYCLES 400
METHOD   B3LYP
BASIS   6-31G**
PDB_PRINT 2
SCF_CONVERGENCE 6
THRESH 14
SCF_PRINT 1
$end
$molecule
0 3
S 1.474410 -0.035095 -1.563760
C -0.911932 -0.036953 -0.055588
C 0.313507 -0.777123 -0.530550
C -1.958912 -0.990306 0.535235
H -1.352014 0.525782 -0.888611
H 1.886536 3.266177 -0.700193
H -0.635550 0.716385 0.701722
H 0.698314 -1.598198 0.075420
H -2.827968 -0.432181 0.897375
H -2.301976 -1.712351 -0.211659
H -1.544455 -1.550970 1.379918
H 1.872640 2.528638 -0.816309
$end
$scan
stre 1 12 2.600000 2.601000 0.100000
$end
--------------------------------------------------------------

   11    -517.2174058687      3.57e-07  Convergence criterion met
 Total energy in the final basis set =     -517.2174058687
   11    -517.2168411297      3.02e-07  Convergence criterion met
 Total energy in the final basis set =     -517.2168411297
   11    -517.2168314934      3.03e-07  Convergence criterion met
 Total energy in the final basis set =     -517.2168314934
   11    -517.2168349017      3.04e-07  Convergence criterion met
 Total energy in the final basis set =     -517.2168349017
   11    -517.2168414851      3.07e-07  Convergence criterion met
 Total energy in the final basis set =     -517.2168414851
   11    -517.2168541863      3.14e-07  Convergence criterion met
 Total energy in the final basis set =     -517.2168541863
   11    -517.2169133982      3.60e-07  Convergence criterion met
 Total energy in the final basis set =     -517.2169133982
   11    -517.2168828489      4.31e-07  Convergence criterion met
   11    -517.2169698578      4.09e-07  Convergence criterion met
 Total energy in the final basis set =     -517.2169698578
   11    -517.2169720443      4.10e-07  Convergence criterion met
 Total energy in the final basis set =     -517.2169720443
   11    -517.2169736400      4.08e-07  Convergence criterion met
 Total energy in the final basis set =     -517.2169736400
   11    -517.2169756655      4.02e-07  Convergence criterion met
 Total energy in the final basis set =     -517.2169756655
   11    -517.2169773652      3.95e-07  Convergence criterion met
 Total energy in the final basis set =     -517.2169773652
   11    -517.2169784412      3.90e-07  Convergence criterion met
 Total energy in the final basis set =     -517.2169784412

             Standard Nuclear Orientation (Angstroms)
    I     Atom           X                Y                Z
 ----------------------------------------------------------------
    1      S       1.5864126419     0.0158484792    -1.3092007193
    2      C      -0.8396366847    -0.0469326097     0.1357761327
    3      C       0.3550176965    -0.7865977805    -0.4122965442
    4      C      -2.0041040614    -0.9956807199     0.4503952214
    5      H      -1.1675093541     0.7130312645    -0.5847086992
    6      H       1.7642332258     3.3310731417    -1.1305377489
    7      H      -0.5630794363     0.5061315681     1.0495378446
    8      H       0.6654720253    -1.7154450459     0.0670667784
    9      H      -2.8566081976    -0.4393491128     0.8529263200
   10      H      -2.3328316332    -1.5260449003    -0.4479239815
   11      H      -1.7112455984    -1.7441298627     1.1946608633
   12      H       1.8164793761     2.5919005783    -1.0426954673
 ----------------------------------------------------------------

   11    -517.2169788786      3.88e-07  Convergence criterion met
 Total energy in the final basis set =     -517.2169788786

                    Orbital Energies (a.u.)
 --------------------------------------------------------------

 Alpha MOs
 -- Occupied --
-88.910 -10.214 -10.203 -10.183  -7.970  -5.940  -5.930  -5.925
 -0.818  -0.752  -0.644  -0.575  -0.462  -0.441  -0.427  -0.422
 -0.372  -0.363  -0.349  -0.309  -0.293  -0.170

 Beta MOs
 -- Occupied --
-88.903 -10.203 -10.202 -10.183  -7.964  -5.927  -5.923  -5.919
 -0.795  -0.731  -0.629  -0.547  -0.452  -0.433  -0.422  -0.406
 -0.363  -0.355  -0.340  -0.271

          Ground-State Mulliken Net Atomic Charges

     Atom                 Charge (a.u.)    Spin (a.u.)
  --------------------------------------------------------
      1 S                     0.089612       1.099278
      2 C                    -0.184256      -0.021526
      3 C                    -0.278422       0.830694
      4 C                    -0.316440       0.013963
      5 H                     0.114043       0.009509
      6 H                    -0.007273       0.020893
      7 H                     0.115965       0.049455
      8 H                     0.135568       0.000889
      9 H                     0.106934       0.002687
     10 H                     0.117936       0.001626
     11 H                     0.107668      -0.001074
     12 H                    -0.001336      -0.006393
  --------------------------------------------------------
  Sum of atomic charges =    -0.000000

                    Cartesian Multipole Moments
 -----------------------------------------------------------------
    Charge (ESU x 10^10)
                -0.0000
    Dipole Moment (Debye)
         X      -0.8653      Y      -0.3324      Z       0.9034
       Tot       1.2944
    Quadrupole Moments (Debye-Ang)
        XX     -34.9877     XY      -1.3453     YY     -33.4731
        XZ       0.4037     YZ      -1.0540     ZZ     -36.6200

 Final energy is   -517.216978878622
 **  OPTIMIZATION CONVERGED  **
 Total job time:  67.36s(wall), 774.93s(cpu)
        *  Thank you very much for using Q-Chem.  Have a nice day.  *
