 Q-Chem 5.1, Q-Chem, Inc., Pleasanton, CA (2018)
 Q-Chem 5.1.1 for Intel X86 EM64T Linux

User input:
--------------------------------------------------------------

$comment
potential surface scanner
$end

$rem
JOBTYPE  PES_SCAN
UNRESTRICTED TRUE
SYM_IGNORE  TRUE
GEOM_OPT_MAX_CYCLES 400
SCF_MAX_CYCLES 400
METHOD   B3LYP
BASIS   6-31G**
PDB_PRINT 2
SCF_CONVERGENCE 6
THRESH 14
SCF_PRINT 1
$end
$molecule
0 3
S 1.897300 0.086782 -1.022045
C -0.700580 0.075343 0.157187
C 0.462260 -0.675938 -0.435380
C -1.911973 -0.836538 0.387419
H -0.983246 0.902364 -0.506963
H 1.072708 2.723304 -1.025664
H -0.411367 0.545984 1.112525
H 0.611555 -1.719035 -0.153563
H -2.745219 -0.271862 0.817137
H -2.251142 -1.284301 -0.551517
H -1.666776 -1.649551 1.079074
H 1.339079 2.007255 -1.035207
$end
$scan
stre 1 12 1.900000 1.901000 0.100000
$end
--------------------------------------------------------------

   11    -517.2094371373      3.18e-07  Convergence criterion met
 Total energy in the final basis set =     -517.2094371373
   11    -517.2067780269      2.96e-07  Convergence criterion met
 Total energy in the final basis set =     -517.2067780269
   11    -517.2067787549      2.99e-07  Convergence criterion met
 Total energy in the final basis set =     -517.2067787549
   11    -517.2067904216      3.02e-07  Convergence criterion met
 Total energy in the final basis set =     -517.2067904216
   11    -517.2067933272      3.04e-07  Convergence criterion met
 Total energy in the final basis set =     -517.2067933272
   11    -517.2067947171      3.06e-07  Convergence criterion met
 Total energy in the final basis set =     -517.2067947171

             Standard Nuclear Orientation (Angstroms)
    I     Atom           X                Y                Z
 ----------------------------------------------------------------
    1      S       1.9060148031     0.1173113249    -1.0232638696
    2      C      -0.6975156385     0.0921483376     0.1589849319
    3      C       0.4689912969    -0.6480208603    -0.4381069775
    4      C      -1.9046150579    -0.8271408571     0.3820162380
    5      H      -0.9842412698     0.9227344505    -0.4989240247
    6      H       1.0290354155     2.6405392818    -1.0080425860
    7      H      -0.4113636636     0.5572211948     1.1181552704
    8      H       0.6233416050    -1.6922464803    -0.1637869412
    9      H      -2.7409179429    -0.2699321032     0.8155276910
   10      H      -2.2411166635    -1.2695458591    -0.5604410786
   11      H      -1.6558852122    -1.6442222285     1.0675871514
   12      H       1.3208713278     1.9249607991    -1.0267028052
 ----------------------------------------------------------------

   11    -517.2067950971      3.07e-07  Convergence criterion met
 Total energy in the final basis set =     -517.2067950971

                    Orbital Energies (a.u.)
 --------------------------------------------------------------

 Alpha MOs
 -- Occupied --
-88.902 -10.213 -10.201 -10.182  -7.963  -5.933  -5.923  -5.919
 -0.815  -0.751  -0.643  -0.579  -0.474  -0.456  -0.428  -0.422
 -0.368  -0.362  -0.346  -0.306  -0.273  -0.169

 Beta MOs
 -- Occupied --
-88.896 -10.201 -10.200 -10.182  -7.957  -5.920  -5.916  -5.912
 -0.794  -0.731  -0.630  -0.553  -0.452  -0.448  -0.416  -0.408
 -0.359  -0.354  -0.335  -0.269

          Ground-State Mulliken Net Atomic Charges

     Atom                 Charge (a.u.)    Spin (a.u.)
  --------------------------------------------------------
      1 S                     0.088620       0.981776
      2 C                    -0.179735      -0.028881
      3 C                    -0.273839       0.846369
      4 C                    -0.321085       0.005514
      5 H                     0.112640       0.016992
      6 H                     0.050358       0.180250
      7 H                     0.113431       0.050690
      8 H                     0.134374      -0.000293
      9 H                     0.106494       0.000318
     10 H                     0.116543       0.001517
     11 H                     0.108098      -0.000487
     12 H                    -0.055898      -0.053766
  --------------------------------------------------------
  Sum of atomic charges =    -0.000000

                    Cartesian Multipole Moments
 -----------------------------------------------------------------
    Charge (ESU x 10^10)
                -0.0000
    Dipole Moment (Debye)
         X      -1.0346      Y       0.0543      Z       0.7181
       Tot       1.2606
    Quadrupole Moments (Debye-Ang)
        XX     -36.1047     XY      -0.5249     YY     -32.0503
        XZ       0.3670     YZ      -0.8272     ZZ     -36.7682

 Final energy is   -517.206795097099
 **  OPTIMIZATION CONVERGED  **
 Total job time:  24.15s(wall), 278.61s(cpu)
        *  Thank you very much for using Q-Chem.  Have a nice day.  *
