 Q-Chem 5.1, Q-Chem, Inc., Pleasanton, CA (2018)
 Q-Chem 5.1.1 for Intel X86 EM64T Linux

User input:
--------------------------------------------------------------

$comment
potential surface scanner
$end

$rem
JOBTYPE  PES_SCAN
UNRESTRICTED TRUE
SYM_IGNORE  TRUE
GEOM_OPT_MAX_CYCLES 400
SCF_MAX_CYCLES 400
METHOD   B3LYP
BASIS   6-31G**
PDB_PRINT 2
SCF_CONVERGENCE 6
THRESH 14
SCF_PRINT 1
$end
$molecule
0 1
S 2.188651 0.112119 0.028349
C -0.628675 0.511845 -0.010844
C 0.470316 -0.552638 -0.025228
C -2.029743 -0.110699 0.009711
H -0.488308 1.160811 0.860672
H -0.520742 1.152592 -0.895181
H 0.403448 -1.183620 0.867294
H 0.367924 -1.211531 -0.892753
H -2.174423 -0.732160 0.900511
H -2.804353 0.662437 0.014294
H -2.197549 -0.745160 -0.867787
H 2.126054 0.839805 -1.166036
$end
$scan
stre 1 12 1.500000 1.501000 0.100000
$end
--------------------------------------------------------------

    9    -517.3394187985      3.68e-07  Convergence criterion met
 Total energy in the final basis set =     -517.3394187985
    9    -517.3324762226      3.70e-07  Convergence criterion met
 Total energy in the final basis set =     -517.3324762226
    9    -517.3322759743      3.71e-07  Convergence criterion met
 Total energy in the final basis set =     -517.3322759743

             Standard Nuclear Orientation (Angstroms)
    I     Atom           X                Y                Z
 ----------------------------------------------------------------
    1      S       2.1883988895     0.0967914172     0.0516112698
    2      C      -0.6270718955     0.5075475502    -0.0042065105
    3      C       0.4684526821    -0.5602519075    -0.0144052830
    4      C      -2.0306975868    -0.1094292096     0.0072041926
    5      H      -0.4892544185     1.1552306995     0.8686637912
    6      H      -0.5102705540     1.1482842777    -0.8873207896
    7      H       0.3960164964    -1.1923139660     0.8776027852
    8      H       0.3687918456    -1.2177630862    -0.8831169383
    9      H      -2.1838875642    -0.7308004271     0.8966301986
   10      H      -2.8020201955     0.6670054735     0.0072219446
   11      H      -2.1955227615    -0.7425708018    -0.8718243202
   12      H       2.1296650623     0.8820709800    -1.2250583404
 ----------------------------------------------------------------

    9    -517.3322765120      3.71e-07  Convergence criterion met
 Total energy in the final basis set =     -517.3322765120

                    Orbital Energies (a.u.)
 --------------------------------------------------------------

 Alpha MOs
 -- Occupied --
-88.880 -10.219 -10.192 -10.183  -7.939  -5.905  -5.901  -5.894
 -0.807  -0.735  -0.643  -0.590  -0.477  -0.434  -0.410  -0.403
 -0.368  -0.351  -0.341  -0.317  -0.234

 Beta MOs
 -- Occupied --
-88.880 -10.219 -10.192 -10.183  -7.939  -5.905  -5.901  -5.894
 -0.807  -0.735  -0.643  -0.590  -0.477  -0.434  -0.410  -0.403
 -0.368  -0.351  -0.341  -0.317  -0.234

          Ground-State Mulliken Net Atomic Charges

     Atom                 Charge (a.u.)    Spin (a.u.)
  --------------------------------------------------------
      1 S                    -0.052080       0.000000
      2 C                    -0.163668       0.000000
      3 C                    -0.328270       0.000000
      4 C                    -0.322633      -0.000000
      5 H                     0.116280      -0.000000
      6 H                     0.099655       0.000000
      7 H                     0.137668       0.000000
      8 H                     0.136360      -0.000000
      9 H                     0.107204       0.000000
     10 H                     0.110071      -0.000000
     11 H                     0.105855       0.000000
     12 H                     0.053558       0.000000
  --------------------------------------------------------
  Sum of atomic charges =     0.000000

                    Cartesian Multipole Moments
 -----------------------------------------------------------------
    Charge (ESU x 10^10)
                -0.0000
    Dipole Moment (Debye)
         X      -1.7348      Y      -0.0836      Z      -0.6659
       Tot       1.8601
    Quadrupole Moments (Debye-Ang)
        XX     -38.7985     XY       0.7544     YY     -34.1756
        XZ      -1.5963     YZ      -1.6473     ZZ     -32.9533

 Final energy is   -517.332276512027
 **  OPTIMIZATION CONVERGED  **
 Total job time:  12.91s(wall), 144.76s(cpu)
        *  Thank you very much for using Q-Chem.  Have a nice day.  *
