 Q-Chem 5.1, Q-Chem, Inc., Pleasanton, CA (2018)
 Q-Chem 5.1.1 for Intel X86 EM64T Linux

User input:
--------------------------------------------------------------

$comment
potential surface scanner
$end

$rem
JOBTYPE  PES_SCAN
UNRESTRICTED TRUE
SYM_IGNORE  TRUE
GEOM_OPT_MAX_CYCLES 400
SCF_MAX_CYCLES 400
METHOD   B3LYP
BASIS   6-31G**
PDB_PRINT 2
SCF_CONVERGENCE 6
THRESH 14
SCF_PRINT 1
$end
$molecule
0 1
S 2.126400 0.172600 -0.001000
C -0.602600 0.507000 0.001200
C 0.472000 -0.574500 0.001000
C -1.995800 -0.105100 -0.001200
H -0.500600 1.146800 0.886100
H -0.499900 1.148900 -0.882200
H 0.380400 -1.208800 0.888400
H 0.378500 -1.212800 -0.883500
H -2.152000 -0.728200 0.885200
H -2.755700 0.682700 -0.000800
H -2.150200 -0.725500 -0.889800
H 2.012100 0.800700 -1.180400
$end
$scan
stre 1 12 1.200000 1.201000 0.100000
$end
--------------------------------------------------------------

    9    -517.3385956811      3.60e-07  Convergence criterion met
 Total energy in the final basis set =     -517.3385956811
    9    -517.3276838068      4.23e-07  Convergence criterion met
 Total energy in the final basis set =     -517.3276838068
    9    -517.3266965730      4.21e-07  Convergence criterion met
 Total energy in the final basis set =     -517.3266965730
    9    -517.3267107351      4.22e-07  Convergence criterion met
 Total energy in the final basis set =     -517.3267107351

             Standard Nuclear Orientation (Angstroms)
    I     Atom           X                Y                Z
 ----------------------------------------------------------------
    1      S       2.1863618440     0.1543350308    -0.0204372060
    2      C      -0.6336519436     0.5224144464    -0.0161257748
    3      C       0.4747469542    -0.5326856883    -0.0403163774
    4      C      -2.0284737332    -0.1138864993     0.0107597507
    5      H      -0.4940165090     1.1683851584     0.8577285690
    6      H      -0.5384480118     1.1684695290    -0.8979784513
    7      H       0.4234765495    -1.1632914624     0.8523328854
    8      H       0.3688358240    -1.1934353180    -0.9063296236
    9      H      -2.1595236096    -0.7436043344     0.8978391454
   10      H      -2.8106558483     0.6514245504     0.0277849381
   11      H      -2.1971548684    -0.7431381655    -0.8702900309
   12      H       2.1211033521     0.7288127527    -1.0719678246
 ----------------------------------------------------------------

    9    -517.3267114012      4.22e-07  Convergence criterion met
 Total energy in the final basis set =     -517.3267114012

                    Orbital Energies (a.u.)
 --------------------------------------------------------------

 Alpha MOs
 -- Occupied --
-88.860 -10.218 -10.192 -10.183  -7.927  -5.892  -5.888  -5.881
 -0.811  -0.747  -0.659  -0.594  -0.478  -0.443  -0.414  -0.402
 -0.377  -0.352  -0.341  -0.317  -0.235

 Beta MOs
 -- Occupied --
-88.860 -10.218 -10.192 -10.183  -7.927  -5.892  -5.888  -5.881
 -0.811  -0.747  -0.659  -0.594  -0.478  -0.443  -0.414  -0.402
 -0.377  -0.352  -0.341  -0.317  -0.235

          Ground-State Mulliken Net Atomic Charges

     Atom                 Charge (a.u.)    Spin (a.u.)
  --------------------------------------------------------
      1 S                    -0.050104       0.000000
      2 C                    -0.165721      -0.000000
      3 C                    -0.329365      -0.000000
      4 C                    -0.322754      -0.000000
      5 H                     0.116590       0.000000
      6 H                     0.098646       0.000000
      7 H                     0.138534       0.000000
      8 H                     0.133679       0.000000
      9 H                     0.107497      -0.000000
     10 H                     0.109931      -0.000000
     11 H                     0.105645       0.000000
     12 H                     0.057422       0.000000
  --------------------------------------------------------
  Sum of atomic charges =    -0.000000

                    Cartesian Multipole Moments
 -----------------------------------------------------------------
    Charge (ESU x 10^10)
                 0.0000
    Dipole Moment (Debye)
         X      -1.7303      Y      -0.0489      Z      -0.8105
       Tot       1.9113
    Quadrupole Moments (Debye-Ang)
        XX     -38.6358     XY       0.7912     YY     -34.0423
        XZ      -1.9696     YZ      -1.5576     ZZ     -32.6126

 Final energy is   -517.326711401158
 **  OPTIMIZATION CONVERGED  **
 Total job time:  15.65s(wall), 177.66s(cpu)
        *  Thank you very much for using Q-Chem.  Have a nice day.  *
