 Q-Chem 5.1, Q-Chem, Inc., Pleasanton, CA (2018)
 Q-Chem 5.1.1 for Intel X86 EM64T Linux

User input:
--------------------------------------------------------------

$comment
potential surface scanner
$end

$rem
JOBTYPE  PES_SCAN
UNRESTRICTED TRUE
SYM_IGNORE  TRUE
GEOM_OPT_MAX_CYCLES 400
SCF_MAX_CYCLES 400
METHOD   B3LYP
BASIS   6-31G**
PDB_PRINT 2
SCF_CONVERGENCE 6
THRESH 14
SCF_PRINT 1
$end
$molecule
0 1
S 2.187113 0.058939 0.094192
C -0.623665 0.499029 0.007342
C 0.463992 -0.576380 0.004957
C -2.031948 -0.107093 0.002733
H -0.489424 1.144553 0.882331
H -0.490834 1.139392 -0.873740
H 0.380334 -1.207229 0.898415
H 0.366286 -1.234652 -0.863180
H -2.201365 -0.726233 0.890766
H -2.796877 0.675563 -0.007547
H -2.191081 -0.739623 -0.877784
H 2.140068 0.977536 -1.335481
$end
$scan
stre 1 12 1.800000 1.801000 0.100000
$end
--------------------------------------------------------------

    9    -517.3075617640      5.54e-07  Convergence criterion met
 Total energy in the final basis set =     -517.3075617640
    9    -517.2937730379      5.09e-07  Convergence criterion met
 Total energy in the final basis set =     -517.2937730379
    9    -517.2933801032      4.77e-07  Convergence criterion met
 Total energy in the final basis set =     -517.2933801032

             Standard Nuclear Orientation (Angstroms)
    I     Atom           X                Y                Z
 ----------------------------------------------------------------
    1      S       2.1851598273     0.0432881169     0.1174725343
    2      C      -0.6226789745     0.4953260579     0.0139389385
    3      C       0.4618669168    -0.5830658079     0.0150550943
    4      C      -2.0328371837    -0.1062400068     0.0005331594
    5      H      -0.4908920004     1.1391518301     0.8905305098
    6      H      -0.4820107829     1.1361164820    -0.8655560433
    7      H       0.3721735774    -1.2148707660     0.9081311767
    8      H       0.3666809872    -1.2407380567    -0.8537437922
    9      H      -2.2098928246    -0.7258284260     0.8867590287
   10      H      -2.7949463340     0.6790975063    -0.0134285853
   11      H      -2.1889010786    -0.7370736966    -0.8817536467
   12      H       2.1488768700     1.0186387667    -1.3949343742
 ----------------------------------------------------------------

    9    -517.2933804164      4.75e-07  Convergence criterion met
 Total energy in the final basis set =     -517.2933804164

                    Orbital Energies (a.u.)
 --------------------------------------------------------------

 Alpha MOs
 -- Occupied --
-88.892 -10.221 -10.193 -10.183  -7.950  -5.916  -5.912  -5.903
 -0.807  -0.732  -0.637  -0.587  -0.477  -0.431  -0.407  -0.404
 -0.358  -0.347  -0.340  -0.314  -0.235

 Beta MOs
 -- Occupied --
-88.892 -10.221 -10.193 -10.183  -7.950  -5.916  -5.912  -5.903
 -0.807  -0.732  -0.637  -0.587  -0.477  -0.431  -0.407  -0.404
 -0.358  -0.347  -0.340  -0.314  -0.235

          Ground-State Mulliken Net Atomic Charges

     Atom                 Charge (a.u.)    Spin (a.u.)
  --------------------------------------------------------
      1 S                    -0.048226      -0.000000
      2 C                    -0.161513      -0.000000
      3 C                    -0.329445      -0.000000
      4 C                    -0.322964       0.000000
      5 H                     0.115909       0.000000
      6 H                     0.102332       0.000000
      7 H                     0.138598       0.000000
      8 H                     0.139770       0.000000
      9 H                     0.106825       0.000000
     10 H                     0.110569      -0.000000
     11 H                     0.106250      -0.000000
     12 H                     0.041896       0.000000
  --------------------------------------------------------
  Sum of atomic charges =     0.000000

                    Cartesian Multipole Moments
 -----------------------------------------------------------------
    Charge (ESU x 10^10)
                 0.0000
    Dipole Moment (Debye)
         X      -1.7795      Y      -0.2015      Z      -0.4687
       Tot       1.8512
    Quadrupole Moments (Debye-Ang)
        XX     -38.9704     XY       0.5242     YY     -34.3130
        XZ      -1.1276     YZ      -1.6719     ZZ     -33.1478

 Final energy is   -517.293380416385
 **  OPTIMIZATION CONVERGED  **
 Total job time:  12.67s(wall), 142.99s(cpu)
        *  Thank you very much for using Q-Chem.  Have a nice day.  *
