 Q-Chem 5.1, Q-Chem, Inc., Pleasanton, CA (2018)
 Q-Chem 5.1.1 for Intel X86 EM64T Linux

User input:
--------------------------------------------------------------

$comment
potential surface scanner
$end

$rem
JOBTYPE  PES_SCAN
UNRESTRICTED TRUE
SYM_IGNORE  TRUE
GEOM_OPT_MAX_CYCLES 400
SCF_MAX_CYCLES 400
METHOD   B3LYP
BASIS   6-31G**
PDB_PRINT 2
SCF_CONVERGENCE 6
THRESH 14
SCF_PRINT 1
$end
$molecule
0 1
S 2.185160 0.043288 0.117473
C -0.622679 0.495326 0.013939
C 0.461867 -0.583066 0.015055
C -2.032837 -0.106240 0.000533
H -0.490892 1.139152 0.890531
H -0.482011 1.136116 -0.865556
H 0.372174 -1.214871 0.908131
H 0.366681 -1.240738 -0.853744
H -2.209893 -0.725828 0.886759
H -2.794946 0.679098 -0.013429
H -2.188901 -0.737074 -0.881754
H 2.148877 1.018639 -1.394934
$end
$scan
stre 1 12 1.900000 1.901000 0.100000
$end
--------------------------------------------------------------

    9    -517.2933803781      4.75e-07  Convergence criterion met
 Total energy in the final basis set =     -517.2933803781
    9    -517.2795250233      6.16e-07  Convergence criterion met
 Total energy in the final basis set =     -517.2795250233
    9    -517.2791422948      6.18e-07  Convergence criterion met
 Total energy in the final basis set =     -517.2791422948

             Standard Nuclear Orientation (Angstroms)
    I     Atom           X                Y                Z
 ----------------------------------------------------------------
    1      S       2.1823249212     0.0266836995     0.1401465320
    2      C      -0.6220956141     0.4915575255     0.0198623587
    3      C       0.4593089914    -0.5898613818     0.0243632798
    4      C      -2.0339808290    -0.1055725341    -0.0011475700
    5      H      -0.4923276816     1.1341577783     0.8976192179
    6      H      -0.4738223722     1.1322572961    -0.8584185876
    7      H       0.3637933289    -1.2222514214     0.9173755089
    8      H       0.3660024000    -1.2474785417    -0.8446360073
    9      H      -2.2179184159    -0.7248696514     0.8838846909
   10      H      -2.7933876439     0.6822916345    -0.0188487376
   11      H      -2.1874745543    -0.7354623606    -0.8845502359
   12      H       2.1621774694     1.0623499571    -1.4526464498
 ----------------------------------------------------------------

    9    -517.2791429531      6.19e-07  Convergence criterion met
 Total energy in the final basis set =     -517.2791429531

                    Orbital Energies (a.u.)
 --------------------------------------------------------------

 Alpha MOs
 -- Occupied --
-88.895 -10.222 -10.193 -10.183  -7.952  -5.918  -5.914  -5.906
 -0.807  -0.732  -0.636  -0.586  -0.477  -0.431  -0.407  -0.404
 -0.357  -0.345  -0.340  -0.311  -0.235

 Beta MOs
 -- Occupied --
-88.895 -10.222 -10.193 -10.183  -7.952  -5.918  -5.914  -5.906
 -0.807  -0.732  -0.636  -0.586  -0.477  -0.431  -0.407  -0.404
 -0.357  -0.345  -0.340  -0.311  -0.235

          Ground-State Mulliken Net Atomic Charges

     Atom                 Charge (a.u.)    Spin (a.u.)
  --------------------------------------------------------
      1 S                    -0.045481      -0.000000
      2 C                    -0.161125       0.000000
      3 C                    -0.330551       0.000000
      4 C                    -0.323091      -0.000000
      5 H                     0.115858      -0.000000
      6 H                     0.103478       0.000000
      7 H                     0.139308       0.000000
      8 H                     0.140961       0.000000
      9 H                     0.106698       0.000000
     10 H                     0.110783      -0.000000
     11 H                     0.106399       0.000000
     12 H                     0.036761       0.000000
  --------------------------------------------------------
  Sum of atomic charges =     0.000000

                    Cartesian Multipole Moments
 -----------------------------------------------------------------
    Charge (ESU x 10^10)
                 0.0000
    Dipole Moment (Debye)
         X      -1.8007      Y      -0.2477      Z      -0.4048
       Tot       1.8621
    Quadrupole Moments (Debye-Ang)
        XX     -39.0221     XY       0.4399     YY     -34.3475
        XZ      -0.9862     YZ      -1.6685     ZZ     -33.1906

 Final energy is   -517.279142953099
 **  OPTIMIZATION CONVERGED  **
 Total job time:  12.91s(wall), 143.01s(cpu)
        *  Thank you very much for using Q-Chem.  Have a nice day.  *
