 Q-Chem 5.1, Q-Chem, Inc., Pleasanton, CA (2018)
 Q-Chem 5.1.1 for Intel X86 EM64T Linux

User input:
--------------------------------------------------------------

$comment
potential surface scanner
$end

$rem
JOBTYPE  PES_SCAN
UNRESTRICTED TRUE
SYM_IGNORE  TRUE
GEOM_OPT_MAX_CYCLES 400
SCF_MAX_CYCLES 400
METHOD   B3LYP
BASIS   6-31G**
PDB_PRINT 2
SCF_CONVERGENCE 6
THRESH 14
SCF_PRINT 1
$end
$molecule
0 1
S 2.174411 -0.237782 0.341880
C -0.560154 0.426055 0.057892
C 0.445579 -0.727091 0.140305
C -2.006176 -0.070267 -0.040061
H -0.435045 1.080530 0.927007
H -0.301415 1.028833 -0.824017
H 0.247379 -1.317919 1.052476
H 0.340288 -1.408788 -0.709107
H -2.306788 -0.617939 0.859885
H -2.697429 0.769282 -0.163099
H -2.140320 -0.738743 -0.897748
H 1.952271 1.717629 -1.922412
$end
$scan
stre 1 12 3.100000 3.101000 0.100000
$end
--------------------------------------------------------------

   13    -517.1714745756      8.19e-07  Convergence criterion met
 Total energy in the final basis set =     -517.1714745756
   13    -517.1661040760      8.46e-07  Convergence criterion met
 Total energy in the final basis set =     -517.1661040760
   13    -517.1660145737      8.98e-07  Convergence criterion met
 Total energy in the final basis set =     -517.1660145737
   14    -517.1660370003      6.19e-07  Convergence criterion met
 Total energy in the final basis set =     -517.1660370003
   14    -517.1660384191      6.24e-07  Convergence criterion met
 Total energy in the final basis set =     -517.1660384191
   14    -517.1660428734      6.40e-07  Convergence criterion met
 Total energy in the final basis set =     -517.1660428734
   14    -517.1660442766      6.42e-07  Convergence criterion met
 Total energy in the final basis set =     -517.1660442766
   14    -517.1660467234      6.41e-07  Convergence criterion met
    9    -517.2847407422      8.49e-07  Convergence criterion met
 Total energy in the final basis set =     -517.2847407422
    9    -517.2847428997      8.50e-07  Convergence criterion met
 Total energy in the final basis set =     -517.2847428997
    9    -517.2847454607      8.50e-07  Convergence criterion met
 Total energy in the final basis set =     -517.2847454607
    9    -517.2847484617      8.50e-07  Convergence criterion met
 Total energy in the final basis set =     -517.2847484617
    9    -517.2847509063      8.51e-07  Convergence criterion met
 Total energy in the final basis set =     -517.2847509063
    9    -517.2847521644      8.51e-07  Convergence criterion met
 Total energy in the final basis set =     -517.2847521644

             Standard Nuclear Orientation (Angstroms)
    I     Atom           X                Y                Z
 ----------------------------------------------------------------
    1      S       1.6212591040    -0.1246984796     0.4522837930
    2      C      -1.1201181565    -0.0128793190     0.5270327210
    3      C      -0.0399693504    -0.6876196903     0.1253395869
    4      C      -2.5279185224    -0.3779507358     0.1552059783
    5      H      -0.9903061854     0.8673552011     1.1550241584
    6      H       2.2276843288     2.5656658782    -2.2032318262
    7      H       2.1728079945    -1.3329645736     0.6851383148
    8      H      -0.1284419343    -1.5697063808    -0.5043637445
    9      H      -3.1447897010    -0.5283663156     1.0497183307
   10      H      -3.0035583865     0.4229456641    -0.4248913395
   11      H      -2.5633156731    -1.2929374021    -0.4429747312
   12      H       2.2092674823     1.9749561533    -1.7512802418
 ----------------------------------------------------------------

    9    -517.2847527086      8.51e-07  Convergence criterion met
 Total energy in the final basis set =     -517.2847527086

                    Orbital Energies (a.u.)
 --------------------------------------------------------------

 Alpha MOs
 -- Occupied --
-88.884 -10.215 -10.198 -10.190  -7.946  -5.911  -5.907  -5.901
 -0.813  -0.747  -0.662  -0.556  -0.465  -0.442  -0.419  -0.417
 -0.389  -0.371  -0.337  -0.292  -0.224

 Beta MOs
 -- Occupied --
-88.884 -10.215 -10.198 -10.190  -7.946  -5.911  -5.907  -5.901
 -0.813  -0.747  -0.662  -0.556  -0.465  -0.442  -0.419  -0.417
 -0.389  -0.371  -0.337  -0.292  -0.224

          Ground-State Mulliken Net Atomic Charges

     Atom                 Charge (a.u.)    Spin (a.u.)
  --------------------------------------------------------
      1 S                    -0.004657      -0.000000
      2 C                    -0.030015       0.000000
      3 C                    -0.245955      -0.000000
      4 C                    -0.351379       0.000000
      5 H                     0.102393      -0.000000
      6 H                    -0.024755       0.000000
      7 H                     0.059166      -0.000000
      8 H                     0.118933      -0.000000
      9 H                     0.121130      -0.000000
     10 H                     0.123515      -0.000000
     11 H                     0.111700      -0.000000
     12 H                     0.019924      -0.000000
  --------------------------------------------------------
  Sum of atomic charges =     0.000000

                    Cartesian Multipole Moments
 -----------------------------------------------------------------
    Charge (ESU x 10^10)
                 0.0000
    Dipole Moment (Debye)
         X      -1.1997      Y      -1.1510      Z       0.0430
       Tot       1.6631
    Quadrupole Moments (Debye-Ang)
        XX     -32.4726     XY      -2.6923     YY     -32.4148
        XZ       0.4644     YZ       0.4630     ZZ     -36.2917

 Final energy is   -517.284752708630
 **  OPTIMIZATION CONVERGED  **
 Total job time:  345.35s(wall), 3978.40s(cpu)
        *  Thank you very much for using Q-Chem.  Have a nice day.  *
