 Q-Chem 5.1, Q-Chem, Inc., Pleasanton, CA (2018)
 Q-Chem 5.1.1 for Intel X86 EM64T Linux

User input:
--------------------------------------------------------------

$comment
potential surface scanner
$end

$rem
JOBTYPE  PES_SCAN
UNRESTRICTED TRUE
SYM_IGNORE  TRUE
GEOM_OPT_MAX_CYCLES 400
SCF_MAX_CYCLES 400
METHOD   B3LYP
BASIS   6-31G**
PDB_PRINT 2
SCF_CONVERGENCE 6
THRESH 14
SCF_PRINT 1
$end
$molecule
0 1
S 2.167630 -0.164653 0.319242
C -0.588069 0.444522 0.059348
C 0.443980 -0.684975 0.113483
C -2.023329 -0.086276 -0.023173
H -0.466170 1.089753 0.935887
H -0.363078 1.066215 -0.817007
H 0.268800 -1.304339 1.010308
H 0.353991 -1.350463 -0.750568
H -2.289978 -0.666543 0.867125
H -2.739010 0.737286 -0.108392
H -2.158382 -0.734752 -0.896001
H 2.106216 1.558027 -1.887249
$end
$scan
stre 1 12 2.900000 2.901000 0.100000
$end
--------------------------------------------------------------

   12    -517.1841271041      1.91e-07  Convergence criterion met
 Total energy in the final basis set =     -517.1841271041
   12    -517.1775369225      2.78e-07  Convergence criterion met
 Total energy in the final basis set =     -517.1775369225
   12    -517.1774271231      2.91e-07  Convergence criterion met
 Total energy in the final basis set =     -517.1774271231
   12    -517.1774509321      3.13e-07  Convergence criterion met
 Total energy in the final basis set =     -517.1774509321
   12    -517.1774534881      3.18e-07  Convergence criterion met
 Total energy in the final basis set =     -517.1774534881
   12    -517.1774618606      3.47e-07  Convergence criterion met
 Total energy in the final basis set =     -517.1774618606
   12    -517.1774631710      3.49e-07  Convergence criterion met
 Total energy in the final basis set =     -517.1774631710
   12    -517.1774656570      3.46e-07  Convergence criterion met
   12    -517.1774865995      2.49e-07  Convergence criterion met
 Total energy in the final basis set =     -517.1774865995
   12    -517.1774882373      2.47e-07  Convergence criterion met
 Total energy in the final basis set =     -517.1774882373
   12    -517.1774898724      2.45e-07  Convergence criterion met
 Total energy in the final basis set =     -517.1774898724
   12    -517.1774915533      2.45e-07  Convergence criterion met
 Total energy in the final basis set =     -517.1774915533
   12    -517.1774930272      2.44e-07  Convergence criterion met
 Total energy in the final basis set =     -517.1774930272
   12    -517.1774941030      2.44e-07  Convergence criterion met
 Total energy in the final basis set =     -517.1774941030

             Standard Nuclear Orientation (Angstroms)
    I     Atom           X                Y                Z
 ----------------------------------------------------------------
    1      S       2.1760041717    -0.2165466750     0.3169658713
    2      C      -0.5659027059     0.4297587714     0.0534483707
    3      C       0.4469525605    -0.7179965852     0.1313865353
    4      C      -2.0097606172    -0.0723095953    -0.0374030991
    5      H      -0.4381026362     1.0851280789     0.9216074890
    6      H      -0.3122340041     1.0329195932    -0.8292424744
    7      H       0.2612951426    -1.3098563573     1.0446564345
    8      H       0.3390371853    -1.4005076876    -0.7173558942
    9      H      -2.3038602453    -0.6204918922     0.8644709477
   10      H      -2.7052296997     0.7641957854    -0.1573778387
   11      H      -2.1454878802    -0.7421815499    -0.8937551678
   12      H       1.9698897284     1.6716901136    -1.8743981744
 ----------------------------------------------------------------

   12    -517.1774948220      2.45e-07  Convergence criterion met
 Total energy in the final basis set =     -517.1774948220

                    Orbital Energies (a.u.)
 --------------------------------------------------------------

 Alpha MOs
 -- Occupied --
-88.905 -10.229 -10.198 -10.186  -7.962  -5.928  -5.924  -5.915
 -0.814  -0.738  -0.638  -0.588  -0.480  -0.433  -0.411  -0.409
 -0.358  -0.345  -0.341  -0.265  -0.239

 Beta MOs
 -- Occupied --
-88.905 -10.229 -10.198 -10.186  -7.962  -5.928  -5.924  -5.915
 -0.814  -0.738  -0.638  -0.588  -0.480  -0.433  -0.411  -0.409
 -0.358  -0.345  -0.341  -0.265  -0.239

          Ground-State Mulliken Net Atomic Charges

     Atom                 Charge (a.u.)    Spin (a.u.)
  --------------------------------------------------------
      1 S                    -0.016534      -0.000000
      2 C                    -0.163172      -0.000000
      3 C                    -0.342648      -0.000000
      4 C                    -0.324935      -0.000000
      5 H                     0.118864       0.000000
      6 H                     0.111018      -0.000000
      7 H                     0.151205      -0.000000
      8 H                     0.146382      -0.000000
      9 H                     0.107544       0.000000
     10 H                     0.113858      -0.000000
     11 H                     0.108430      -0.000000
     12 H                    -0.010011       0.000000
  --------------------------------------------------------
  Sum of atomic charges =    -0.000000

                    Cartesian Multipole Moments
 -----------------------------------------------------------------
    Charge (ESU x 10^10)
                -0.0000
    Dipole Moment (Debye)
         X      -2.0969      Y      -0.5841      Z       0.1108
       Tot       2.1796
    Quadrupole Moments (Debye-Ang)
        XX     -39.3976     XY      -0.1528     YY     -34.1547
        XZ       0.0631     YZ      -1.5025     ZZ     -33.9782

 Final energy is   -517.177494822037
 **  OPTIMIZATION CONVERGED  **
 Total job time:  76.33s(wall), 885.15s(cpu)
        *  Thank you very much for using Q-Chem.  Have a nice day.  *
