 Q-Chem 5.1, Q-Chem, Inc., Pleasanton, CA (2018)
 Q-Chem 5.1.1 for Intel X86 EM64T Linux

User input:
--------------------------------------------------------------

$comment
potential surface scanner
$end

$rem
JOBTYPE  PES_SCAN
UNRESTRICTED TRUE
SYM_IGNORE  TRUE
GEOM_OPT_MAX_CYCLES 400
SCF_MAX_CYCLES 400
METHOD   B3LYP
BASIS   6-31G**
PDB_PRINT 2
SCF_CONVERGENCE 6
THRESH 14
SCF_PRINT 1
$end
$molecule
0 3
S 1.910616 0.185663 -1.021447
C -0.703008 0.120507 0.161196
C 0.472271 -0.594737 -0.444415
C -1.895381 -0.819399 0.377613
H -1.004716 0.953465 -0.487541
H 0.990838 2.515947 -0.983736
H -0.422770 0.580487 1.124871
H 0.638251 -1.641324 -0.189432
H -2.739663 -0.281149 0.819414
H -2.227071 -1.257208 -0.568738
H -1.631363 -1.639907 1.053361
H 1.324594 1.781459 -1.018146
$end
$scan
stre 1 12 1.600000 1.601000 0.100000
$end
--------------------------------------------------------------

   11    -517.1994119629      3.41e-07  Convergence criterion met
 Total energy in the final basis set =     -517.1994119629
   11    -517.1941909290      3.47e-07  Convergence criterion met
 Total energy in the final basis set =     -517.1941909290
   11    -517.1943664713      3.56e-07  Convergence criterion met
 Total energy in the final basis set =     -517.1943664713
   11    -517.1944648420      3.65e-07  Convergence criterion met
 Total energy in the final basis set =     -517.1944648420
   11    -517.1944672055      3.66e-07  Convergence criterion met
 Total energy in the final basis set =     -517.1944672055

             Standard Nuclear Orientation (Angstroms)
    I     Atom           X                Y                Z
 ----------------------------------------------------------------
    1      S       1.9101031012     0.2199293028    -1.0194354711
    2      C      -0.7061959660     0.1314835221     0.1624036232
    3      C       0.4728392955    -0.5726471115    -0.4458556784
    4      C      -1.8922513439    -0.8170334054     0.3765124646
    5      H      -1.0144356524     0.9650060751    -0.4830225096
    6      H       0.9751317371     2.4726376103    -0.9748727676
    7      H      -0.4291024148     0.5903505785     1.1276983181
    8      H       0.6446758486    -1.6205282588    -0.2031188212
    9      H      -2.7398262370    -0.2865934974     0.8213679042
   10      H      -2.2219084902    -1.2535357735    -0.5711694602
   11      H      -1.6216511029    -1.6383449054     1.0486800167
   12      H       1.3352192249     1.7130798634    -1.0161876186
 ----------------------------------------------------------------

   11    -517.1944680194      3.67e-07  Convergence criterion met
 Total energy in the final basis set =     -517.1944680194

                    Orbital Energies (a.u.)
 --------------------------------------------------------------

 Alpha MOs
 -- Occupied --
-88.897 -10.212 -10.200 -10.182  -7.959  -5.928  -5.919  -5.914
 -0.816  -0.753  -0.646  -0.587  -0.488  -0.456  -0.425  -0.419
 -0.367  -0.361  -0.344  -0.304  -0.257  -0.169

 Beta MOs
 -- Occupied --
-88.892 -10.200 -10.200 -10.182  -7.954  -5.917  -5.913  -5.909
 -0.795  -0.737  -0.633  -0.563  -0.459  -0.448  -0.410  -0.408
 -0.359  -0.354  -0.333  -0.269

          Ground-State Mulliken Net Atomic Charges

     Atom                 Charge (a.u.)    Spin (a.u.)
  --------------------------------------------------------
      1 S                     0.107153       0.809683
      2 C                    -0.180794      -0.035504
      3 C                    -0.270927       0.862431
      4 C                    -0.321208       0.003554
      5 H                     0.109291       0.017390
      6 H                     0.056639       0.393554
      7 H                     0.112548       0.051708
      8 H                     0.132952      -0.009685
      9 H                     0.106127      -0.000001
     10 H                     0.116195       0.001556
     11 H                     0.108461      -0.000061
     12 H                    -0.076436      -0.094625
  --------------------------------------------------------
  Sum of atomic charges =    -0.000000

                    Cartesian Multipole Moments
 -----------------------------------------------------------------
    Charge (ESU x 10^10)
                 0.0000
    Dipole Moment (Debye)
         X      -1.0853      Y       0.2160      Z       0.6786
       Tot       1.2981
    Quadrupole Moments (Debye-Ang)
        XX     -36.5154     XY      -0.1368     YY     -32.0593
        XZ       0.4393     YZ      -0.9473     ZZ     -36.7364

 Final energy is   -517.194468019371
 **  OPTIMIZATION CONVERGED  **
 Total job time:  24.40s(wall), 239.16s(cpu)
        *  Thank you very much for using Q-Chem.  Have a nice day.  *
