 Q-Chem 5.1, Q-Chem, Inc., Pleasanton, CA (2018)
 Q-Chem 5.1.1 for Intel X86 EM64T Linux

User input:
--------------------------------------------------------------

$comment
potential surface scanner
$end

$rem
JOBTYPE  PES_SCAN
UNRESTRICTED TRUE
SYM_IGNORE  TRUE
GEOM_OPT_MAX_CYCLES 400
SCF_MAX_CYCLES 400
METHOD   B3LYP
BASIS   6-31G**
PDB_PRINT 2
SCF_CONVERGENCE 6
THRESH 14
SCF_PRINT 1
$end
$molecule
0 1
S 2.176432 -0.037720 0.198326
C -0.612930 0.475108 0.032026
C 0.453135 -0.621592 0.052317
C -2.033329 -0.099800 -0.006617
H -0.484258 1.120022 0.908098
H -0.438799 1.107834 -0.847543
H 0.335425 -1.250000 0.948197
H 0.360304 -1.282299 -0.814471
H -2.244242 -0.704382 0.882528
H -2.778793 0.700366 -0.048216
H -2.181405 -0.737948 -0.884990
H 2.161058 1.234214 -1.596652
$end
$scan
stre 1 12 2.300000 2.301000 0.100000
$end
--------------------------------------------------------------

   10    -517.2400601162      4.34e-07  Convergence criterion met
 Total energy in the final basis set =     -517.2400601162
   10    -517.2289117293      5.32e-07  Convergence criterion met
 Total energy in the final basis set =     -517.2289117293
   10    -517.2286578861      5.35e-07  Convergence criterion met
 Total energy in the final basis set =     -517.2286578861
   10    -517.2286592780      5.37e-07  Convergence criterion met
 Total energy in the final basis set =     -517.2286592780

             Standard Nuclear Orientation (Angstroms)
    I     Atom           X                Y                Z
 ----------------------------------------------------------------
    1      S       2.1739034155    -0.0583120224     0.2183099030
    2      C      -0.6100774236     0.4701013852     0.0365634886
    3      C       0.4514607935    -0.6313211218     0.0616292866
    4      C      -2.0327811119    -0.0980758962    -0.0085676295
    5      H      -0.4820239858     1.1153012300     0.9124586135
    6      H      -0.4274012313     1.1006285521    -0.8430310302
    7      H       0.3252942179    -1.2590411921     0.9578793364
    8      H       0.3584517197    -1.2931738254    -0.8043939273
    9      H      -2.2523821075    -0.6983859536     0.8813543029
   10      H      -2.7738147101     0.7057730666    -0.0575236104
   11      H      -2.1787849045    -0.7383570252    -0.8857226713
   12      H       2.1607533280     1.2886658027    -1.6459530623
 ----------------------------------------------------------------

   10    -517.2286602488      5.39e-07  Convergence criterion met
 Total energy in the final basis set =     -517.2286602488

                    Orbital Energies (a.u.)
 --------------------------------------------------------------

 Alpha MOs
 -- Occupied --
-88.903 -10.225 -10.194 -10.184  -7.959  -5.926  -5.922  -5.913
 -0.810  -0.735  -0.636  -0.586  -0.478  -0.431  -0.407  -0.407
 -0.357  -0.344  -0.339  -0.291  -0.237

 Beta MOs
 -- Occupied --
-88.903 -10.225 -10.194 -10.184  -7.959  -5.926  -5.922  -5.913
 -0.810  -0.735  -0.636  -0.586  -0.478  -0.431  -0.407  -0.407
 -0.357  -0.344  -0.339  -0.291  -0.237

          Ground-State Mulliken Net Atomic Charges

     Atom                 Charge (a.u.)    Spin (a.u.)
  --------------------------------------------------------
      1 S                    -0.030115      -0.000000
      2 C                    -0.161388      -0.000000
      3 C                    -0.336253      -0.000000
      4 C                    -0.323737       0.000000
      5 H                     0.116565      -0.000000
      6 H                     0.107543       0.000000
      7 H                     0.143258      -0.000000
      8 H                     0.144445      -0.000000
      9 H                     0.106649       0.000000
     10 H                     0.111830       0.000000
     11 H                     0.107123       0.000000
     12 H                     0.014080       0.000000
  --------------------------------------------------------
  Sum of atomic charges =    -0.000000

                    Cartesian Multipole Moments
 -----------------------------------------------------------------
    Charge (ESU x 10^10)
                 0.0000
    Dipole Moment (Debye)
         X      -1.9168      Y      -0.4089      Z      -0.1590
       Tot       1.9664
    Quadrupole Moments (Debye-Ang)
        XX     -39.2368     XY       0.1351     YY     -34.2816
        XZ      -0.4291     YZ      -1.6688     ZZ     -33.4454

 Final energy is   -517.228660248791
 **  OPTIMIZATION CONVERGED  **
 Total job time:  16.67s(wall), 189.91s(cpu)
        *  Thank you very much for using Q-Chem.  Have a nice day.  *
