 Q-Chem 5.1, Q-Chem, Inc., Pleasanton, CA (2018)
 Q-Chem 5.1.1 for Intel X86 EM64T Linux

User input:
--------------------------------------------------------------

$comment
potential surface scanner
$end

$rem
JOBTYPE  PES_SCAN
UNRESTRICTED TRUE
SYM_IGNORE  TRUE
GEOM_OPT_MAX_CYCLES 400
SCF_MAX_CYCLES 400
METHOD   B3LYP
BASIS   6-31G**
PDB_PRINT 2
SCF_CONVERGENCE 6
THRESH 14
SCF_PRINT 1
$end
$molecule
0 1
S 1.439731 0.121791 0.577557
C -1.293586 -0.100974 0.692324
C -0.160010 -0.533566 0.134367
C -2.665138 -0.522207 0.251965
H -1.238811 0.611986 1.514198
H 2.994959 2.486346 -2.574601
H 2.121531 -1.041184 0.539749
H -0.171472 -1.244356 -0.688666
H -3.233504 -0.947219 1.088339
H -3.242042 0.335625 -0.116410
H -2.623036 -1.267690 -0.547433
H 2.783978 2.005250 -2.048387
$end
$scan
stre 1 12 3.600000 3.601000 0.100000
$end
--------------------------------------------------------------

    9    -517.2849665660      8.50e-07  Convergence criterion met
 Total energy in the final basis set =     -517.2849665660
    9    -517.2849468708      8.50e-07  Convergence criterion met
 Total energy in the final basis set =     -517.2849468708

             Standard Nuclear Orientation (Angstroms)
    I     Atom           X                Y                Z
 ----------------------------------------------------------------
    1      S       1.4315373457     0.1060615373     0.5972669203
    2      C      -1.3028363195    -0.1097131959     0.7016781659
    3      C      -0.1683946516    -0.5437332934     0.1465981340
    4      C      -2.6738989990    -0.5261831502     0.2552884828
    5      H      -1.2491576888     0.6008227420     1.5257195118
    6      H       3.0413922603     2.5282397016    -2.6189344861
    7      H       2.1102449702    -1.0586835471     0.5586636317
    8      H      -0.1788354950    -1.2522837807    -0.6783835497
    9      H      -3.2462527934    -0.9521948336     1.0884326751
   10      H      -3.2473914688     0.3341352689    -0.1126168246
   11      H      -2.6308673775    -1.2694541020    -0.5461205881
   12      H       2.8270602174     2.0467886530    -2.0945900729
 ----------------------------------------------------------------

    9    -517.2849465726      8.50e-07  Convergence criterion met
 Total energy in the final basis set =     -517.2849465726

                    Orbital Energies (a.u.)
 --------------------------------------------------------------

 Alpha MOs
 -- Occupied --
-88.883 -10.215 -10.198 -10.190  -7.946  -5.910  -5.907  -5.900
 -0.813  -0.747  -0.661  -0.555  -0.464  -0.441  -0.420  -0.417
 -0.390  -0.371  -0.337  -0.291  -0.224

 Beta MOs
 -- Occupied --
-88.883 -10.215 -10.198 -10.190  -7.946  -5.910  -5.907  -5.900
 -0.813  -0.747  -0.661  -0.555  -0.464  -0.441  -0.420  -0.417
 -0.390  -0.371  -0.337  -0.291  -0.224

          Ground-State Mulliken Net Atomic Charges

     Atom                 Charge (a.u.)    Spin (a.u.)
  --------------------------------------------------------
      1 S                    -0.007355       0.000000
      2 C                    -0.029576       0.000000
      3 C                    -0.246554      -0.000000
      4 C                    -0.351468      -0.000000
      5 H                     0.102501       0.000000
      6 H                    -0.019412      -0.000000
      7 H                     0.060103      -0.000000
      8 H                     0.118825       0.000000
      9 H                     0.121211      -0.000000
     10 H                     0.123506       0.000000
     11 H                     0.111896      -0.000000
     12 H                     0.016324       0.000000
  --------------------------------------------------------
  Sum of atomic charges =     0.000000

                    Cartesian Multipole Moments
 -----------------------------------------------------------------
    Charge (ESU x 10^10)
                -0.0000
    Dipole Moment (Debye)
         X      -1.1174      Y      -1.1969      Z      -0.1951
       Tot       1.6490
    Quadrupole Moments (Debye-Ang)
        XX     -31.6107     XY      -2.4049     YY     -33.7009
        XZ      -0.4199     YZ       0.9070     ZZ     -35.8824

 Final energy is   -517.284946572649
 **  OPTIMIZATION CONVERGED  **
 Total job time:  9.63s(wall), 102.69s(cpu)
        *  Thank you very much for using Q-Chem.  Have a nice day.  *
