 Q-Chem 5.1, Q-Chem, Inc., Pleasanton, CA (2018)
 Q-Chem 5.1.1 for Intel X86 EM64T Linux

User input:
--------------------------------------------------------------

$comment
potential surface scanner
$end

$rem
JOBTYPE  PES_SCAN
UNRESTRICTED TRUE
SYM_IGNORE  TRUE
GEOM_OPT_MAX_CYCLES 400
SCF_MAX_CYCLES 400
METHOD   B3LYP
BASIS   6-31G**
PDB_PRINT 2
SCF_CONVERGENCE 6
THRESH 14
SCF_PRINT 1
$end
$molecule
0 1
S 1.455605 0.153634 0.537219
C -1.275365 -0.083396 0.673414
C -0.143624 -0.513139 0.109562
C -2.647816 -0.514575 0.245731
H -1.218351 0.634605 1.490738
H 2.903409 2.402828 -2.485737
H 2.143740 -1.005678 0.501140
H -0.157113 -1.228733 -0.709249
H -3.207792 -0.937406 1.088839
H -3.231879 0.337985 -0.123595
H -2.607613 -1.264711 -0.549392
H 2.699399 1.922387 -1.955669
$end
$scan
stre 1 12 3.400000 3.401000 0.100000
$end
--------------------------------------------------------------

    9    -517.2849702297      8.51e-07  Convergence criterion met
 Total energy in the final basis set =     -517.2849702297
    9    -517.2849754133      8.51e-07  Convergence criterion met
 Total energy in the final basis set =     -517.2849754133

             Standard Nuclear Orientation (Angstroms)
    I     Atom           X                Y                Z
 ----------------------------------------------------------------
    1      S       1.4477516213     0.1376539408     0.5575434925
    2      C      -1.2844274789    -0.0922137851     0.6829117026
    3      C      -0.1517505096    -0.5233766783     0.1220277085
    4      C      -2.6564444443    -0.5183359876     0.2487767657
    5      H      -1.2285395104     0.6232347168     1.5025470042
    6      H       2.9489581965     2.4445326999    -2.5302090939
    7      H       2.1327098010    -1.0235010219     0.5205851554
    8      H      -0.1642299945    -1.2364994924    -0.6989615061
    9      H      -3.2206940902    -0.9422930628     1.0884649515
   10      H      -3.2368611078     0.3369194979    -0.1200661530
   11      H      -2.6152874258    -1.2660990773    -0.5485333576
   12      H       2.7414149429     1.9637792500    -2.0020856698
 ----------------------------------------------------------------

    9    -517.2849755772      8.51e-07  Convergence criterion met
 Total energy in the final basis set =     -517.2849755772

                    Orbital Energies (a.u.)
 --------------------------------------------------------------

 Alpha MOs
 -- Occupied --
-88.884 -10.215 -10.198 -10.190  -7.946  -5.911  -5.907  -5.901
 -0.813  -0.747  -0.662  -0.556  -0.465  -0.442  -0.419  -0.417
 -0.390  -0.371  -0.337  -0.291  -0.224

 Beta MOs
 -- Occupied --
-88.884 -10.215 -10.198 -10.190  -7.946  -5.911  -5.907  -5.901
 -0.813  -0.747  -0.662  -0.556  -0.465  -0.442  -0.419  -0.417
 -0.390  -0.371  -0.337  -0.291  -0.224

          Ground-State Mulliken Net Atomic Charges

     Atom                 Charge (a.u.)    Spin (a.u.)
  --------------------------------------------------------
      1 S                    -0.006852      -0.000000
      2 C                    -0.029573      -0.000000
      3 C                    -0.246436       0.000000
      4 C                    -0.351496       0.000000
      5 H                     0.102601      -0.000000
      6 H                    -0.022666      -0.000000
      7 H                     0.060346       0.000000
      8 H                     0.118979       0.000000
      9 H                     0.121264      -0.000000
     10 H                     0.123606      -0.000000
     11 H                     0.111955       0.000000
     12 H                     0.018272       0.000000
  --------------------------------------------------------
  Sum of atomic charges =    -0.000000

                    Cartesian Multipole Moments
 -----------------------------------------------------------------
    Charge (ESU x 10^10)
                 0.0000
    Dipole Moment (Debye)
         X      -1.1269      Y      -1.2196      Z      -0.1620
       Tot       1.6684
    Quadrupole Moments (Debye-Ang)
        XX     -31.6497     XY      -2.4708     YY     -33.7981
        XZ      -0.3659     YZ       0.9761     ZZ     -35.9050

 Final energy is   -517.284975577238
 **  OPTIMIZATION CONVERGED  **
 Total job time:  9.11s(wall), 101.00s(cpu)
        *  Thank you very much for using Q-Chem.  Have a nice day.  *
