 Q-Chem 5.1, Q-Chem, Inc., Pleasanton, CA (2018)
 Q-Chem 5.1.1 for Intel X86 EM64T Linux

User input:
--------------------------------------------------------------

$comment
potential surface scanner
$end

$rem
JOBTYPE  PES_SCAN
UNRESTRICTED TRUE
SYM_IGNORE  TRUE
GEOM_OPT_MAX_CYCLES 400
SCF_MAX_CYCLES 400
METHOD   B3LYP
BASIS   6-31G**
PDB_PRINT 2
SCF_CONVERGENCE 6
THRESH 14
SCF_PRINT 1
$end
$molecule
0 1
S 2.187425 0.138679 0.004426
C -0.632784 0.518920 -0.010484
C 0.472544 -0.539126 -0.030775
C -2.029584 -0.113232 0.009055
H -0.495437 1.163828 0.864531
H -0.530904 1.165346 -0.891325
H 0.415322 -1.170326 0.861643
H 0.368834 -1.199142 -0.897445
H -2.167026 -0.743210 0.894988
H -2.809551 0.654403 0.022735
H -2.195774 -0.741347 -0.873283
H 2.129534 0.769006 -1.131063
$end
$scan
stre 1 12 1.400000 1.401000 0.100000
$end
--------------------------------------------------------------

    9    -517.3393327360      3.92e-07  Convergence criterion met
 Total energy in the final basis set =     -517.3393327360
    9    -517.3394806320      3.65e-07  Convergence criterion met
 Total energy in the final basis set =     -517.3394806320
    9    -517.3394102959      3.65e-07  Convergence criterion met
 Total energy in the final basis set =     -517.3394102959
    9    -517.3394125784      3.66e-07  Convergence criterion met
 Total energy in the final basis set =     -517.3394125784
    9    -517.3394158580      3.67e-07  Convergence criterion met
 Total energy in the final basis set =     -517.3394158580
    9    -517.3394175287      3.67e-07  Convergence criterion met
 Total energy in the final basis set =     -517.3394175287
    9    -517.3394186724      3.68e-07  Convergence criterion met
 Total energy in the final basis set =     -517.3394186724

             Standard Nuclear Orientation (Angstroms)
    I     Atom           X                Y                Z
 ----------------------------------------------------------------
    1      S       2.1886508768     0.1121190424     0.0283491186
    2      C      -0.6286754427     0.5118445285    -0.0108437065
    3      C       0.4703156692    -0.5526382448    -0.0252280987
    4      C      -2.0297433330    -0.1106993893     0.0097109074
    5      H      -0.4883075478     1.1608114151     0.8606721157
    6      H      -0.5207421244     1.1525919966    -0.8951808248
    7      H       0.4034476567    -1.1836204464     0.8672937651
    8      H       0.3679236944    -1.2115309593    -0.8927528013
    9      H      -2.1744228178    -0.7321601165     0.9005111866
   10      H      -2.8043531317     0.6624365547     0.0142936876
   11      H      -2.1975486703    -0.7451602945    -0.8677868066
   12      H       2.1260541706     0.8398049136    -1.1660355432
 ----------------------------------------------------------------

    9    -517.3394188141      3.68e-07  Convergence criterion met
 Total energy in the final basis set =     -517.3394188141

                    Orbital Energies (a.u.)
 --------------------------------------------------------------

 Alpha MOs
 -- Occupied --
-88.874 -10.219 -10.192 -10.183  -7.935  -5.901  -5.897  -5.890
 -0.807  -0.737  -0.647  -0.591  -0.477  -0.437  -0.411  -0.403
 -0.372  -0.351  -0.341  -0.317  -0.234

 Beta MOs
 -- Occupied --
-88.874 -10.219 -10.192 -10.183  -7.935  -5.901  -5.897  -5.890
 -0.807  -0.737  -0.647  -0.591  -0.477  -0.437  -0.411  -0.403
 -0.372  -0.351  -0.341  -0.317  -0.234

          Ground-State Mulliken Net Atomic Charges

     Atom                 Charge (a.u.)    Spin (a.u.)
  --------------------------------------------------------
      1 S                    -0.052241       0.000000
      2 C                    -0.164758       0.000000
      3 C                    -0.328319      -0.000000
      4 C                    -0.322580      -0.000000
      5 H                     0.116471       0.000000
      6 H                     0.099113      -0.000000
      7 H                     0.137769       0.000000
      8 H                     0.135345       0.000000
      9 H                     0.107348      -0.000000
     10 H                     0.109977       0.000000
     11 H                     0.105802      -0.000000
     12 H                     0.056073      -0.000000
  --------------------------------------------------------
  Sum of atomic charges =     0.000000

                    Cartesian Multipole Moments
 -----------------------------------------------------------------
    Charge (ESU x 10^10)
                -0.0000
    Dipole Moment (Debye)
         X      -1.7313      Y      -0.0514      Z      -0.7201
       Tot       1.8758
    Quadrupole Moments (Debye-Ang)
        XX     -38.7447     XY       0.8153     YY     -34.1028
        XZ      -1.7286     YZ      -1.6331     ZZ     -32.8856

 Final energy is   -517.339418814109
 **  OPTIMIZATION CONVERGED  **
 Total job time:  25.42s(wall), 285.48s(cpu)
        *  Thank you very much for using Q-Chem.  Have a nice day.  *
