 Q-Chem 5.1, Q-Chem, Inc., Pleasanton, CA (2018)
 Q-Chem 5.1.1 for Intel X86 EM64T Linux

User input:
--------------------------------------------------------------

$comment
potential surface scanner
$end

$rem
JOBTYPE  PES_SCAN
UNRESTRICTED TRUE
SYM_IGNORE  TRUE
GEOM_OPT_MAX_CYCLES 400
SCF_MAX_CYCLES 400
METHOD   B3LYP
BASIS   6-31G**
PDB_PRINT 2
SCF_CONVERGENCE 6
THRESH 14
SCF_PRINT 1
$end
$molecule
0 1
S 2.167257 -0.141274 0.295215
C -0.593706 0.447794 0.054658
C 0.445151 -0.676125 0.103608
C -2.027027 -0.088354 -0.019882
H -0.469209 1.093849 0.930340
H -0.373221 1.069748 -0.822973
H 0.282530 -1.297946 1.000753
H 0.353806 -1.341624 -0.760165
H -2.284884 -0.669553 0.872315
H -2.746448 0.732398 -0.100428
H -2.165416 -0.737486 -0.891747
H 2.123767 1.512376 -1.838691
$end
$scan
stre 1 12 2.800000 2.801000 0.100000
$end
--------------------------------------------------------------

   12    -517.1914879980      1.26e-07  Convergence criterion met
 Total energy in the final basis set =     -517.1914879980
   12    -517.1842388339      1.92e-07  Convergence criterion met
 Total energy in the final basis set =     -517.1842388339
   12    -517.1841100386      1.93e-07  Convergence criterion met
 Total energy in the final basis set =     -517.1841100386

             Standard Nuclear Orientation (Angstroms)
    I     Atom           X                Y                Z
 ----------------------------------------------------------------
    1      S       2.1676298376    -0.1646533694     0.3192418078
    2      C      -0.5880692000     0.4445222094     0.0593476464
    3      C       0.4439798222    -0.6849746056     0.1134830275
    4      C      -2.0233290111    -0.0862757117    -0.0231732506
    5      H      -0.4661700071     1.0897531583     0.9358869365
    6      H      -0.3630779188     1.0662149396    -0.8170073489
    7      H       0.2688002912    -1.3043386393     1.0103084676
    8      H       0.3539907707    -1.3504633971    -0.7505679002
    9      H      -2.2899782400    -0.6665426074     0.8671254811
   10      H      -2.7390100085     0.7372863083    -0.1083920560
   11      H      -2.1583824700    -0.7347518012    -0.8960012892
   12      H       2.1062161340     1.5580265158    -1.8872485221
 ----------------------------------------------------------------

   12    -517.1841271515      1.91e-07  Convergence criterion met
 Total energy in the final basis set =     -517.1841271515

                    Orbital Energies (a.u.)
 --------------------------------------------------------------

 Alpha MOs
 -- Occupied --
-88.905 -10.228 -10.197 -10.186  -7.962  -5.929  -5.924  -5.915
 -0.813  -0.737  -0.638  -0.588  -0.480  -0.432  -0.410  -0.409
 -0.358  -0.345  -0.340  -0.268  -0.239

 Beta MOs
 -- Occupied --
-88.905 -10.228 -10.197 -10.186  -7.962  -5.929  -5.924  -5.915
 -0.813  -0.737  -0.638  -0.588  -0.480  -0.432  -0.410  -0.409
 -0.358  -0.345  -0.340  -0.268  -0.239

          Ground-State Mulliken Net Atomic Charges

     Atom                 Charge (a.u.)    Spin (a.u.)
  --------------------------------------------------------
      1 S                    -0.017239       0.000000
      2 C                    -0.163055      -0.000000
      3 C                    -0.342586      -0.000000
      4 C                    -0.324634       0.000000
      5 H                     0.117985       0.000000
      6 H                     0.111463       0.000000
      7 H                     0.149318       0.000000
      8 H                     0.147389       0.000000
      9 H                     0.106915      -0.000000
     10 H                     0.113166       0.000000
     11 H                     0.108006       0.000000
     12 H                    -0.006728      -0.000000
  --------------------------------------------------------
  Sum of atomic charges =    -0.000000

                    Cartesian Multipole Moments
 -----------------------------------------------------------------
    Charge (ESU x 10^10)
                -0.0000
    Dipole Moment (Debye)
         X      -2.0561      Y      -0.5698      Z       0.0456
       Tot       2.1341
    Quadrupole Moments (Debye-Ang)
        XX     -39.4017     XY      -0.1220     YY     -34.2530
        XZ      -0.0539     YZ      -1.5250     ZZ     -33.7648

 Final energy is   -517.184127151507
 **  OPTIMIZATION CONVERGED  **
 Total job time:  14.56s(wall), 167.03s(cpu)
        *  Thank you very much for using Q-Chem.  Have a nice day.  *
