 Q-Chem 5.1, Q-Chem, Inc., Pleasanton, CA (2018)
 Q-Chem 5.1.1 for Intel X86 EM64T Linux

User input:
--------------------------------------------------------------

$comment
potential surface scanner
$end

$rem
JOBTYPE  PES_SCAN
UNRESTRICTED TRUE
SYM_IGNORE  TRUE
GEOM_OPT_MAX_CYCLES 400
SCF_MAX_CYCLES 400
METHOD   B3LYP
BASIS   6-31G**
PDB_PRINT 2
SCF_CONVERGENCE 6
THRESH 14
SCF_PRINT 1
$end
$molecule
0 3
S 1.751718 -0.027564 -1.209753
C -0.736909 0.000634 0.140456
C 0.423432 -0.784864 -0.416106
C -1.955907 -0.892224 0.408418
H -1.012480 0.799977 -0.558804
H 1.330133 3.070107 -1.080509
H -0.445709 0.507963 1.076093
H 0.648068 -1.763986 0.008633
H -2.782272 -0.302662 0.818022
H -2.300669 -1.374081 -0.511054
H -1.715753 -1.678923 1.131585
H 1.508946 2.349427 -0.983981
$end
$scan
stre 1 12 2.300000 2.301000 0.100000
$end
--------------------------------------------------------------

   11    -517.2155485816      3.89e-07  Convergence criterion met
 Total energy in the final basis set =     -517.2155485816
   11    -517.2144880112      3.30e-07  Convergence criterion met
 Total energy in the final basis set =     -517.2144880112
   11    -517.2144728044      3.34e-07  Convergence criterion met
 Total energy in the final basis set =     -517.2144728044
   11    -517.2144776106      3.41e-07  Convergence criterion met
 Total energy in the final basis set =     -517.2144776106
   11    -517.2144881170      3.59e-07  Convergence criterion met
 Total energy in the final basis set =     -517.2144881170
   11    -517.2144994476      3.83e-07  Convergence criterion met
 Total energy in the final basis set =     -517.2144994476
   11    -517.2145072538      4.01e-07  Convergence criterion met
 Total energy in the final basis set =     -517.2145072538
   11    -517.2145108536      4.05e-07  Convergence criterion met
 Total energy in the final basis set =     -517.2145108536
   11    -517.2145135980      4.05e-07  Convergence criterion met
 Total energy in the final basis set =     -517.2145135980
   11    -517.2145177506      4.05e-07  Convergence criterion met
 Total energy in the final basis set =     -517.2145177506
   11    -517.2145234524      4.08e-07  Convergence criterion met
 Total energy in the final basis set =     -517.2145234524
   11    -517.2145278179      4.12e-07  Convergence criterion met
 Total energy in the final basis set =     -517.2145278179
   11    -517.2145296928      4.15e-07  Convergence criterion met
 Total energy in the final basis set =     -517.2145296928

             Standard Nuclear Orientation (Angstroms)
    I     Atom           X                Y                Z
 ----------------------------------------------------------------
    1      S       1.8292429030     0.0016309361    -1.0934297316
    2      C      -0.7192155090     0.0184421658     0.1505312072
    3      C       0.4351321046    -0.7617961806    -0.4252951132
    4      C      -1.9420819650    -0.8728653407     0.4024107052
    5      H      -0.9915559133     0.8334798264    -0.5321523029
    6      H       1.2402861541     2.9877463982    -1.0939609260
    7      H      -0.4231637499     0.5059005404     1.0951144309
    8      H       0.6110348664    -1.7778284959    -0.0692071510
    9      H      -2.7661525860    -0.2871373537     0.8217186896
   10      H      -2.2892036119    -1.3366178465    -0.5255962305
   11      H      -1.7059271380    -1.6733704367     1.1115924250
   12      H       1.4342024450     2.2662197873    -1.0187260027
 ----------------------------------------------------------------

   11    -517.2145304229      4.15e-07  Convergence criterion met
 Total energy in the final basis set =     -517.2145304229

                    Orbital Energies (a.u.)
 --------------------------------------------------------------

 Alpha MOs
 -- Occupied --
-88.907 -10.214 -10.202 -10.183  -7.968  -5.938  -5.928  -5.923
 -0.816  -0.751  -0.643  -0.575  -0.460  -0.450  -0.429  -0.423
 -0.369  -0.363  -0.348  -0.308  -0.287  -0.170

 Beta MOs
 -- Occupied --
-88.901 -10.202 -10.201 -10.183  -7.962  -5.924  -5.920  -5.917
 -0.795  -0.731  -0.629  -0.548  -0.450  -0.440  -0.421  -0.408
 -0.361  -0.355  -0.338  -0.270

          Ground-State Mulliken Net Atomic Charges

     Atom                 Charge (a.u.)    Spin (a.u.)
  --------------------------------------------------------
      1 S                     0.084591       1.070300
      2 C                    -0.183140      -0.023858
      3 C                    -0.275175       0.835121
      4 C                    -0.319554       0.009838
      5 H                     0.115437       0.014417
      6 H                     0.017449       0.060542
      7 H                     0.115081       0.050157
      8 H                     0.134566       0.002336
      9 H                     0.107147       0.001073
     10 H                     0.117360       0.001483
     11 H                     0.107944      -0.000860
     12 H                    -0.021705      -0.020549
  --------------------------------------------------------
  Sum of atomic charges =    -0.000000

                    Cartesian Multipole Moments
 -----------------------------------------------------------------
    Charge (ESU x 10^10)
                 0.0000
    Dipole Moment (Debye)
         X      -0.9505      Y      -0.1701      Z       0.7971
       Tot       1.2521
    Quadrupole Moments (Debye-Ang)
        XX     -35.5740     XY      -0.8933     YY     -32.4985
        XZ       0.3317     YZ      -0.9002     ZZ     -36.7439

 Final energy is   -517.214530422934
 **  OPTIMIZATION CONVERGED  **
 Total job time:  48.50s(wall), 548.07s(cpu)
        *  Thank you very much for using Q-Chem.  Have a nice day.  *
