 Q-Chem 5.1, Q-Chem, Inc., Pleasanton, CA (2018)
 Q-Chem 5.1.1 for Intel X86 EM64T Linux

User input:
--------------------------------------------------------------

$comment
potential surface scanner
$end

$rem
JOBTYPE  PES_SCAN
UNRESTRICTED TRUE
SYM_IGNORE  TRUE
GEOM_OPT_MAX_CYCLES 400
SCF_MAX_CYCLES 400
METHOD   B3LYP
BASIS   6-31G**
PDB_PRINT 2
SCF_CONVERGENCE 6
THRESH 14
SCF_PRINT 1
$end
$molecule
0 1
S 2.179595 0.007226 0.161183
C -0.620218 0.486736 0.024674
C 0.457270 -0.598679 0.033405
C -2.034404 -0.104213 -0.002774
H -0.491258 1.129634 0.902276
H -0.463676 1.125495 -0.853669
H 0.355147 -1.230838 0.926969
H 0.364221 -1.257255 -0.834938
H -2.226439 -0.720527 0.882615
H -2.789953 0.687182 -0.026626
H -2.185867 -0.735265 -0.885689
H 2.168179 1.114308 -1.504421
$end
$scan
stre 1 12 2.100000 2.101000 0.100000
$end
--------------------------------------------------------------

    9    -517.2653748024      7.47e-07  Convergence criterion met
 Total energy in the final basis set =     -517.2653748024
    9    -517.2526342097      9.27e-07  Convergence criterion met
 Total energy in the final basis set =     -517.2526342097
    9    -517.2523139451      9.33e-07  Convergence criterion met
 Total energy in the final basis set =     -517.2523139451
    9    -517.2523159632      9.36e-07  Convergence criterion met
 Total energy in the final basis set =     -517.2523159632
    9    -517.2523182607      9.41e-07  Convergence criterion met
 Total energy in the final basis set =     -517.2523182607
    9    -517.2523197145      9.45e-07  Convergence criterion met
 Total energy in the final basis set =     -517.2523197145

             Standard Nuclear Orientation (Angstroms)
    I     Atom           X                Y                Z
 ----------------------------------------------------------------
    1      S       2.1790955021    -0.0206532923     0.1765166316
    2      C      -0.6147291374     0.4793616909     0.0260873678
    3      C       0.4554692375    -0.6133948237     0.0422271132
    4      C      -2.0330397751    -0.1010635204    -0.0044653623
    5      H      -0.4838710189     1.1256404921     0.9008671949
    6      H      -0.4488799480     1.1123550341    -0.8548962495
    7      H       0.3447653533    -1.2411777944     0.9386338588
    8      H       0.3598652712    -1.2749944516    -0.8236085303
    9      H      -2.2360931536    -0.7067969764     0.8857268158
   10      H      -2.7820460930     0.6960330431    -0.0413804032
   11      H      -2.1836673139    -0.7395877412    -0.8821265599
   12      H       2.1557280758     1.1880823396    -1.5405768770
 ----------------------------------------------------------------

    9    -517.2523203429      9.46e-07  Convergence criterion met
 Total energy in the final basis set =     -517.2523203429

                    Orbital Energies (a.u.)
 --------------------------------------------------------------

 Alpha MOs
 -- Occupied --
-88.900 -10.223 -10.194 -10.184  -7.957  -5.923  -5.919  -5.910
 -0.809  -0.733  -0.636  -0.586  -0.477  -0.431  -0.407  -0.406
 -0.356  -0.344  -0.339  -0.302  -0.236

 Beta MOs
 -- Occupied --
-88.900 -10.223 -10.194 -10.184  -7.957  -5.923  -5.919  -5.910
 -0.809  -0.733  -0.636  -0.586  -0.477  -0.431  -0.407  -0.406
 -0.356  -0.344  -0.339  -0.302  -0.236

          Ground-State Mulliken Net Atomic Charges

     Atom                 Charge (a.u.)    Spin (a.u.)
  --------------------------------------------------------
      1 S                    -0.038010       0.000000
      2 C                    -0.161261      -0.000000
      3 C                    -0.332988       0.000000
      4 C                    -0.323362       0.000000
      5 H                     0.116261      -0.000000
      6 H                     0.105472      -0.000000
      7 H                     0.141126      -0.000000
      8 H                     0.142650      -0.000000
      9 H                     0.106696      -0.000000
     10 H                     0.111299      -0.000000
     11 H                     0.106785       0.000000
     12 H                     0.025332      -0.000000
  --------------------------------------------------------
  Sum of atomic charges =    -0.000000

                    Cartesian Multipole Moments
 -----------------------------------------------------------------
    Charge (ESU x 10^10)
                 0.0000
    Dipole Moment (Debye)
         X      -1.8612      Y      -0.3244      Z      -0.2681
       Tot       1.9082
    Quadrupole Moments (Debye-Ang)
        XX     -39.1459     XY       0.2881     YY     -34.2862
        XZ      -0.6589     YZ      -1.6913     ZZ     -33.3603

 Final energy is   -517.252320342858
 **  OPTIMIZATION CONVERGED  **
 Total job time:  24.90s(wall), 250.77s(cpu)
        *  Thank you very much for using Q-Chem.  Have a nice day.  *
