 Q-Chem 5.1, Q-Chem, Inc., Pleasanton, CA (2018)
 Q-Chem 5.1.1 for Intel X86 EM64T Linux

User input:
--------------------------------------------------------------

$comment
potential surface scanner
$end

$rem
JOBTYPE  PES_SCAN
UNRESTRICTED TRUE
SYM_IGNORE  TRUE
GEOM_OPT_MAX_CYCLES 400
SCF_MAX_CYCLES 400
METHOD   B3LYP
BASIS   6-31G**
PDB_PRINT 2
SCF_CONVERGENCE 6
THRESH 14
SCF_PRINT 1
$end
$molecule
0 3
S 1.290045 -0.216650 -1.758832
C -0.997562 -0.121677 -0.113951
C 0.242180 -0.860064 -0.553567
C -2.001532 -1.052045 0.579004
H -1.473000 0.353931 -0.981046
H 2.265176 3.626800 -0.604583
H -0.728472 0.702248 0.568985
H 0.708393 -1.562968 0.137664
H -2.875483 -0.489540 0.922373
H -2.344045 -1.837723 -0.100783
H -1.550276 -1.536639 1.451600
H 2.177175 2.898127 -0.723862
$end
$scan
stre 1 12 3.300000 3.301000 0.100000
$end
--------------------------------------------------------------

   11    -517.2185022002      4.70e-07  Convergence criterion met
 Total energy in the final basis set =     -517.2185022002
   11    -517.2184880468      4.64e-07  Convergence criterion met
 Total energy in the final basis set =     -517.2184880468

             Standard Nuclear Orientation (Angstroms)
    I     Atom           X                Y                Z
 ----------------------------------------------------------------
    1      S       1.2992691088    -0.1856409941    -1.7503817368
    2      C      -0.9928746060    -0.1088204311    -0.1112075013
    3      C       0.2512446255    -0.8396812758    -0.5509751953
    4      C      -1.9944317805    -1.0468253740     0.5750309842
    5      H      -1.4683400313     0.3685511443    -0.9773076205
    6      H       2.2294145142     3.5644905996    -0.6039034052
    7      H      -0.7291584730     0.7130670370     0.5762257965
    8      H       0.7189247190    -1.5434949340     0.1383316726
    9      H      -2.8719551191    -0.4897865553     0.9181968761
   10      H      -2.3315163169    -1.8312193350    -0.1089665165
   11      H      -1.5433309371    -1.5329062362     1.4468579558
   12      H       2.1453532962     2.8360663545    -0.7288993095
 ----------------------------------------------------------------

   11    -517.2184877816      4.64e-07  Convergence criterion met
 Total energy in the final basis set =     -517.2184877816

                    Orbital Energies (a.u.)
 --------------------------------------------------------------

 Alpha MOs
 -- Occupied --
-88.910 -10.214 -10.203 -10.184  -7.970  -5.941  -5.931  -5.926
 -0.818  -0.752  -0.644  -0.574  -0.462  -0.436  -0.424  -0.422
 -0.372  -0.364  -0.350  -0.309  -0.295  -0.170

 Beta MOs
 -- Occupied --
-88.904 -10.203 -10.202 -10.183  -7.964  -5.927  -5.923  -5.919
 -0.796  -0.731  -0.629  -0.547  -0.452  -0.427  -0.424  -0.407
 -0.363  -0.355  -0.340  -0.271

          Ground-State Mulliken Net Atomic Charges

     Atom                 Charge (a.u.)    Spin (a.u.)
  --------------------------------------------------------
      1 S                     0.087388       1.110876
      2 C                    -0.184297      -0.020287
      3 C                    -0.280154       0.829847
      4 C                    -0.316053       0.014104
      5 H                     0.113358       0.009251
      6 H                    -0.016803       0.003009
      7 H                     0.116573       0.049770
      8 H                     0.135771       0.000721
      9 H                     0.106911       0.002773
     10 H                     0.118022       0.001499
     11 H                     0.107655      -0.001079
     12 H                     0.011629      -0.000482
  --------------------------------------------------------
  Sum of atomic charges =     0.000000

                    Cartesian Multipole Moments
 -----------------------------------------------------------------
    Charge (ESU x 10^10)
                 0.0000
    Dipole Moment (Debye)
         X      -0.7838      Y      -0.1814      Z       0.9882
       Tot       1.2743
    Quadrupole Moments (Debye-Ang)
        XX     -34.3608     XY      -1.3829     YY     -34.6613
        XZ       0.8559     YZ      -1.3962     ZZ     -36.5175

 Final energy is   -517.218487781612
 **  OPTIMIZATION CONVERGED  **
 Total job time:  10.18s(wall), 114.75s(cpu)
        *  Thank you very much for using Q-Chem.  Have a nice day.  *
