 Q-Chem 5.1, Q-Chem, Inc., Pleasanton, CA (2018)
 Q-Chem 5.1.1 for Intel X86 EM64T Linux

User input:
--------------------------------------------------------------

$comment
potential surface scanner
$end

$rem
JOBTYPE  PES_SCAN
UNRESTRICTED TRUE
SYM_IGNORE  TRUE
GEOM_OPT_MAX_CYCLES 400
SCF_MAX_CYCLES 400
METHOD   B3LYP
BASIS   6-31G**
PDB_PRINT 2
SCF_CONVERGENCE 6
THRESH 14
SCF_PRINT 1
$end
$molecule
0 3
S 1.953360 0.126990 -0.158153
C -0.713551 -0.243018 0.692199
C 0.456386 -0.723440 -0.129674
C -2.044851 -0.797759 0.166395
H -0.744369 0.853563 0.689724
H 1.573263 2.559898 -1.863282
H -0.586346 -0.537576 1.747752
H 0.523084 -1.782358 -0.381506
H -2.878167 -0.459932 0.790879
H -2.228576 -0.468886 -0.860389
H -2.043357 -1.893082 0.173362
H 1.445722 3.269399 -2.044305
$end
$scan
stre 1 12 3.600000 3.601000 0.100000
$end
--------------------------------------------------------------

   11    -517.2181393373      4.82e-07  Convergence criterion met
 Total energy in the final basis set =     -517.2181393373
   11    -517.2164152835      5.41e-07  Convergence criterion met
 Total energy in the final basis set =     -517.2164152835
   11    -517.2176058690      5.38e-07  Convergence criterion met
 Total energy in the final basis set =     -517.2176058690
   11    -517.2179309669      5.34e-07  Convergence criterion met
 Total energy in the final basis set =     -517.2179309669
   11    -517.2179374806      5.33e-07  Convergence criterion met
 Total energy in the final basis set =     -517.2179374806

             Standard Nuclear Orientation (Angstroms)
    I     Atom           X                Y                Z
 ----------------------------------------------------------------
    1      S       1.9512156999     0.1477461838    -0.1853574909
    2      C      -0.7106656871    -0.2281007047     0.6792947938
    3      C       0.4579011098    -0.7086090822    -0.1443668033
    4      C      -2.0412665009    -0.7959857749     0.1660360604
    5      H      -0.7483692072     0.8682066537     0.6670537622
    6      H       1.5619817743     2.5061021488    -1.8349703632
    7      H      -0.5758799038    -0.5121553291     1.7368061393
    8      H       0.5283270259    -1.7687819524    -0.3898855140
    9      H      -2.8732132858    -0.4577300091     0.7921041452
   10      H      -2.2328960814    -0.4777358295    -0.8626556814
   11      H      -2.0328145987    -1.8911726259     0.1830236257
   12      H       1.4282776549     3.2220153214    -1.9840806737
 ----------------------------------------------------------------

   11    -517.2179380180      5.33e-07  Convergence criterion met
 Total energy in the final basis set =     -517.2179380180

                    Orbital Energies (a.u.)
 --------------------------------------------------------------

 Alpha MOs
 -- Occupied --
-88.910 -10.214 -10.204 -10.183  -7.970  -5.941  -5.931  -5.926
 -0.818  -0.752  -0.644  -0.574  -0.462  -0.437  -0.424  -0.420
 -0.373  -0.364  -0.349  -0.310  -0.295  -0.170

 Beta MOs
 -- Occupied --
-88.904 -10.203 -10.202 -10.183  -7.964  -5.927  -5.923  -5.919
 -0.796  -0.731  -0.629  -0.547  -0.452  -0.428  -0.421  -0.406
 -0.363  -0.355  -0.340  -0.271

          Ground-State Mulliken Net Atomic Charges

     Atom                 Charge (a.u.)    Spin (a.u.)
  --------------------------------------------------------
      1 S                     0.089546       1.109922
      2 C                    -0.183542      -0.020679
      3 C                    -0.279972       0.830786
      4 C                    -0.315358       0.014759
      5 H                     0.113588       0.007937
      6 H                     0.013575      -0.001790
      7 H                     0.115666       0.049434
      8 H                     0.135670       0.000568
      9 H                     0.106552       0.003246
     10 H                     0.118393       0.001636
     11 H                     0.107381      -0.001119
     12 H                    -0.021499       0.005300
  --------------------------------------------------------
  Sum of atomic charges =    -0.000000

                    Cartesian Multipole Moments
 -----------------------------------------------------------------
    Charge (ESU x 10^10)
                 0.0000
    Dipole Moment (Debye)
         X      -1.0340      Y      -0.6754      Z       0.5238
       Tot       1.3415
    Quadrupole Moments (Debye-Ang)
        XX     -35.6257     XY      -0.8312     YY     -33.0687
        XZ      -0.5783     YZ       1.0869     ZZ     -35.9639

 Final energy is   -517.217938018037
 **  OPTIMIZATION CONVERGED  **
 Total job time:  20.96s(wall), 235.92s(cpu)
        *  Thank you very much for using Q-Chem.  Have a nice day.  *
