 Q-Chem 5.1, Q-Chem, Inc., Pleasanton, CA (2018)
 Q-Chem 5.1.1 for Intel X86 EM64T Linux

User input:
--------------------------------------------------------------

$comment
potential surface scanner
$end

$rem
JOBTYPE  PES_SCAN
UNRESTRICTED TRUE
SYM_IGNORE  TRUE
GEOM_OPT_MAX_CYCLES 400
SCF_MAX_CYCLES 400
METHOD   B3LYP
BASIS   6-31G**
PDB_PRINT 2
SCF_CONVERGENCE 6
THRESH 14
SCF_PRINT 1
$end
$molecule
0 3
S 1.911705 0.150960 -1.019070
C -0.699568 0.107676 0.161809
C 0.471469 -0.618936 -0.440366
C -1.899409 -0.822524 0.378925
H -0.993493 0.940903 -0.489783
H 1.005715 2.571636 -0.998793
H -0.416886 0.568124 1.124417
H 0.630347 -1.665293 -0.177937
H -2.739950 -0.275882 0.817592
H -2.233070 -1.260413 -0.566677
H -1.643232 -1.643003 1.057687
H 1.318971 1.850558 -1.024802
$end
$scan
stre 1 12 1.700000 1.701000 0.100000
$end
--------------------------------------------------------------

   11    -517.2035385532      3.17e-07  Convergence criterion met
 Total energy in the final basis set =     -517.2035385532
   11    -517.1993048856      3.24e-07  Convergence criterion met
 Total energy in the final basis set =     -517.1993048856
   11    -517.1993791591      3.34e-07  Convergence criterion met
 Total energy in the final basis set =     -517.1993791591
   11    -517.1994112397      3.40e-07  Convergence criterion met
 Total energy in the final basis set =     -517.1994112397

             Standard Nuclear Orientation (Angstroms)
    I     Atom           X                Y                Z
 ----------------------------------------------------------------
    1      S       1.9106164548     0.1856626565    -1.0214469422
    2      C      -0.7030081767     0.1205074070     0.1611964261
    3      C       0.4722713822    -0.5947372563    -0.4444147422
    4      C      -1.8953807442    -0.8193988840     0.3776134524
    5      H      -1.0047159157     0.9534653740    -0.4875407926
    6      H       0.9908382701     2.5159472463    -0.9837360572
    7      H      -0.4227700039     0.5804871982     1.1248711935
    8      H       0.6382507636    -1.6413235847    -0.1894323984
    9      H      -2.7396627313    -0.2811487283     0.8194143671
   10      H      -2.2270711721    -1.2572077177    -0.5687379373
   11      H      -1.6313633553    -1.6399070819     1.0533614008
   12      H       1.3245942285     1.7814593708    -1.0181459701
 ----------------------------------------------------------------

   11    -517.1994119970      3.41e-07  Convergence criterion met
 Total energy in the final basis set =     -517.1994119970

                    Orbital Energies (a.u.)
 --------------------------------------------------------------

 Alpha MOs
 -- Occupied --
-88.898 -10.212 -10.200 -10.182  -7.960  -5.930  -5.920  -5.916
 -0.815  -0.752  -0.645  -0.583  -0.485  -0.456  -0.426  -0.420
 -0.367  -0.361  -0.345  -0.305  -0.262  -0.169

 Beta MOs
 -- Occupied --
-88.893 -10.200 -10.200 -10.182  -7.955  -5.918  -5.914  -5.910
 -0.794  -0.734  -0.631  -0.559  -0.457  -0.448  -0.412  -0.408
 -0.359  -0.354  -0.334  -0.269

          Ground-State Mulliken Net Atomic Charges

     Atom                 Charge (a.u.)    Spin (a.u.)
  --------------------------------------------------------
      1 S                     0.099220       0.885626
      2 C                    -0.180023      -0.032733
      3 C                    -0.272283       0.855628
      4 C                    -0.321145       0.004018
      5 H                     0.110280       0.017248
      6 H                     0.059649       0.303268
      7 H                     0.112712       0.051289
      8 H                     0.133580      -0.005439
      9 H                     0.106157       0.000107
     10 H                     0.116300       0.001556
     11 H                     0.108270      -0.000217
     12 H                    -0.072719      -0.080350
  --------------------------------------------------------
  Sum of atomic charges =     0.000000

                    Cartesian Multipole Moments
 -----------------------------------------------------------------
    Charge (ESU x 10^10)
                -0.0000
    Dipole Moment (Debye)
         X      -1.0699      Y       0.1781      Z       0.6938
       Tot       1.2876
    Quadrupole Moments (Debye-Ang)
        XX     -36.3810     XY      -0.2714     YY     -32.0003
        XZ       0.4206     YZ      -0.9149     ZZ     -36.7530

 Final energy is   -517.199411997005
 **  OPTIMIZATION CONVERGED  **
 Total job time:  17.30s(wall), 198.15s(cpu)
        *  Thank you very much for using Q-Chem.  Have a nice day.  *
