 Q-Chem 5.1, Q-Chem, Inc., Pleasanton, CA (2018)
 Q-Chem 5.1.1 for Intel X86 EM64T Linux

User input:
--------------------------------------------------------------

$comment
potential surface scanner
$end

$rem
JOBTYPE  PES_SCAN
UNRESTRICTED TRUE
SYM_IGNORE  TRUE
GEOM_OPT_MAX_CYCLES 400
SCF_MAX_CYCLES 400
METHOD   B3LYP
BASIS   6-31G**
PDB_PRINT 2
SCF_CONVERGENCE 6
THRESH 14
SCF_PRINT 1
$end
$molecule
0 3
S 1.429754 -0.077493 -1.637659
C -0.920174 -0.044650 -0.077550
C 0.309988 -0.786312 -0.537915
C -1.957380 -0.989561 0.543273
H -1.368203 0.492420 -0.923056
H 1.915921 3.279739 -0.634522
H -0.645818 0.730677 0.658050
H 0.725009 -1.564454 0.103629
H -2.824833 -0.427004 0.902541
H -2.304891 -1.728209 -0.185028
H -1.532612 -1.531252 1.395212
H 1.885837 2.549903 -0.783973
$end
$scan
stre 1 12 2.700000 2.701000 0.100000
$end
--------------------------------------------------------------

   11    -517.2178093638      3.99e-07  Convergence criterion met
 Total energy in the final basis set =     -517.2178093638
   11    -517.2173991975      3.50e-07  Convergence criterion met
 Total energy in the final basis set =     -517.2173991975
   11    -517.2173916737      3.50e-07  Convergence criterion met
 Total energy in the final basis set =     -517.2173916737
   11    -517.2173930066      3.51e-07  Convergence criterion met
 Total energy in the final basis set =     -517.2173930066
   11    -517.2173961534      3.53e-07  Convergence criterion met
 Total energy in the final basis set =     -517.2173961534
   11    -517.2174004727      3.56e-07  Convergence criterion met
 Total energy in the final basis set =     -517.2174004727
   11    -517.2174042622      3.58e-07  Convergence criterion met
 Total energy in the final basis set =     -517.2174042622

             Standard Nuclear Orientation (Angstroms)
    I     Atom           X                Y                Z
 ----------------------------------------------------------------
    1      S       1.4744098569    -0.0350953663    -1.5637596768
    2      C      -0.9119319295    -0.0369532061    -0.0555875040
    3      C       0.3135068276    -0.7771227263    -0.5305502846
    4      C      -1.9589123749    -0.9903061605     0.5352352435
    5      H      -1.3520142176     0.5257817882    -0.8886105769
    6      H       1.8865363049     3.2661766154    -0.7001927151
    7      H      -0.6355502769     0.7163851211     0.7017220056
    8      H       0.6983137286    -1.5981981613     0.0754201825
    9      H      -2.8279677416    -0.4321805759     0.8973747948
   10      H      -2.3019762192    -1.7123514727    -0.2116587404
   11      H      -1.5444554695    -1.5509702903     1.3799184314
   12      H       1.8726395112     2.5286384347    -0.8163091599
 ----------------------------------------------------------------

   11    -517.2174058716      3.57e-07  Convergence criterion met
 Total energy in the final basis set =     -517.2174058716

                    Orbital Energies (a.u.)
 --------------------------------------------------------------

 Alpha MOs
 -- Occupied --
-88.910 -10.215 -10.204 -10.184  -7.971  -5.941  -5.931  -5.926
 -0.818  -0.752  -0.644  -0.575  -0.461  -0.438  -0.425  -0.423
 -0.371  -0.364  -0.350  -0.309  -0.294  -0.171

 Beta MOs
 -- Occupied --
-88.904 -10.203 -10.202 -10.184  -7.964  -5.927  -5.923  -5.919
 -0.796  -0.732  -0.629  -0.548  -0.452  -0.430  -0.421  -0.408
 -0.362  -0.356  -0.341  -0.271

          Ground-State Mulliken Net Atomic Charges

     Atom                 Charge (a.u.)    Spin (a.u.)
  --------------------------------------------------------
      1 S                     0.091364       1.104172
      2 C                    -0.183933      -0.020856
      3 C                    -0.278962       0.828814
      4 C                    -0.318219       0.012567
      5 H                     0.114792       0.012170
      6 H                    -0.016952       0.013314
      7 H                     0.117070       0.049602
      8 H                     0.136107       0.001583
      9 H                     0.107557       0.001798
     10 H                     0.117982       0.001411
     11 H                     0.108026      -0.000980
     12 H                     0.005167      -0.003595
  --------------------------------------------------------
  Sum of atomic charges =    -0.000000

                    Cartesian Multipole Moments
 -----------------------------------------------------------------
    Charge (ESU x 10^10)
                 0.0000
    Dipole Moment (Debye)
         X      -0.8494      Y      -0.3165      Z       0.9440
       Tot       1.3087
    Quadrupole Moments (Debye-Ang)
        XX     -34.6901     XY      -1.5034     YY     -34.2815
        XZ       0.6816     YZ      -1.1801     ZZ     -36.6333

 Final energy is   -517.217405871567
 **  OPTIMIZATION CONVERGED  **
 Total job time:  27.82s(wall), 313.09s(cpu)
        *  Thank you very much for using Q-Chem.  Have a nice day.  *
