 Q-Chem 5.1, Q-Chem, Inc., Pleasanton, CA (2018)
 Q-Chem 5.1.1 for Intel X86 EM64T Linux

User input:
--------------------------------------------------------------

$comment
potential surface scanner
$end

$rem
JOBTYPE  PES_SCAN
UNRESTRICTED TRUE
SYM_IGNORE  TRUE
GEOM_OPT_MAX_CYCLES 400
SCF_MAX_CYCLES 400
METHOD   B3LYP
BASIS   6-31G**
PDB_PRINT 2
SCF_CONVERGENCE 6
THRESH 14
SCF_PRINT 1
$end
$molecule
0 3
S 1.299269 -0.185641 -1.750382
C -0.992875 -0.108820 -0.111208
C 0.251245 -0.839681 -0.550975
C -1.994432 -1.046825 0.575031
H -1.468340 0.368551 -0.977308
H 2.229415 3.564491 -0.603903
H -0.729158 0.713067 0.576226
H 0.718925 -1.543495 0.138332
H -2.871955 -0.489787 0.918197
H -2.331516 -1.831219 -0.108967
H -1.543331 -1.532906 1.446858
H 2.145353 2.836066 -0.728899
$end
$scan
stre 1 12 3.200000 3.201000 0.100000
$end
--------------------------------------------------------------

   11    -517.2184877815      4.64e-07  Convergence criterion met
 Total energy in the final basis set =     -517.2184877815
   11    -517.2184518008      4.57e-07  Convergence criterion met
 Total energy in the final basis set =     -517.2184518008

             Standard Nuclear Orientation (Angstroms)
    I     Atom           X                Y                Z
 ----------------------------------------------------------------
    1      S       1.3087332098    -0.1545177519    -1.7414611650
    2      C      -0.9882646492    -0.0960677192    -0.1084777227
    3      C       0.2602403045    -0.8193773833    -0.5483725980
    4      C      -1.9873577622    -1.0415970471     0.5709787749
    5      H      -1.4636134537     0.3833066476    -0.9735236924
    6      H       2.1936343019     3.5023336697    -0.6033699763
    7      H      -0.7298552952     0.7236511014     0.5835134114
    8      H       0.7292696953    -1.5242089665     0.1389747469
    9      H      -2.8683149283    -0.4900320592     0.9141947261
   10      H      -2.3191762246    -1.8246060793    -0.1171889517
   11      H      -1.5363269439    -1.5293109129     1.4419271775
   12      H       2.1136317456     2.7742275008    -0.7341927308
 ----------------------------------------------------------------

   11    -517.2184511074      4.57e-07  Convergence criterion met
 Total energy in the final basis set =     -517.2184511074

                    Orbital Energies (a.u.)
 --------------------------------------------------------------

 Alpha MOs
 -- Occupied --
-88.910 -10.214 -10.204 -10.184  -7.970  -5.941  -5.931  -5.926
 -0.818  -0.752  -0.644  -0.574  -0.462  -0.436  -0.424  -0.422
 -0.372  -0.364  -0.350  -0.310  -0.295  -0.171

 Beta MOs
 -- Occupied --
-88.904 -10.203 -10.202 -10.183  -7.964  -5.927  -5.923  -5.919
 -0.796  -0.731  -0.629  -0.547  -0.452  -0.428  -0.423  -0.407
 -0.363  -0.355  -0.340  -0.271

          Ground-State Mulliken Net Atomic Charges

     Atom                 Charge (a.u.)    Spin (a.u.)
  --------------------------------------------------------
      1 S                     0.087987       1.110498
      2 C                    -0.184337      -0.020244
      3 C                    -0.280046       0.829788
      4 C                    -0.316084       0.014102
      5 H                     0.113418       0.009253
      6 H                    -0.018125       0.003540
      7 H                     0.116716       0.049716
      8 H                     0.135827       0.000742
      9 H                     0.106953       0.002766
     10 H                     0.118030       0.001501
     11 H                     0.107675      -0.001079
     12 H                     0.011987      -0.000583
  --------------------------------------------------------
  Sum of atomic charges =    -0.000000

                    Cartesian Multipole Moments
 -----------------------------------------------------------------
    Charge (ESU x 10^10)
                 0.0000
    Dipole Moment (Debye)
         X      -0.7905      Y      -0.2021      Z       0.9841
       Tot       1.2784
    Quadrupole Moments (Debye-Ang)
        XX     -34.3660     XY      -1.4213     YY     -34.7060
        XZ       0.8590     YZ      -1.3617     ZZ     -36.5069

 Final energy is   -517.218451107350
 **  OPTIMIZATION CONVERGED  **
 Total job time:  11.79s(wall), 114.35s(cpu)
        *  Thank you very much for using Q-Chem.  Have a nice day.  *
