 Q-Chem 5.1, Q-Chem, Inc., Pleasanton, CA (2018)
 Q-Chem 5.1.1 for Intel X86 EM64T Linux

User input:
--------------------------------------------------------------

$comment
potential surface scanner
$end

$rem
JOBTYPE  PES_SCAN
UNRESTRICTED TRUE
SYM_IGNORE  TRUE
GEOM_OPT_MAX_CYCLES 400
SCF_MAX_CYCLES 400
METHOD   B3LYP
BASIS   6-31G**
PDB_PRINT 2
SCF_CONVERGENCE 6
THRESH 14
SCF_PRINT 1
$end
$molecule
0 3
S 1.956040 0.101484 -0.136812
C -0.716019 -0.256250 0.701634
C 0.454553 -0.741217 -0.116771
C -2.048434 -0.800285 0.167457
H -0.739709 0.840508 0.703266
H 1.583608 2.616303 -1.888827
H -0.595649 -0.555753 1.756584
H 0.517024 -1.800261 -0.369196
H -2.882480 -0.459325 0.789262
H -2.225087 -0.466364 -0.858939
H -2.054121 -1.895611 0.170288
H 1.462873 3.320569 -2.094944
$end
$scan
stre 1 12 3.700000 3.701000 0.100000
$end
--------------------------------------------------------------

   11    -517.2182649113      4.44e-07  Convergence criterion met
 Total energy in the final basis set =     -517.2182649113
   11    -517.2165685249      4.90e-07  Convergence criterion met
 Total energy in the final basis set =     -517.2165685249
   11    -517.2177970388      4.86e-07  Convergence criterion met
 Total energy in the final basis set =     -517.2177970388
   11    -517.2181328470      4.82e-07  Convergence criterion met
 Total energy in the final basis set =     -517.2181328470

             Standard Nuclear Orientation (Angstroms)
    I     Atom           X                Y                Z
 ----------------------------------------------------------------
    1      S       1.9533596902     0.1269899394    -0.1581529729
    2      C      -0.7135509921    -0.2430184240     0.6921986340
    3      C       0.4563864655    -0.7234397191    -0.1296736487
    4      C      -2.0448511505    -0.7977591024     0.1663947606
    5      H      -0.7443691566     0.8535631807     0.6897235037
    6      H       1.5732631013     2.5598977351    -1.8632818308
    7      H      -0.5863461116    -0.5375760842     1.7477520271
    8      H       0.5230835981    -1.7823583293    -0.3815059674
    9      H      -2.8781665384    -0.4599318661     0.7908792449
   10      H      -2.2285756195    -0.4688862923    -0.8603888065
   11      H      -2.0433565852    -1.8930818675     0.1733623727
   12      H       1.4457222988     3.2693988298    -2.0443053167
 ----------------------------------------------------------------

   11    -517.2181393375      4.82e-07  Convergence criterion met
 Total energy in the final basis set =     -517.2181393375

                    Orbital Energies (a.u.)
 --------------------------------------------------------------

 Alpha MOs
 -- Occupied --
-88.910 -10.214 -10.204 -10.183  -7.970  -5.941  -5.931  -5.926
 -0.818  -0.752  -0.644  -0.574  -0.462  -0.436  -0.424  -0.420
 -0.373  -0.364  -0.349  -0.310  -0.295  -0.170

 Beta MOs
 -- Occupied --
-88.904 -10.203 -10.202 -10.183  -7.964  -5.927  -5.923  -5.919
 -0.796  -0.731  -0.629  -0.547  -0.452  -0.428  -0.421  -0.406
 -0.363  -0.355  -0.340  -0.271

          Ground-State Mulliken Net Atomic Charges

     Atom                 Charge (a.u.)    Spin (a.u.)
  --------------------------------------------------------
      1 S                     0.088920       1.110427
      2 C                    -0.183648      -0.020566
      3 C                    -0.280132       0.830851
      4 C                    -0.315245       0.014916
      5 H                     0.113475       0.007845
      6 H                     0.013752      -0.001408
      7 H                     0.115655       0.049319
      8 H                     0.135658       0.000509
      9 H                     0.106526       0.003310
     10 H                     0.118410       0.001630
     11 H                     0.107384      -0.001126
     12 H                    -0.020755       0.004294
  --------------------------------------------------------
  Sum of atomic charges =     0.000000

                    Cartesian Multipole Moments
 -----------------------------------------------------------------
    Charge (ESU x 10^10)
                 0.0000
    Dipole Moment (Debye)
         X      -1.0393      Y      -0.6675      Z       0.5146
       Tot       1.3381
    Quadrupole Moments (Debye-Ang)
        XX     -35.6329     XY      -0.7971     YY     -33.0320
        XZ      -0.5914     YZ       1.0595     ZZ     -35.9285

 Final energy is   -517.218139337470
 **  OPTIMIZATION CONVERGED  **
 Total job time:  16.83s(wall), 188.63s(cpu)
        *  Thank you very much for using Q-Chem.  Have a nice day.  *
