 Q-Chem 5.1, Q-Chem, Inc., Pleasanton, CA (2018)
 Q-Chem 5.1.1 for Intel X86 EM64T Linux

User input:
--------------------------------------------------------------

$comment
potential surface scanner
$end

$rem
JOBTYPE  PES_SCAN
UNRESTRICTED TRUE
SYM_IGNORE  TRUE
GEOM_OPT_MAX_CYCLES 400
SCF_MAX_CYCLES 400
METHOD   B3LYP
BASIS   6-31G**
PDB_PRINT 2
SCF_CONVERGENCE 6
THRESH 14
SCF_PRINT 1
$end
$molecule
0 3
S 1.586413 0.015848 -1.309201
C -0.839637 -0.046933 0.135776
C 0.355018 -0.786598 -0.412297
C -2.004104 -0.995681 0.450395
H -1.167509 0.713031 -0.584709
H 1.764233 3.331073 -1.130538
H -0.563079 0.506132 1.049538
H 0.665472 -1.715445 0.067067
H -2.856608 -0.439349 0.852926
H -2.332832 -1.526045 -0.447924
H -1.711246 -1.744130 1.194661
H 1.816479 2.591901 -1.042695
$end
$scan
stre 1 12 2.500000 2.501000 0.100000
$end
--------------------------------------------------------------

   11    -517.2169788835      3.88e-07  Convergence criterion met
 Total energy in the final basis set =     -517.2169788835
   11    -517.2163245521      3.34e-07  Convergence criterion met
 Total energy in the final basis set =     -517.2163245521
   11    -517.2163130179      3.35e-07  Convergence criterion met
 Total energy in the final basis set =     -517.2163130179
   11    -517.2163148647      3.39e-07  Convergence criterion met
 Total energy in the final basis set =     -517.2163148647
   11    -517.2163190916      3.48e-07  Convergence criterion met
 Total energy in the final basis set =     -517.2163190916
   11    -517.2163240949      3.62e-07  Convergence criterion met
 Total energy in the final basis set =     -517.2163240949
   11    -517.2163288786      3.78e-07  Convergence criterion met
 Total energy in the final basis set =     -517.2163288786
   11    -517.2163316329      3.90e-07  Convergence criterion met
 Total energy in the final basis set =     -517.2163316329
   11    -517.2163334844      4.00e-07  Convergence criterion met
 Total energy in the final basis set =     -517.2163334844
   11    -517.2163359617      4.13e-07  Convergence criterion met
 Total energy in the final basis set =     -517.2163359617
   11    -517.2163398273      4.16e-07  Convergence criterion met
 Total energy in the final basis set =     -517.2163398273
   11    -517.2163488189      4.00e-07  Convergence criterion met
 Total energy in the final basis set =     -517.2163488189
   11    -517.2163506480      3.93e-07  Convergence criterion met
 Total energy in the final basis set =     -517.2163506480

             Standard Nuclear Orientation (Angstroms)
    I     Atom           X                Y                Z
 ----------------------------------------------------------------
    1      S       1.7064474355    -0.0391677004    -1.2490135112
    2      C      -0.7654229187    -0.0171760384     0.1237364296
    3      C       0.4022244231    -0.8005580536    -0.4211584712
    4      C      -1.9685369876    -0.9201829189     0.4266394467
    5      H      -1.0588084314     0.7582300885    -0.5953211923
    6      H       1.4545852126     3.1718022878    -1.0692095749
    7      H      -0.4741998773     0.5207278860     1.0420607116
    8      H       0.6435509920    -1.7665394753     0.0234620274
    9      H      -2.8008925857    -0.3315641031     0.8252923415
   10      H      -2.3124828438    -1.4336366817    -0.4758639581
   11      H      -1.7110980824    -1.6818364124     1.1704361128
   12      H       1.5972336638     2.4437051217    -0.9780613619
 ----------------------------------------------------------------

   11    -517.2163513981      3.97e-07  Convergence criterion met
 Total energy in the final basis set =     -517.2163513981

                    Orbital Energies (a.u.)
 --------------------------------------------------------------

 Alpha MOs
 -- Occupied --
-88.909 -10.214 -10.203 -10.183  -7.969  -5.940  -5.929  -5.925
 -0.817  -0.751  -0.643  -0.575  -0.461  -0.443  -0.429  -0.423
 -0.371  -0.363  -0.349  -0.309  -0.291  -0.170

 Beta MOs
 -- Occupied --
-88.903 -10.203 -10.201 -10.183  -7.963  -5.926  -5.922  -5.918
 -0.795  -0.731  -0.629  -0.547  -0.451  -0.435  -0.422  -0.407
 -0.362  -0.355  -0.339  -0.270

          Ground-State Mulliken Net Atomic Charges

     Atom                 Charge (a.u.)    Spin (a.u.)
  --------------------------------------------------------
      1 S                     0.087469       1.091109
      2 C                    -0.183898      -0.022480
      3 C                    -0.277537       0.832653
      4 C                    -0.317699       0.012590
      5 H                     0.114794       0.011490
      6 H                     0.000631       0.031826
      7 H                     0.115740       0.049778
      8 H                     0.135269       0.001117
      9 H                     0.107059       0.002080
     10 H                     0.117729       0.001564
     11 H                     0.107793      -0.001016
     12 H                    -0.007351      -0.010711
  --------------------------------------------------------
  Sum of atomic charges =     0.000000

                    Cartesian Multipole Moments
 -----------------------------------------------------------------
    Charge (ESU x 10^10)
                 0.0000
    Dipole Moment (Debye)
         X      -0.8914      Y      -0.2562      Z       0.8635
       Tot       1.2672
    Quadrupole Moments (Debye-Ang)
        XX     -35.2548     XY      -1.1579     YY     -33.0591
        XZ       0.3927     YZ      -1.0572     ZZ     -36.6710

 Final energy is   -517.216351398135
 **  OPTIMIZATION CONVERGED  **
 Total job time:  47.00s(wall), 544.07s(cpu)
        *  Thank you very much for using Q-Chem.  Have a nice day.  *
