 Q-Chem 5.1, Q-Chem, Inc., Pleasanton, CA (2018)
 Q-Chem 5.1.1 for Intel X86 EM64T Linux

User input:
--------------------------------------------------------------

$comment
potential surface scanner
$end

$rem
JOBTYPE  PES_SCAN
UNRESTRICTED TRUE
SYM_IGNORE  TRUE
GEOM_OPT_MAX_CYCLES 400
SCF_MAX_CYCLES 400
METHOD   B3LYP
BASIS   6-31G**
PDB_PRINT 2
SCF_CONVERGENCE 6
THRESH 14
SCF_PRINT 1
$end
$molecule
0 1
S 2.173459 -0.084965 0.233184
C -0.604126 0.462825 0.038562
C 0.449906 -0.646103 0.071383
C -2.030702 -0.094663 -0.011097
H -0.474683 1.110668 0.912249
H -0.411527 1.088080 -0.842915
H 0.314418 -1.268912 0.970309
H 0.354186 -1.311150 -0.792006
H -2.262049 -0.684088 0.883081
H -2.764673 0.714705 -0.073704
H -2.175464 -0.742344 -0.883002
H 2.143854 1.359749 -1.683042
$end
$scan
stre 1 12 2.500000 2.501000 0.100000
$end
--------------------------------------------------------------

   10    -517.2181332074      7.33e-07  Convergence criterion met
 Total energy in the final basis set =     -517.2181332074
   11    -517.2086472836      3.44e-07  Convergence criterion met
 Total energy in the final basis set =     -517.2086472836
   11    -517.2084490191      3.49e-07  Convergence criterion met
 Total energy in the final basis set =     -517.2084490191

             Standard Nuclear Orientation (Angstroms)
    I     Atom           X                Y                Z
 ----------------------------------------------------------------
    1      S       2.1709102931    -0.1022793079     0.2544315593
    2      C      -0.6014812842     0.4582282218     0.0447120012
    3      C       0.4478484566    -0.6552125826     0.0819994504
    4      C      -2.0302175875    -0.0929185802    -0.0138225599
    5      H      -0.4741902432     1.1045717666     0.9197852011
    6      H      -0.4001169250     1.0831135942    -0.8350861411
    7      H       0.3048030254    -1.2782647308     0.9802877533
    8      H       0.3544881868    -1.3195943051    -0.7822082574
    9      H      -2.2700994297    -0.6811409172     0.8788747165
   10      H      -2.7599393657     0.7198926629    -0.0812222023
   11      H      -2.1724285076    -0.7399417038    -0.8866331981
   12      H       2.1430223811     1.4073478823    -1.7381163229
 ----------------------------------------------------------------

   11    -517.2084498834      3.50e-07  Convergence criterion met
 Total energy in the final basis set =     -517.2084498834

                    Orbital Energies (a.u.)
 --------------------------------------------------------------

 Alpha MOs
 -- Occupied --
-88.905 -10.226 -10.195 -10.185  -7.961  -5.928  -5.923  -5.914
 -0.811  -0.736  -0.637  -0.587  -0.479  -0.431  -0.408  -0.407
 -0.357  -0.344  -0.339  -0.281  -0.238

 Beta MOs
 -- Occupied --
-88.905 -10.226 -10.195 -10.185  -7.961  -5.928  -5.923  -5.914
 -0.811  -0.736  -0.637  -0.587  -0.479  -0.431  -0.408  -0.407
 -0.357  -0.344  -0.339  -0.281  -0.238

          Ground-State Mulliken Net Atomic Charges

     Atom                 Charge (a.u.)    Spin (a.u.)
  --------------------------------------------------------
      1 S                    -0.023886       0.000000
      2 C                    -0.162027      -0.000000
      3 C                    -0.339087       0.000000
      4 C                    -0.324086      -0.000000
      5 H                     0.117166       0.000000
      6 H                     0.109314       0.000000
      7 H                     0.145746       0.000000
      8 H                     0.145691      -0.000000
      9 H                     0.106768       0.000000
     10 H                     0.112402      -0.000000
     11 H                     0.107469       0.000000
     12 H                     0.004529      -0.000000
  --------------------------------------------------------
  Sum of atomic charges =    -0.000000

                    Cartesian Multipole Moments
 -----------------------------------------------------------------
    Charge (ESU x 10^10)
                 0.0000
    Dipole Moment (Debye)
         X      -1.9767      Y      -0.4800      Z      -0.0609
       Tot       2.0351
    Quadrupole Moments (Debye-Ang)
        XX     -39.3177     XY       0.0109     YY     -34.2353
        XZ      -0.2288     YZ      -1.6401     ZZ     -33.5753

 Final energy is   -517.208449883436
 **  OPTIMIZATION CONVERGED  **
 Total job time:  13.51s(wall), 154.46s(cpu)
        *  Thank you very much for using Q-Chem.  Have a nice day.  *
