 Q-Chem 5.1, Q-Chem, Inc., Pleasanton, CA (2018)
 Q-Chem 5.1.1 for Intel X86 EM64T Linux

User input:
--------------------------------------------------------------

$comment
potential surface scanner
$end

$rem
JOBTYPE  PES_SCAN
UNRESTRICTED TRUE
SYM_IGNORE  TRUE
GEOM_OPT_MAX_CYCLES 400
SCF_MAX_CYCLES 400
METHOD   B3LYP
BASIS   6-31G**
PDB_PRINT 2
SCF_CONVERGENCE 6
THRESH 14
SCF_PRINT 1
$end
$molecule
0 3
S 1.308733 -0.154518 -1.741461
C -0.988265 -0.096068 -0.108478
C 0.260240 -0.819377 -0.548373
C -1.987358 -1.041597 0.570979
H -1.463613 0.383307 -0.973524
H 2.193634 3.502334 -0.603370
H -0.729855 0.723651 0.583513
H 0.729270 -1.524209 0.138975
H -2.868315 -0.490032 0.914195
H -2.319176 -1.824606 -0.117189
H -1.536327 -1.529311 1.441927
H 2.113632 2.774228 -0.734193
$end
$scan
stre 1 12 3.100000 3.101000 0.100000
$end
--------------------------------------------------------------

   11    -517.2184511077      4.57e-07  Convergence criterion met
 Total energy in the final basis set =     -517.2184511077
   11    -517.2183833434      4.44e-07  Convergence criterion met
 Total energy in the final basis set =     -517.2183833434
   11    -517.2183820576      4.45e-07  Convergence criterion met
 Total energy in the final basis set =     -517.2183820576

             Standard Nuclear Orientation (Angstroms)
    I     Atom           X                Y                Z
 ----------------------------------------------------------------
    1      S       1.3202291996    -0.1245948877    -1.7315036654
    2      C      -0.9826571066    -0.0836552147    -0.1063241731
    3      C       0.2693023725    -0.8008135470    -0.5467427891
    4      C      -1.9800631473    -1.0353523152     0.5669105454
    5      H      -1.4575626270     0.3986780183    -0.9699316487
    6      H       2.1545198329     3.4405983304    -0.6013932832
    7      H      -0.7282916171     0.7331773863     0.5904855297
    8      H       0.7387790344    -1.5072762205     0.1386435765
    9      H      -2.8635355229    -0.4880335779     0.9104917973
   10      H      -2.3080879156    -1.8168407481    -0.1248190952
   11      H      -1.5292313389    -1.5248269167     1.4369790779
   12      H       2.0791988359     2.7127416928    -0.7397948720
 ----------------------------------------------------------------

   11    -517.2183825358      4.46e-07  Convergence criterion met
 Total energy in the final basis set =     -517.2183825358

                    Orbital Energies (a.u.)
 --------------------------------------------------------------

 Alpha MOs
 -- Occupied --
-88.910 -10.214 -10.204 -10.184  -7.971  -5.941  -5.931  -5.926
 -0.818  -0.752  -0.644  -0.574  -0.462  -0.436  -0.423  -0.422
 -0.372  -0.364  -0.350  -0.310  -0.295  -0.171

 Beta MOs
 -- Occupied --
-88.904 -10.203 -10.202 -10.183  -7.964  -5.927  -5.923  -5.919
 -0.796  -0.731  -0.629  -0.547  -0.452  -0.428  -0.422  -0.407
 -0.363  -0.355  -0.340  -0.271

          Ground-State Mulliken Net Atomic Charges

     Atom                 Charge (a.u.)    Spin (a.u.)
  --------------------------------------------------------
      1 S                     0.088657       1.110050
      2 C                    -0.184422      -0.020166
      3 C                    -0.279816       0.829655
      4 C                    -0.316141       0.014070
      5 H                     0.113509       0.009276
      6 H                    -0.019351       0.004186
      7 H                     0.116877       0.049658
      8 H                     0.135862       0.000817
      9 H                     0.107006       0.002734
     10 H                     0.118035       0.001502
     11 H                     0.107695      -0.001077
     12 H                     0.012089      -0.000707
  --------------------------------------------------------
  Sum of atomic charges =     0.000000

                    Cartesian Multipole Moments
 -----------------------------------------------------------------
    Charge (ESU x 10^10)
                -0.0000
    Dipole Moment (Debye)
         X      -0.7974      Y      -0.2223      Z       0.9806
       Tot       1.2833
    Quadrupole Moments (Debye-Ang)
        XX     -34.3753     XY      -1.4596     YY     -34.7513
        XZ       0.8602     YZ      -1.3306     ZZ     -36.4997

 Final energy is   -517.218382535787
 **  OPTIMIZATION CONVERGED  **
 Total job time:  13.85s(wall), 155.57s(cpu)
        *  Thank you very much for using Q-Chem.  Have a nice day.  *
