 Q-Chem 5.1, Q-Chem, Inc., Pleasanton, CA (2018)
 Q-Chem 5.1.1 for Intel X86 EM64T Linux

User input:
--------------------------------------------------------------

$comment
potential surface scanner
$end

$rem
JOBTYPE  PES_SCAN
UNRESTRICTED TRUE
SYM_IGNORE  TRUE
GEOM_OPT_MAX_CYCLES 400
SCF_MAX_CYCLES 400
METHOD   B3LYP
BASIS   6-31G**
PDB_PRINT 2
SCF_CONVERGENCE 6
THRESH 14
SCF_PRINT 1
$end
$molecule
0 1
S 1.621259 -0.124698 0.452284
C -1.120118 -0.012879 0.527033
C -0.039969 -0.687620 0.125340
C -2.527919 -0.377951 0.155206
H -0.990306 0.867355 1.155024
H 2.227684 2.565666 -2.203232
H 2.172808 -1.332965 0.685138
H -0.128442 -1.569706 -0.504364
H -3.144790 -0.528366 1.049718
H -3.003558 0.422946 -0.424891
H -2.563316 -1.292937 -0.442975
H 2.209267 1.974956 -1.751280
$end
$scan
stre 1 12 3.200000 3.201000 0.100000
$end
--------------------------------------------------------------

    9    -517.2847527075      8.51e-07  Convergence criterion met
 Total energy in the final basis set =     -517.2847527075
    9    -517.2848156241      8.51e-07  Convergence criterion met
 Total energy in the final basis set =     -517.2848156241
    9    -517.2848172563      8.51e-07  Convergence criterion met
 Total energy in the final basis set =     -517.2848172563
    9    -517.2848200325      8.50e-07  Convergence criterion met
 Total energy in the final basis set =     -517.2848200325
    9    -517.2848230651      8.49e-07  Convergence criterion met
 Total energy in the final basis set =     -517.2848230651
    9    -517.2848302410      8.46e-07  Convergence criterion met
 Total energy in the final basis set =     -517.2848302410
    9    -517.2848394356      8.42e-07  Convergence criterion met
 Total energy in the final basis set =     -517.2848394356
    9    -517.2848467590      8.39e-07  Convergence criterion met
    9    -517.2848565357      8.40e-07  Convergence criterion met
 Total energy in the final basis set =     -517.2848565357
    9    -517.2848634203      8.42e-07  Convergence criterion met
 Total energy in the final basis set =     -517.2848634203
    9    -517.2848823920      8.44e-07  Convergence criterion met
 Total energy in the final basis set =     -517.2848823920
    9    -517.2849231182      8.51e-07  Convergence criterion met
 Total energy in the final basis set =     -517.2849231182
    9    -517.2849342341      8.53e-07  Convergence criterion met
 Total energy in the final basis set =     -517.2849342341
    9    -517.2849419656      8.52e-07  Convergence criterion met
 Total energy in the final basis set =     -517.2849419656

             Standard Nuclear Orientation (Angstroms)
    I     Atom           X                Y                Z
 ----------------------------------------------------------------
    1      S       1.4633258112     0.1697745948     0.5166374873
    2      C      -1.2664011021    -0.0744393203     0.6638325410
    3      C      -0.1356172732    -0.5027097270     0.0969835462
    4      C      -2.6392013524    -0.5109324455     0.2428137864
    5      H      -1.2082909461     0.6460830027     1.4788613745
    6      H       2.8583003573     2.3611638270    -2.4411953763
    7      H       2.1544069513    -0.9878110506     0.4813252401
    8      H      -0.1500749208    -1.2209756798    -0.7194651625
    9      H      -3.1947226578    -0.9326526625     1.0894133995
   10      H      -3.2271467155     0.3387600402    -0.1269729007
   11      H      -2.5999190053    -1.2634879126    -0.5500704699
   12      H       2.6579408534     1.8810283335    -1.9091624657
 ----------------------------------------------------------------

    9    -517.2849423546      8.51e-07  Convergence criterion met
 Total energy in the final basis set =     -517.2849423546

                    Orbital Energies (a.u.)
 --------------------------------------------------------------

 Alpha MOs
 -- Occupied --
-88.884 -10.215 -10.198 -10.190  -7.946  -5.911  -5.907  -5.901
 -0.813  -0.747  -0.662  -0.556  -0.465  -0.442  -0.418  -0.417
 -0.390  -0.371  -0.337  -0.291  -0.224

 Beta MOs
 -- Occupied --
-88.884 -10.215 -10.198 -10.190  -7.946  -5.911  -5.907  -5.901
 -0.813  -0.747  -0.662  -0.556  -0.465  -0.442  -0.418  -0.417
 -0.390  -0.371  -0.337  -0.291  -0.224

          Ground-State Mulliken Net Atomic Charges

     Atom                 Charge (a.u.)    Spin (a.u.)
  --------------------------------------------------------
      1 S                    -0.006230      -0.000000
      2 C                    -0.029582       0.000000
      3 C                    -0.246132      -0.000000
      4 C                    -0.351535      -0.000000
      5 H                     0.102712      -0.000000
      6 H                    -0.026229       0.000000
      7 H                     0.060720      -0.000000
      8 H                     0.119146       0.000000
      9 H                     0.121327       0.000000
     10 H                     0.123708       0.000000
     11 H                     0.112016       0.000000
     12 H                     0.020079      -0.000000
  --------------------------------------------------------
  Sum of atomic charges =    -0.000000

                    Cartesian Multipole Moments
 -----------------------------------------------------------------
    Charge (ESU x 10^10)
                 0.0000
    Dipole Moment (Debye)
         X      -1.1379      Y      -1.2452      Z      -0.1253
       Tot       1.6914
    Quadrupole Moments (Debye-Ang)
        XX     -31.6921     XY      -2.5421     YY     -33.9024
        XZ      -0.3037     YZ       1.0562     ZZ     -35.9408

 Final energy is   -517.284942354636
 **  OPTIMIZATION CONVERGED  **
 Total job time:  45.70s(wall), 527.39s(cpu)
        *  Thank you very much for using Q-Chem.  Have a nice day.  *
