 Q-Chem 5.1, Q-Chem, Inc., Pleasanton, CA (2018)
 Q-Chem 5.1.1 for Intel X86 EM64T Linux

User input:
--------------------------------------------------------------

$comment
potential surface scanner
$end

$rem
JOBTYPE  PES_SCAN
UNRESTRICTED TRUE
SYM_IGNORE  TRUE
GEOM_OPT_MAX_CYCLES 400
SCF_MAX_CYCLES 400
METHOD   B3LYP
BASIS   6-31G**
PDB_PRINT 2
SCF_CONVERGENCE 6
THRESH 14
SCF_PRINT 1
$end
$molecule
0 3
S 1.910103 0.219929 -1.019435
C -0.706196 0.131484 0.162404
C 0.472839 -0.572647 -0.445856
C -1.892251 -0.817033 0.376512
H -1.014436 0.965006 -0.483023
H 0.975132 2.472638 -0.974873
H -0.429102 0.590351 1.127698
H 0.644676 -1.620528 -0.203119
H -2.739826 -0.286593 0.821368
H -2.221908 -1.253536 -0.571169
H -1.621651 -1.638345 1.048680
H 1.335219 1.713080 -1.016188
$end
$scan
stre 1 12 1.500000 1.501000 0.100000
$end
--------------------------------------------------------------

   11    -517.1944680441      3.67e-07  Convergence criterion met
 Total energy in the final basis set =     -517.1944680441
   11    -517.1877499102      3.50e-07  Convergence criterion met
 Total energy in the final basis set =     -517.1877499102
   10    -517.1881053925      9.90e-07  Convergence criterion met
 Total energy in the final basis set =     -517.1881053925
   10    -517.1883884921      9.65e-07  Convergence criterion met
 Total energy in the final basis set =     -517.1883884921
   10    -517.1884038416      9.59e-07  Convergence criterion met
 Total energy in the final basis set =     -517.1884038416
   10    -517.1884054541      9.58e-07  Convergence criterion met
 Total energy in the final basis set =     -517.1884054541
   10    -517.1884071586      9.59e-07  Convergence criterion met
 Total energy in the final basis set =     -517.1884071586
   10    -517.1884098548      9.63e-07  Convergence criterion met
 Total energy in the final basis set =     -517.1884098548
   10    -517.1884118937      9.68e-07  Convergence criterion met
 Total energy in the final basis set =     -517.1884118937
   10    -517.1884130074      9.72e-07  Convergence criterion met
 Total energy in the final basis set =     -517.1884130074

             Standard Nuclear Orientation (Angstroms)
    I     Atom           X                Y                Z
 ----------------------------------------------------------------
    1      S       1.9170633339     0.2566201051    -0.9897958920
    2      C      -0.7055282119     0.1378867828     0.1759787624
    3      C       0.4769230618    -0.5539356385    -0.4369214356
    4      C      -1.8917459902    -0.8144540676     0.3717339637
    5      H      -1.0128447974     0.9811850823    -0.4574666027
    6      H       0.9484519328     2.4512515887    -1.0027893661
    7      H      -0.4324295318     0.5829799663     1.1489909725
    8      H       0.6513659383    -1.6051649739    -0.2148718952
    9      H      -2.7394131444    -0.2928961092     0.8267330210
   10      H      -2.2214519269    -1.2325829833    -0.5842212530
   11      H      -1.6211012236    -1.6486453085     1.0278062432
   12      H       1.3433095592     1.6415615557    -1.0421775181
 ----------------------------------------------------------------

   10    -517.1884135747      9.73e-07  Convergence criterion met
 Total energy in the final basis set =     -517.1884135747

                    Orbital Energies (a.u.)
 --------------------------------------------------------------

 Alpha MOs
 -- Occupied --
-88.895 -10.213 -10.200 -10.182  -7.958  -5.926  -5.918  -5.913
 -0.817  -0.755  -0.649  -0.590  -0.488  -0.456  -0.423  -0.419
 -0.367  -0.361  -0.343  -0.304  -0.255  -0.170

 Beta MOs
 -- Occupied --
-88.891 -10.200 -10.200 -10.182  -7.953  -5.916  -5.913  -5.908
 -0.797  -0.741  -0.636  -0.568  -0.459  -0.448  -0.410  -0.406
 -0.359  -0.354  -0.332  -0.271

          Ground-State Mulliken Net Atomic Charges

     Atom                 Charge (a.u.)    Spin (a.u.)
  --------------------------------------------------------
      1 S                     0.115424       0.701357
      2 C                    -0.181399      -0.038608
      3 C                    -0.268996       0.870938
      4 C                    -0.321243       0.003240
      5 H                     0.108288       0.016817
      6 H                     0.043820       0.513203
      7 H                     0.112872       0.052420
      8 H                     0.132039      -0.015113
      9 H                     0.106226      -0.000103
     10 H                     0.116038       0.001535
     11 H                     0.108608       0.000130
     12 H                    -0.071675      -0.105816
  --------------------------------------------------------
  Sum of atomic charges =    -0.000000

                    Cartesian Multipole Moments
 -----------------------------------------------------------------
    Charge (ESU x 10^10)
                -0.0000
    Dipole Moment (Debye)
         X      -1.1034      Y       0.2119      Z       0.6356
       Tot       1.2909
    Quadrupole Moments (Debye-Ang)
        XX     -36.6597     XY      -0.0342     YY     -32.2225
        XZ       0.4119     YZ      -0.9931     ZZ     -36.6529

 Final energy is   -517.188413574720
 **  OPTIMIZATION CONVERGED  **
 Total job time:  37.11s(wall), 421.51s(cpu)
        *  Thank you very much for using Q-Chem.  Have a nice day.  *
