 Q-Chem 5.1, Q-Chem, Inc., Pleasanton, CA (2018)
 Q-Chem 5.1.1 for Intel X86 EM64T Linux

User input:
--------------------------------------------------------------

$comment
potential surface scanner
$end

$rem
JOBTYPE  PES_SCAN
UNRESTRICTED TRUE
SYM_IGNORE  TRUE
GEOM_OPT_MAX_CYCLES 400
SCF_MAX_CYCLES 400
METHOD   B3LYP
BASIS   6-31G**
PDB_PRINT 2
SCF_CONVERGENCE 6
THRESH 14
SCF_PRINT 1
$end
$molecule
0 1
S 1.463326 0.169775 0.516637
C -1.266401 -0.074439 0.663833
C -0.135617 -0.502710 0.096984
C -2.639201 -0.510932 0.242814
H -1.208291 0.646083 1.478861
H 2.858300 2.361164 -2.441195
H 2.154407 -0.987811 0.481325
H -0.150075 -1.220976 -0.719465
H -3.194723 -0.932653 1.089413
H -3.227147 0.338760 -0.126973
H -2.599919 -1.263488 -0.550070
H 2.657941 1.881028 -1.909162
$end
$scan
stre 1 12 3.300000 3.301000 0.100000
$end
--------------------------------------------------------------

    9    -517.2849423538      8.51e-07  Convergence criterion met
 Total energy in the final basis set =     -517.2849423538
    9    -517.2849697044      8.51e-07  Convergence criterion met
 Total energy in the final basis set =     -517.2849697044

             Standard Nuclear Orientation (Angstroms)
    I     Atom           X                Y                Z
 ----------------------------------------------------------------
    1      S       1.4556051133     0.1536340498     0.5372190755
    2      C      -1.2753648417    -0.0833955256     0.6734142307
    3      C      -0.1436244904    -0.5131389224     0.1095617585
    4      C      -2.6478162109    -0.5145746017     0.2457312969
    5      H      -1.2183506810     0.6346046906     1.4907381467
    6      H       2.9034086017     2.4028281707    -2.4857369277
    7      H       2.1437401334    -1.0056780906     0.5011403474
    8      H      -0.1571133168    -1.2287334930    -0.7092488340
    9      H      -3.2077917222    -0.9374064121     1.0888385821
   10      H      -3.2318785176     0.3379848205    -0.1235952092
   11      H      -2.6076132249    -1.2647108895    -0.5493919524
   12      H       2.6993991571     1.9223872034    -1.9556685144
 ----------------------------------------------------------------

    9    -517.2849702295      8.51e-07  Convergence criterion met
 Total energy in the final basis set =     -517.2849702295

                    Orbital Energies (a.u.)
 --------------------------------------------------------------

 Alpha MOs
 -- Occupied --
-88.884 -10.215 -10.198 -10.190  -7.946  -5.911  -5.907  -5.901
 -0.813  -0.747  -0.662  -0.556  -0.465  -0.442  -0.418  -0.417
 -0.390  -0.371  -0.337  -0.291  -0.224

 Beta MOs
 -- Occupied --
-88.884 -10.215 -10.198 -10.190  -7.946  -5.911  -5.907  -5.901
 -0.813  -0.747  -0.662  -0.556  -0.465  -0.442  -0.418  -0.417
 -0.390  -0.371  -0.337  -0.291  -0.224

          Ground-State Mulliken Net Atomic Charges

     Atom                 Charge (a.u.)    Spin (a.u.)
  --------------------------------------------------------
      1 S                    -0.006567       0.000000
      2 C                    -0.029577      -0.000000
      3 C                    -0.246308       0.000000
      4 C                    -0.351513       0.000000
      5 H                     0.102657       0.000000
      6 H                    -0.024431       0.000000
      7 H                     0.060513       0.000000
      8 H                     0.119063       0.000000
      9 H                     0.121295      -0.000000
     10 H                     0.123659      -0.000000
     11 H                     0.111986      -0.000000
     12 H                     0.019223      -0.000000
  --------------------------------------------------------
  Sum of atomic charges =    -0.000000

                    Cartesian Multipole Moments
 -----------------------------------------------------------------
    Charge (ESU x 10^10)
                 0.0000
    Dipole Moment (Debye)
         X      -1.1323      Y      -1.2320      Z      -0.1441
       Tot       1.6795
    Quadrupole Moments (Debye-Ang)
        XX     -31.6702     XY      -2.5059     YY     -33.8495
        XZ      -0.3356     YZ       1.0147     ZZ     -35.9211

 Final energy is   -517.284970229531
 **  OPTIMIZATION CONVERGED  **
 Total job time:  9.35s(wall), 102.19s(cpu)
        *  Thank you very much for using Q-Chem.  Have a nice day.  *
