 Q-Chem 5.1, Q-Chem, Inc., Pleasanton, CA (2018)
 Q-Chem 5.1.1 for Intel X86 EM64T Linux

User input:
--------------------------------------------------------------

$comment
potential surface scanner
$end

$rem
JOBTYPE  PES_SCAN
UNRESTRICTED TRUE
SYM_IGNORE  TRUE
GEOM_OPT_MAX_CYCLES 400
SCF_MAX_CYCLES 400
METHOD   B3LYP
BASIS   6-31G**
PDB_PRINT 2
SCF_CONVERGENCE 6
THRESH 14
SCF_PRINT 1
$end
$molecule
0 3
S 2.040921 -0.116722 -0.146726
C -0.669362 -0.221151 0.624630
C 0.481789 -0.846733 -0.123538
C -2.022685 -0.770522 0.153544
H -0.647463 0.867888 0.490750
H 1.443197 2.688304 -1.694019
H -0.562507 -0.392677 1.709156
H 0.471642 -1.921264 -0.308022
H -2.841646 -0.311451 0.716256
H -2.180455 -0.567745 -0.909693
H -2.080654 -1.854279 0.301708
H 1.279824 3.350152 -1.991047
$end
$scan
stre 1 12 3.900000 3.901000 0.100000
$end
--------------------------------------------------------------

   11    -517.2182802282      3.53e-07  Convergence criterion met
 Total energy in the final basis set =     -517.2182802282
   11    -517.2163225107      3.81e-07  Convergence criterion met
 Total energy in the final basis set =     -517.2163225107
   11    -517.2172733378      3.76e-07  Convergence criterion met
 Total energy in the final basis set =     -517.2172733378
   11    -517.2182266584      3.62e-07  Convergence criterion met
 Total energy in the final basis set =     -517.2182266584
   11    -517.2182510031      3.59e-07  Convergence criterion met
 Total energy in the final basis set =     -517.2182510031
   11    -517.2182527796      3.59e-07  Convergence criterion met
 Total energy in the final basis set =     -517.2182527796
   11    -517.2182547808      3.58e-07  Convergence criterion met
 Total energy in the final basis set =     -517.2182547808
   11    -517.2182566212      3.58e-07  Convergence criterion met
   11    -517.2182885872      3.89e-07  Convergence criterion met
 Total energy in the final basis set =     -517.2182885872
   11    -517.2182999532      3.98e-07  Convergence criterion met
 Total energy in the final basis set =     -517.2182999532
   11    -517.2183122567      4.06e-07  Convergence criterion met
 Total energy in the final basis set =     -517.2183122567
   11    -517.2183224133      4.11e-07  Convergence criterion met
 Total energy in the final basis set =     -517.2183224133
   11    -517.2183290739      4.17e-07  Convergence criterion met
 Total energy in the final basis set =     -517.2183290739
   11    -517.2183319958      4.21e-07  Convergence criterion met
 Total energy in the final basis set =     -517.2183319958

             Standard Nuclear Orientation (Angstroms)
    I     Atom           X                Y                Z
 ----------------------------------------------------------------
    1      S       1.9589274347     0.0733090924    -0.1184564732
    2      C      -0.7182456577    -0.2691876460     0.7099402578
    3      C       0.4525164280    -0.7608882026    -0.1046080964
    4      C      -2.0519129138    -0.8024597682     0.1684239419
    5      H      -0.7343667965     0.8277482417     0.7135078345
    6      H       1.5925395730     2.6745142308    -1.9143973601
    7      H      -0.6038226146    -0.5713049115     1.7646483974
    8      H       0.5120278431    -1.8211571022    -0.3526862225
    9      H      -2.8866394084    -0.4568778073     0.7868211024
   10      H      -2.2208539612    -0.4652644576    -0.8581624806
   11      H      -2.0661357059    -1.8977755275     0.1688845385
   12      H       1.4785667793     3.3731438581    -2.1409164400
 ----------------------------------------------------------------

   11    -517.2183329784      4.21e-07  Convergence criterion met
 Total energy in the final basis set =     -517.2183329784

                    Orbital Energies (a.u.)
 --------------------------------------------------------------

 Alpha MOs
 -- Occupied --
-88.910 -10.214 -10.203 -10.183  -7.970  -5.941  -5.930  -5.926
 -0.818  -0.751  -0.644  -0.574  -0.462  -0.436  -0.424  -0.420
 -0.373  -0.364  -0.349  -0.310  -0.294  -0.170

 Beta MOs
 -- Occupied --
-88.904 -10.203 -10.202 -10.183  -7.964  -5.927  -5.923  -5.919
 -0.795  -0.731  -0.629  -0.546  -0.452  -0.428  -0.422  -0.406
 -0.363  -0.355  -0.340  -0.271

          Ground-State Mulliken Net Atomic Charges

     Atom                 Charge (a.u.)    Spin (a.u.)
  --------------------------------------------------------
      1 S                     0.087640       1.111303
      2 C                    -0.183889      -0.020218
      3 C                    -0.280248       0.830624
      4 C                    -0.314974       0.015063
      5 H                     0.113266       0.007585
      6 H                     0.013293      -0.001027
      7 H                     0.115659       0.049057
      8 H                     0.135557       0.000617
      9 H                     0.106435       0.003407
     10 H                     0.118430       0.001634
     11 H                     0.107350      -0.001133
     12 H                    -0.018518       0.003087
  --------------------------------------------------------
  Sum of atomic charges =    -0.000000

                    Cartesian Multipole Moments
 -----------------------------------------------------------------
    Charge (ESU x 10^10)
                 0.0000
    Dipole Moment (Debye)
         X      -1.0482      Y      -0.6402      Z       0.5029
       Tot       1.3273
    Quadrupole Moments (Debye-Ang)
        XX     -35.6544     XY      -0.7206     YY     -32.9185
        XZ      -0.6024     YZ       0.9664     ZZ     -35.8894

 Final energy is   -517.218332978372
 **  OPTIMIZATION CONVERGED  **
 Total job time:  68.64s(wall), 797.50s(cpu)
        *  Thank you very much for using Q-Chem.  Have a nice day.  *
