 Q-Chem 5.1, Q-Chem, Inc., Pleasanton, CA (2018)
 Q-Chem 5.1.1 for Intel X86 EM64T Linux

User input:
--------------------------------------------------------------

$comment
potential surface scanner
$end

$rem
JOBTYPE  PES_SCAN
UNRESTRICTED TRUE
SYM_IGNORE  TRUE
GEOM_OPT_MAX_CYCLES 400
SCF_MAX_CYCLES 400
METHOD   B3LYP
BASIS   6-31G**
PDB_PRINT 2
SCF_CONVERGENCE 6
THRESH 14
SCF_PRINT 1
$end
$molecule
0 3
S 1.370856 -0.086394 -1.695074
C -0.951895 -0.057375 -0.097540
C 0.292816 -0.782229 -0.546270
C -1.962941 -1.008488 0.555861
H -1.417739 0.445958 -0.954063
H 2.021118 3.318612 -0.597114
H -0.690258 0.743702 0.614593
H 0.744053 -1.514049 0.124761
H -2.841505 -0.456613 0.904633
H -2.296990 -1.775007 -0.149589
H -1.521162 -1.516638 1.419809
H 1.966245 2.592326 -0.757005
$end
$scan
stre 1 12 2.800000 2.801000 0.100000
$end
--------------------------------------------------------------

   11    -517.2180853331      4.21e-07  Convergence criterion met
 Total energy in the final basis set =     -517.2180853331
   11    -517.2177985619      3.87e-07  Convergence criterion met
 Total energy in the final basis set =     -517.2177985619
   11    -517.2177937098      3.87e-07  Convergence criterion met
 Total energy in the final basis set =     -517.2177937098
   11    -517.2177974388      3.89e-07  Convergence criterion met
 Total energy in the final basis set =     -517.2177974388
   11    -517.2178020284      3.93e-07  Convergence criterion met
 Total energy in the final basis set =     -517.2178020284
   11    -517.2178065288      3.97e-07  Convergence criterion met
 Total energy in the final basis set =     -517.2178065288
   11    -517.2178085486      3.98e-07  Convergence criterion met
 Total energy in the final basis set =     -517.2178085486

             Standard Nuclear Orientation (Angstroms)
    I     Atom           X                Y                Z
 ----------------------------------------------------------------
    1      S       1.4297540529    -0.0774927615    -1.6376593033
    2      C      -0.9201741684    -0.0446496884    -0.0775495280
    3      C       0.3099876580    -0.7863120366    -0.5379149373
    4      C      -1.9573801894    -0.9895609567     0.5432732202
    5      H      -1.3682031449     0.4924202908    -0.9230560705
    6      H       1.9159209091     3.2797392645    -0.6345221331
    7      H      -0.6458182295     0.7306769974     0.6580496652
    8      H       0.7250093183    -1.5644535874     0.1036290475
    9      H      -2.8248325761    -0.4270041149     0.9025407583
   10      H      -2.3048907993    -1.7282090730    -0.1850280459
   11      H      -1.5326120014    -1.5312522737     1.3952124141
   12      H       1.8858371708     2.5499029395    -0.7839730872
 ----------------------------------------------------------------

   11    -517.2178093633      3.99e-07  Convergence criterion met
 Total energy in the final basis set =     -517.2178093633

                    Orbital Energies (a.u.)
 --------------------------------------------------------------

 Alpha MOs
 -- Occupied --
-88.911 -10.215 -10.204 -10.184  -7.971  -5.941  -5.931  -5.926
 -0.818  -0.752  -0.644  -0.575  -0.462  -0.437  -0.424  -0.423
 -0.372  -0.364  -0.350  -0.309  -0.295  -0.171

 Beta MOs
 -- Occupied --
-88.904 -10.203 -10.202 -10.184  -7.964  -5.927  -5.923  -5.919
 -0.796  -0.732  -0.629  -0.547  -0.452  -0.429  -0.421  -0.408
 -0.363  -0.355  -0.341  -0.271

          Ground-State Mulliken Net Atomic Charges

     Atom                 Charge (a.u.)    Spin (a.u.)
  --------------------------------------------------------
      1 S                     0.090767       1.106751
      2 C                    -0.184303      -0.020482
      3 C                    -0.279295       0.829231
      4 C                    -0.317193       0.013290
      5 H                     0.114231       0.010742
      6 H                    -0.018860       0.009556
      7 H                     0.117298       0.049588
      8 H                     0.136025       0.001203
      9 H                     0.107327       0.002257
     10 H                     0.118047       0.001444
     11 H                     0.107847      -0.001032
     12 H                     0.008107      -0.002549
  --------------------------------------------------------
  Sum of atomic charges =     0.000000

                    Cartesian Multipole Moments
 -----------------------------------------------------------------
    Charge (ESU x 10^10)
                -0.0000
    Dipole Moment (Debye)
         X      -0.8264      Y      -0.2814      Z       0.9578
       Tot       1.2960
    Quadrupole Moments (Debye-Ang)
        XX     -34.5999     XY      -1.5150     YY     -34.4913
        XZ       0.7555     YZ      -1.2465     ZZ     -36.5633

 Final energy is   -517.217809363315
 **  OPTIMIZATION CONVERGED  **
 Total job time:  27.15s(wall), 310.60s(cpu)
        *  Thank you very much for using Q-Chem.  Have a nice day.  *
