 Q-Chem 5.1, Q-Chem, Inc., Pleasanton, CA (2018)
 Q-Chem 5.1.1 for Intel X86 EM64T Linux

User input:
--------------------------------------------------------------

$comment
potential surface scanner
$end

$rem
JOBTYPE  PES_SCAN
UNRESTRICTED TRUE
SYM_IGNORE  TRUE
GEOM_OPT_MAX_CYCLES 400
SCF_MAX_CYCLES 400
METHOD   B3LYP
BASIS   6-31G**
PDB_PRINT 2
SCF_CONVERGENCE 6
THRESH 14
SCF_PRINT 1
$end
$molecule
0 3
S 1.951216 0.147746 -0.185357
C -0.710666 -0.228101 0.679295
C 0.457901 -0.708609 -0.144367
C -2.041267 -0.795986 0.166036
H -0.748369 0.868207 0.667054
H 1.561982 2.506102 -1.834970
H -0.575880 -0.512155 1.736806
H 0.528327 -1.768782 -0.389886
H -2.873213 -0.457730 0.792104
H -2.232896 -0.477736 -0.862656
H -2.032815 -1.891173 0.183024
H 1.428278 3.222015 -1.984081
$end
$scan
stre 1 12 3.500000 3.501000 0.100000
$end
--------------------------------------------------------------

   11    -517.2179380187      5.33e-07  Convergence criterion met
 Total energy in the final basis set =     -517.2179380187
   11    -517.2161818978      6.09e-07  Convergence criterion met
 Total energy in the final basis set =     -517.2161818978
   11    -517.2173247198      6.06e-07  Convergence criterion met
 Total energy in the final basis set =     -517.2173247198
   11    -517.2176379632      6.02e-07  Convergence criterion met
 Total energy in the final basis set =     -517.2176379632
   11    -517.2176462876      6.01e-07  Convergence criterion met
 Total energy in the final basis set =     -517.2176462876
   11    -517.2176496736      5.99e-07  Convergence criterion met
 Total energy in the final basis set =     -517.2176496736
   11    -517.2176651211      5.86e-07  Convergence criterion met
 Total energy in the final basis set =     -517.2176651211
   11    -517.2176902484      5.54e-07  Convergence criterion met
 Total energy in the final basis set =     -517.2176902484
   11    -517.2177161751      5.05e-07  Convergence criterion met
 Total energy in the final basis set =     -517.2177161751
   11    -517.2177355138      4.87e-07  Convergence criterion met
 Total energy in the final basis set =     -517.2177355138
   11    -517.2177422287      4.84e-07  Convergence criterion met
 Total energy in the final basis set =     -517.2177422287

             Standard Nuclear Orientation (Angstroms)
    I     Atom           X                Y                Z
 ----------------------------------------------------------------
    1      S       1.9628244778     0.0169250264    -0.4156190492
    2      C      -0.6917387720    -0.1557903891     0.5327409701
    3      C       0.4506305947    -0.7853181757    -0.2246565115
    4      C      -2.0342671430    -0.8187150554     0.1971325132
    5      H      -0.7421066848     0.9162216584     0.3042258843
    6      H       1.5044155267     2.5275109886    -1.6374307056
    7      H      -0.5136478299    -0.2217821818     1.6196825244
    8      H       0.4984485724    -1.8726429667    -0.2957701981
    9      H      -2.8451632958    -0.3617182080     0.7732429847
   10      H      -2.2688766548    -0.7165488396    -0.8663821307
   11      H      -2.0154957618    -1.8876564387     0.4357967137
   12      H       1.4075749704     3.2633125817    -1.5999609954
 ----------------------------------------------------------------

   11    -517.2177427557      4.83e-07  Convergence criterion met
 Total energy in the final basis set =     -517.2177427557

                    Orbital Energies (a.u.)
 --------------------------------------------------------------

 Alpha MOs
 -- Occupied --
-88.910 -10.214 -10.203 -10.183  -7.970  -5.940  -5.930  -5.925
 -0.817  -0.751  -0.643  -0.574  -0.461  -0.437  -0.427  -0.422
 -0.372  -0.364  -0.349  -0.309  -0.294  -0.170

 Beta MOs
 -- Occupied --
-88.903 -10.203 -10.202 -10.183  -7.964  -5.927  -5.923  -5.919
 -0.795  -0.731  -0.629  -0.547  -0.452  -0.430  -0.423  -0.407
 -0.362  -0.355  -0.340  -0.270

          Ground-State Mulliken Net Atomic Charges

     Atom                 Charge (a.u.)    Spin (a.u.)
  --------------------------------------------------------
      1 S                     0.087773       1.106634
      2 C                    -0.183498      -0.021118
      3 C                    -0.279296       0.830337
      4 C                    -0.316698       0.013426
      5 H                     0.114554       0.009769
      6 H                     0.008880      -0.003413
      7 H                     0.115478       0.050026
      8 H                     0.135254       0.001247
      9 H                     0.106871       0.002446
     10 H                     0.118005       0.001568
     11 H                     0.107508      -0.001048
     12 H                    -0.014831       0.010126
  --------------------------------------------------------
  Sum of atomic charges =     0.000000

                    Cartesian Multipole Moments
 -----------------------------------------------------------------
    Charge (ESU x 10^10)
                -0.0000
    Dipole Moment (Debye)
         X      -1.0363      Y      -0.5326      Z       0.5858
       Tot       1.3041
    Quadrupole Moments (Debye-Ang)
        XX     -35.7147     XY      -0.7332     YY     -32.6224
        XZ      -0.3485     YZ       0.6275     ZZ     -36.2676

 Final energy is   -517.217742755655
 **  OPTIMIZATION CONVERGED  **
 Total job time:  40.72s(wall), 465.59s(cpu)
        *  Thank you very much for using Q-Chem.  Have a nice day.  *
