 Q-Chem 5.1, Q-Chem, Inc., Pleasanton, CA (2018)
 Q-Chem 5.1.1 for Intel X86 EM64T Linux

User input:
--------------------------------------------------------------

$comment
potential surface scanner
$end

$rem
JOBTYPE  PES_SCAN
UNRESTRICTED TRUE
SYM_IGNORE  TRUE
GEOM_OPT_MAX_CYCLES 400
SCF_MAX_CYCLES 400
METHOD   B3LYP
BASIS   6-31G**
PDB_PRINT 2
SCF_CONVERGENCE 6
THRESH 14
SCF_PRINT 1
$end
$molecule
0 3
S 1.865948 -0.303396 -0.671649
C -0.603128 -0.202480 0.637250
C 0.563739 -0.945944 0.062356
C -1.945676 -0.683987 0.054973
H -0.470243 0.872013 0.485439
H 1.220969 2.664528 -1.542439
H -0.603418 -0.386324 1.723218
H 0.498389 -2.035080 0.167269
H -2.776907 -0.164134 0.539683
H -1.999944 -0.484681 -1.019107
H -2.086103 -1.759160 0.207964
H 1.048974 3.332445 -1.821959
$end
$scan
stre 1 12 4.000000 4.001000 0.100000
$end
--------------------------------------------------------------

   11    -517.2123857463      3.25e-07  Convergence criterion met
 Total energy in the final basis set =     -517.2123857463
   11    -517.2131438931      3.23e-07  Convergence criterion met
 Total energy in the final basis set =     -517.2131438931
   11    -517.2162456809      3.27e-07  Convergence criterion met
 Total energy in the final basis set =     -517.2162456809
   11    -517.2168300039      3.20e-07  Convergence criterion met
 Total energy in the final basis set =     -517.2168300039
   11    -517.2172613432      3.13e-07  Convergence criterion met
 Total energy in the final basis set =     -517.2172613432
   11    -517.2173148665      3.12e-07  Convergence criterion met
 Total energy in the final basis set =     -517.2173148665
   11    -517.2173404403      3.11e-07  Convergence criterion met
 Total energy in the final basis set =     -517.2173404403
   11    -517.2173578559      3.10e-07  Convergence criterion met
   11    -517.2181107337      3.81e-07  Convergence criterion met
 Total energy in the final basis set =     -517.2181107337
   11    -517.2181969950      3.70e-07  Convergence criterion met
 Total energy in the final basis set =     -517.2181969950
   11    -517.2182535745      3.60e-07  Convergence criterion met
 Total energy in the final basis set =     -517.2182535745
   11    -517.2182722520      3.53e-07  Convergence criterion met
 Total energy in the final basis set =     -517.2182722520
   11    -517.2182771859      3.52e-07  Convergence criterion met
 Total energy in the final basis set =     -517.2182771859
   11    -517.2182792756      3.52e-07  Convergence criterion met
 Total energy in the final basis set =     -517.2182792756

             Standard Nuclear Orientation (Angstroms)
    I     Atom           X                Y                Z
 ----------------------------------------------------------------
    1      S       2.0409208393    -0.1167218728    -0.1467263567
    2      C      -0.6693623692    -0.2211507480     0.6246295691
    3      C       0.4817889390    -0.8467330578    -0.1235381649
    4      C      -2.0226845671    -0.7705220271     0.1535438790
    5      H      -0.6474628390     0.8678880626     0.4907498207
    6      H       1.4431970580     2.6883039159    -1.6940188561
    7      H      -0.5625067753    -0.3926770253     1.7091560150
    8      H       0.4716415445    -1.9212640041    -0.3080219124
    9      H      -2.8416461241    -0.3114512101     0.7162561481
   10      H      -2.1804554640    -0.5677451815    -0.9096930683
   11      H      -2.0806538816    -1.8542786260     0.3017076756
   12      H       1.2798236394     3.3501517741    -1.9910467493
 ----------------------------------------------------------------

   11    -517.2182802281      3.53e-07  Convergence criterion met
 Total energy in the final basis set =     -517.2182802281

                    Orbital Energies (a.u.)
 --------------------------------------------------------------

 Alpha MOs
 -- Occupied --
-88.910 -10.214 -10.203 -10.183  -7.970  -5.941  -5.930  -5.926
 -0.818  -0.751  -0.643  -0.574  -0.461  -0.436  -0.425  -0.422
 -0.372  -0.364  -0.350  -0.309  -0.294  -0.170

 Beta MOs
 -- Occupied --
-88.904 -10.203 -10.202 -10.183  -7.964  -5.927  -5.923  -5.919
 -0.795  -0.731  -0.629  -0.546  -0.452  -0.427  -0.424  -0.407
 -0.362  -0.355  -0.340  -0.271

          Ground-State Mulliken Net Atomic Charges

     Atom                 Charge (a.u.)    Spin (a.u.)
  --------------------------------------------------------
      1 S                     0.086680       1.110552
      2 C                    -0.183517      -0.020809
      3 C                    -0.280604       0.830935
      4 C                    -0.317035       0.013872
      5 H                     0.114129       0.010378
      6 H                     0.009673      -0.001522
      7 H                     0.115532       0.049634
      8 H                     0.135752       0.000457
      9 H                     0.107051       0.002412
     10 H                     0.118253       0.001529
     11 H                     0.107753      -0.001051
     12 H                    -0.013668       0.003613
  --------------------------------------------------------
  Sum of atomic charges =     0.000000

                    Cartesian Multipole Moments
 -----------------------------------------------------------------
    Charge (ESU x 10^10)
                -0.0000
    Dipole Moment (Debye)
         X      -1.0908      Y      -0.5185      Z       0.4829
       Tot       1.3008
    Quadrupole Moments (Debye-Ang)
        XX     -35.8162     XY      -0.5455     YY     -32.6459
        XZ      -0.4203     YZ       0.7186     ZZ     -35.9984

 Final energy is   -517.218280228113
 **  OPTIMIZATION CONVERGED  **
 Total job time:  104.41s(wall), 1158.23s(cpu)
        *  Thank you very much for using Q-Chem.  Have a nice day.  *
