 Q-Chem 5.1, Q-Chem, Inc., Pleasanton, CA (2018)
 Q-Chem 5.1.1 for Intel X86 EM64T Linux

User input:
--------------------------------------------------------------

$comment
potential surface scanner
$end

$rem
JOBTYPE  PES_SCAN
UNRESTRICTED TRUE
SYM_IGNORE  TRUE
GEOM_OPT_MAX_CYCLES 400
SCF_MAX_CYCLES 400
METHOD   B3LYP
BASIS   6-31G**
PDB_PRINT 2
SCF_CONVERGENCE 6
THRESH 14
SCF_PRINT 1
$end
$molecule
0 3
S 1.906015 0.117311 -1.023264
C -0.697516 0.092148 0.158985
C 0.468991 -0.648021 -0.438107
C -1.904615 -0.827141 0.382016
H -0.984241 0.922734 -0.498924
H 1.029035 2.640539 -1.008043
H -0.411364 0.557221 1.118155
H 0.623342 -1.692246 -0.163787
H -2.740918 -0.269932 0.815528
H -2.241117 -1.269546 -0.560441
H -1.655885 -1.644222 1.067587
H 1.320871 1.924961 -1.026703
$end
$scan
stre 1 12 1.800000 1.801000 0.100000
$end
--------------------------------------------------------------

   11    -517.2067951162      3.07e-07  Convergence criterion met
 Total energy in the final basis set =     -517.2067951162
   11    -517.2034983923      3.01e-07  Convergence criterion met
 Total energy in the final basis set =     -517.2034983923
   11    -517.2035214602      3.07e-07  Convergence criterion met
 Total energy in the final basis set =     -517.2035214602
   11    -517.2035350756      3.11e-07  Convergence criterion met
 Total energy in the final basis set =     -517.2035350756
   11    -517.2035363433      3.13e-07  Convergence criterion met
 Total energy in the final basis set =     -517.2035363433
   11    -517.2035377777      3.15e-07  Convergence criterion met
 Total energy in the final basis set =     -517.2035377777

             Standard Nuclear Orientation (Angstroms)
    I     Atom           X                Y                Z
 ----------------------------------------------------------------
    1      S       1.9117046915     0.1509602423    -1.0190700140
    2      C      -0.6995677755     0.1076763915     0.1618090557
    3      C       0.4714689814    -0.6189355224    -0.4403660455
    4      C      -1.8994092546    -0.8225244496     0.3789250240
    5      H      -0.9934930456     0.9409031196    -0.4897826777
    6      H       1.0057149123     2.5716358310    -0.9987931842
    7      H      -0.4168858775     0.5681236854     1.1244165956
    8      H       0.6303467806    -1.6652930010    -0.1779371905
    9      H      -2.7399504099    -0.2758819876     0.8175924682
   10      H      -2.2330699844    -1.2604134633    -0.5666772598
   11      H      -1.6432318327    -1.6430031938     1.0576867366
   12      H       1.3189708145     1.8505583478    -1.0248015085
 ----------------------------------------------------------------

   11    -517.2035385551      3.17e-07  Convergence criterion met
 Total energy in the final basis set =     -517.2035385551

                    Orbital Energies (a.u.)
 --------------------------------------------------------------

 Alpha MOs
 -- Occupied --
-88.900 -10.212 -10.200 -10.182  -7.962  -5.931  -5.922  -5.917
 -0.815  -0.751  -0.644  -0.581  -0.479  -0.456  -0.427  -0.421
 -0.367  -0.362  -0.345  -0.305  -0.267  -0.169

 Beta MOs
 -- Occupied --
-88.894 -10.200 -10.200 -10.182  -7.956  -5.919  -5.915  -5.911
 -0.794  -0.732  -0.630  -0.555  -0.455  -0.448  -0.415  -0.408
 -0.359  -0.354  -0.335  -0.269

          Ground-State Mulliken Net Atomic Charges

     Atom                 Charge (a.u.)    Spin (a.u.)
  --------------------------------------------------------
      1 S                     0.092947       0.940616
      2 C                    -0.179494      -0.030688
      3 C                    -0.273350       0.850577
      4 C                    -0.321151       0.004650
      5 H                     0.111421       0.017151
      6 H                     0.056702       0.234059
      7 H                     0.113032       0.051034
      8 H                     0.134061      -0.002416
      9 H                     0.106295       0.000202
     10 H                     0.116411       0.001541
     11 H                     0.108167      -0.000353
     12 H                    -0.065040      -0.066374
  --------------------------------------------------------
  Sum of atomic charges =    -0.000000

                    Cartesian Multipole Moments
 -----------------------------------------------------------------
    Charge (ESU x 10^10)
                 0.0000
    Dipole Moment (Debye)
         X      -1.0546      Y       0.1198      Z       0.7031
       Tot       1.2732
    Quadrupole Moments (Debye-Ang)
        XX     -36.2471     XY      -0.4035     YY     -32.0031
        XZ       0.3903     YZ      -0.8695     ZZ     -36.7583

 Final energy is   -517.203538555135
 **  OPTIMIZATION CONVERGED  **
 Total job time:  24.45s(wall), 280.63s(cpu)
        *  Thank you very much for using Q-Chem.  Have a nice day.  *
