 Q-Chem 5.1, Q-Chem, Inc., Pleasanton, CA (2018)
 Q-Chem 5.1.1 for Intel X86 EM64T Linux

User input:
--------------------------------------------------------------

$comment
potential surface scanner
$end

$rem
JOBTYPE  PES_SCAN
UNRESTRICTED TRUE
SYM_IGNORE  TRUE
GEOM_OPT_MAX_CYCLES 400
SCF_MAX_CYCLES 400
METHOD   B3LYP
BASIS   6-31G**
PDB_PRINT 2
SCF_CONVERGENCE 6
THRESH 14
SCF_PRINT 1
$end
$molecule
0 1
S 2.126400 0.172600 -0.001000
C -0.602600 0.507000 0.001200
C 0.472000 -0.574500 0.001000
C -1.995800 -0.105100 -0.001200
H -0.500600 1.146800 0.886100
H -0.499900 1.148900 -0.882200
H 0.380400 -1.208800 0.888400
H 0.378500 -1.212800 -0.883500
H -2.152000 -0.728200 0.885200
H -2.755700 0.682700 -0.000800
H -2.150200 -0.725500 -0.889800
H 2.012100 0.800700 -1.180400
$end
$scan
stre 1 12 0.700000 0.701000 0.100000
$end
--------------------------------------------------------------

    9    -517.3385956811      3.60e-07  Convergence criterion met
 Total energy in the final basis set =     -517.3385956811
    9    -517.3245232978      4.10e-07  Convergence criterion met
 Total energy in the final basis set =     -517.3245232978
    9    -517.2595039446      4.47e-07  Convergence criterion met
 Total energy in the final basis set =     -517.2595039446
    9    -517.1530181921      4.54e-07  Convergence criterion met
 Total energy in the final basis set =     -517.1530181921
    9    -516.8840692252      4.40e-07  Convergence criterion met
 Total energy in the final basis set =     -516.8840692252
    9    -516.7405217149      4.28e-07  Convergence criterion met
 Total energy in the final basis set =     -516.7405217149
    9    -516.6094779859      4.15e-07  Convergence criterion met
 Total energy in the final basis set =     -516.6094779859
    9    -516.5516546970      4.08e-07  Convergence criterion met
    9    -516.5474155145      4.06e-07  Convergence criterion met
 Total energy in the final basis set =     -516.5474155145
    9    -516.5475030816      4.01e-07  Convergence criterion met
 Total energy in the final basis set =     -516.5475030816
    9    -516.5475678610      3.95e-07  Convergence criterion met
 Total energy in the final basis set =     -516.5475678610
    9    -516.5475741740      3.96e-07  Convergence criterion met
 Total energy in the final basis set =     -516.5475741740
    9    -516.5475975587      4.00e-07  Convergence criterion met
 Total energy in the final basis set =     -516.5475975587
    9    -516.5475986137      4.01e-07  Convergence criterion met
 Total energy in the final basis set =     -516.5475986137

             Standard Nuclear Orientation (Angstroms)
    I     Atom           X                Y                Z
 ----------------------------------------------------------------
    1      S       2.1709775838     0.2165556828    -0.1561796293
    2      C      -0.6351730186     0.5339080446    -0.0492110988
    3      C       0.4832478142    -0.5109150449    -0.0960450617
    4      C      -2.0218101493    -0.1161807350     0.0247184780
    5      H      -0.4774708939     1.1909573502     0.8132188788
    6      H      -0.5744364673     1.1710017513    -0.9405631808
    7      H       0.4652135294    -1.1381115542     0.7985787768
    8      H       0.3620104068    -1.1742792925    -0.9585403179
    9      H      -2.1235576156    -0.7317830010     0.9254421359
   10      H      -2.8101060936     0.6424994166     0.0491686871
   11      H      -2.2071283887    -0.7616597748    -0.8410979866
   12      H       2.0808332927     0.5818071568    -0.7464896817
 ----------------------------------------------------------------

    9    -516.5476029748      4.02e-07  Convergence criterion met
 Total energy in the final basis set =     -516.5476029748

                    Orbital Energies (a.u.)
 --------------------------------------------------------------

 Alpha MOs
 -- Occupied --
-88.822 -10.220 -10.194 -10.184  -7.945  -5.921  -5.892  -5.884
 -0.862  -0.782  -0.684  -0.600  -0.480  -0.454  -0.417  -0.404
 -0.382  -0.353  -0.342  -0.319  -0.242

 Beta MOs
 -- Occupied --
-88.822 -10.220 -10.194 -10.184  -7.945  -5.921  -5.892  -5.884
 -0.862  -0.782  -0.684  -0.600  -0.480  -0.454  -0.417  -0.404
 -0.382  -0.353  -0.342  -0.319  -0.242

          Ground-State Mulliken Net Atomic Charges

     Atom                 Charge (a.u.)    Spin (a.u.)
  --------------------------------------------------------
      1 S                     0.203857      -0.000000
      2 C                    -0.173636       0.000000
      3 C                    -0.328774       0.000000
      4 C                    -0.323474       0.000000
      5 H                     0.118210      -0.000000
      6 H                     0.101808       0.000000
      7 H                     0.141564       0.000000
      8 H                     0.134277       0.000000
      9 H                     0.108385       0.000000
     10 H                     0.110781      -0.000000
     11 H                     0.106417      -0.000000
     12 H                    -0.199413       0.000000
  --------------------------------------------------------
  Sum of atomic charges =     0.000000

                    Cartesian Multipole Moments
 -----------------------------------------------------------------
    Charge (ESU x 10^10)
                 0.0000
    Dipole Moment (Debye)
         X      -1.8890      Y      -0.0575      Z      -0.7098
       Tot       2.0187
    Quadrupole Moments (Debye-Ang)
        XX     -38.6109     XY       0.6437     YY     -33.3442
        XZ      -1.6160     YZ      -1.3901     ZZ     -32.4747

 Final energy is   -516.547602974770
 **  OPTIMIZATION CONVERGED  **
 Total job time:  49.83s(wall), 536.96s(cpu)
        *  Thank you very much for using Q-Chem.  Have a nice day.  *
