 Q-Chem 5.1, Q-Chem, Inc., Pleasanton, CA (2018)
 Q-Chem 5.1.1 for Intel X86 EM64T Linux

User input:
--------------------------------------------------------------

$comment
potential surface scanner
$end

$rem
JOBTYPE  PES_SCAN
UNRESTRICTED TRUE
SYM_IGNORE  TRUE
GEOM_OPT_MAX_CYCLES 400
SCF_MAX_CYCLES 400
METHOD   B3LYP
BASIS   6-31G**
PDB_PRINT 2
SCF_CONVERGENCE 6
THRESH 14
SCF_PRINT 1
$end
$molecule
0 1
S 2.188399 0.096791 0.051611
C -0.627072 0.507548 -0.004207
C 0.468453 -0.560252 -0.014405
C -2.030698 -0.109429 0.007204
H -0.489254 1.155231 0.868664
H -0.510271 1.148284 -0.887321
H 0.396016 -1.192314 0.877603
H 0.368792 -1.217763 -0.883117
H -2.183888 -0.730800 0.896630
H -2.802020 0.667005 0.007222
H -2.195523 -0.742571 -0.871824
H 2.129665 0.882071 -1.225058
$end
$scan
stre 1 12 1.600000 1.601000 0.100000
$end
--------------------------------------------------------------

    9    -517.3322765393      3.71e-07  Convergence criterion met
 Total energy in the final basis set =     -517.3322765393
    9    -517.3212684040      4.63e-07  Convergence criterion met
 Total energy in the final basis set =     -517.3212684040
    9    -517.3209592793      4.68e-07  Convergence criterion met
 Total energy in the final basis set =     -517.3209592793
    9    -517.3209602952      4.68e-07  Convergence criterion met
 Total energy in the final basis set =     -517.3209602952
    9    -517.3209616208      4.68e-07  Convergence criterion met
 Total energy in the final basis set =     -517.3209616208

             Standard Nuclear Orientation (Angstroms)
    I     Atom           X                Y                Z
 ----------------------------------------------------------------
    1      S       2.1882433216     0.0753575594     0.0706977740
    2      C      -0.6245554613     0.5023047246     0.0013779153
    3      C       0.4665380333    -0.5698426556    -0.0049946393
    4      C      -2.0309968422    -0.1077846305     0.0048045052
    5      H      -0.4875327033     1.1498810667     0.8744068196
    6      H      -0.4991058850     1.1418411281    -0.8815279248
    7      H       0.3895517702    -1.2000992140     0.8888464989
    8      H       0.3656573509    -1.2291385900    -0.8721093073
    9      H      -2.1937664530    -0.7264604632     0.8943756871
   10      H      -2.7982538260     0.6726486940    -0.0022883546
   11      H      -2.1929527020    -0.7416610888    -0.8742231848
   12      H       2.1297723968     0.9367544693    -1.2763637893
 ----------------------------------------------------------------

    9    -517.3209624666      4.68e-07  Convergence criterion met
 Total energy in the final basis set =     -517.3209624666

                    Orbital Energies (a.u.)
 --------------------------------------------------------------

 Alpha MOs
 -- Occupied --
-88.884 -10.219 -10.192 -10.183  -7.943  -5.909  -5.905  -5.897
 -0.806  -0.733  -0.640  -0.589  -0.477  -0.433  -0.408  -0.403
 -0.364  -0.350  -0.341  -0.317  -0.234

 Beta MOs
 -- Occupied --
-88.884 -10.219 -10.192 -10.183  -7.943  -5.909  -5.905  -5.897
 -0.806  -0.733  -0.640  -0.589  -0.477  -0.433  -0.408  -0.403
 -0.364  -0.350  -0.341  -0.317  -0.234

          Ground-State Mulliken Net Atomic Charges

     Atom                 Charge (a.u.)    Spin (a.u.)
  --------------------------------------------------------
      1 S                    -0.051312      -0.000000
      2 C                    -0.163044      -0.000000
      3 C                    -0.328161       0.000000
      4 C                    -0.322665       0.000000
      5 H                     0.116178       0.000000
      6 H                     0.100342       0.000000
      7 H                     0.137733      -0.000000
      8 H                     0.137345      -0.000000
      9 H                     0.107131       0.000000
     10 H                     0.110211      -0.000000
     11 H                     0.106003      -0.000000
     12 H                     0.050238      -0.000000
  --------------------------------------------------------
  Sum of atomic charges =    -0.000000

                    Cartesian Multipole Moments
 -----------------------------------------------------------------
    Charge (ESU x 10^10)
                 0.0000
    Dipole Moment (Debye)
         X      -1.7491      Y      -0.1109      Z      -0.5962
       Tot       1.8513
    Quadrupole Moments (Debye-Ang)
        XX     -38.8632     XY       0.6991     YY     -34.1992
        XZ      -1.4191     YZ      -1.6708     ZZ     -33.0548

 Final energy is   -517.320962466595
 **  OPTIMIZATION CONVERGED  **
 Total job time:  19.03s(wall), 215.41s(cpu)
        *  Thank you very much for using Q-Chem.  Have a nice day.  *
