 Q-Chem 5.1, Q-Chem, Inc., Pleasanton, CA (2018)
 Q-Chem 5.1.1 for Intel X86 EM64T Linux

User input:
--------------------------------------------------------------

$comment
potential surface scanner
$end

$rem
JOBTYPE  PES_SCAN
UNRESTRICTED TRUE
SYM_IGNORE  TRUE
GEOM_OPT_MAX_CYCLES 400
SCF_MAX_CYCLES 400
METHOD   B3LYP
BASIS   6-31G**
PDB_PRINT 2
SCF_CONVERGENCE 6
THRESH 14
SCF_PRINT 1
$end
$molecule
0 3
S 1.829243 0.001631 -1.093430
C -0.719216 0.018442 0.150531
C 0.435132 -0.761796 -0.425295
C -1.942082 -0.872865 0.402411
H -0.991556 0.833480 -0.532152
H 1.240286 2.987746 -1.093961
H -0.423164 0.505901 1.095114
H 0.611035 -1.777828 -0.069207
H -2.766153 -0.287137 0.821719
H -2.289204 -1.336618 -0.525596
H -1.705927 -1.673370 1.111592
H 1.434202 2.266220 -1.018726
$end
$scan
stre 1 12 2.200000 2.201000 0.100000
$end
--------------------------------------------------------------

   11    -517.2145304259      4.15e-07  Convergence criterion met
 Total energy in the final basis set =     -517.2145304259
   11    -517.2132239224      3.66e-07  Convergence criterion met
 Total energy in the final basis set =     -517.2132239224
   11    -517.2132074685      3.68e-07  Convergence criterion met
 Total energy in the final basis set =     -517.2132074685
   11    -517.2132129726      3.70e-07  Convergence criterion met
 Total energy in the final basis set =     -517.2132129726
   11    -517.2132206448      3.71e-07  Convergence criterion met
 Total energy in the final basis set =     -517.2132206448
   11    -517.2132253168      3.71e-07  Convergence criterion met
 Total energy in the final basis set =     -517.2132253168
   11    -517.2132273918      3.69e-07  Convergence criterion met
 Total energy in the final basis set =     -517.2132273918
   11    -517.2132286125      3.67e-07  Convergence criterion met
 Total energy in the final basis set =     -517.2132286125
   11    -517.2132302731      3.64e-07  Convergence criterion met
 Total energy in the final basis set =     -517.2132302731
   11    -517.2132330496      3.60e-07  Convergence criterion met
 Total energy in the final basis set =     -517.2132330496
   11    -517.2132358495      3.56e-07  Convergence criterion met
 Total energy in the final basis set =     -517.2132358495
   11    -517.2132374010      3.55e-07  Convergence criterion met
 Total energy in the final basis set =     -517.2132374010

             Standard Nuclear Orientation (Angstroms)
    I     Atom           X                Y                Z
 ----------------------------------------------------------------
    1      S       1.8574761799     0.0228797174    -1.0716216712
    2      C      -0.7065075283     0.0391725943     0.1528160405
    3      C       0.4485163567    -0.7358121426    -0.4276422885
    4      C      -1.9296071185    -0.8545407823     0.3942675970
    5      H      -0.9776584786     0.8602494374    -0.5229973251
    6      H       1.1479339744     2.8850369425    -1.0517832621
    7      H      -0.4125514407     0.5183621234     1.1023176479
    8      H       0.6130237874    -1.7608571386    -0.0925401799
    9      H      -2.7553904235    -0.2727025741     0.8155866613
   10      H      -2.2737739566    -1.3111535857    -0.5384211656
   11      H      -1.6952950882    -1.6605407689     1.0978120301
   12      H       1.3964297360     2.1737121773    -1.0347940843
 ----------------------------------------------------------------

   11    -517.2132379223      3.56e-07  Convergence criterion met
 Total energy in the final basis set =     -517.2132379223

                    Orbital Energies (a.u.)
 --------------------------------------------------------------

 Alpha MOs
 -- Occupied --
-88.906 -10.213 -10.202 -10.183  -7.967  -5.937  -5.927  -5.922
 -0.816  -0.751  -0.643  -0.575  -0.460  -0.454  -0.429  -0.423
 -0.369  -0.363  -0.348  -0.307  -0.285  -0.170

 Beta MOs
 -- Occupied --
-88.900 -10.202 -10.201 -10.183  -7.961  -5.924  -5.919  -5.916
 -0.794  -0.731  -0.629  -0.548  -0.450  -0.443  -0.420  -0.408
 -0.360  -0.355  -0.338  -0.269

          Ground-State Mulliken Net Atomic Charges

     Atom                 Charge (a.u.)    Spin (a.u.)
  --------------------------------------------------------
      1 S                     0.083837       1.056191
      2 C                    -0.182183      -0.024756
      3 C                    -0.274327       0.837086
      4 C                    -0.320020       0.008833
      5 H                     0.115027       0.015086
      6 H                     0.024792       0.080009
      7 H                     0.114690       0.050198
      8 H                     0.134500       0.002221
      9 H                     0.106985       0.000902
     10 H                     0.117156       0.001492
     11 H                     0.107936      -0.000801
     12 H                    -0.028392      -0.026463
  --------------------------------------------------------
  Sum of atomic charges =    -0.000000

                    Cartesian Multipole Moments
 -----------------------------------------------------------------
    Charge (ESU x 10^10)
                -0.0000
    Dipole Moment (Debye)
         X      -0.9716      Y      -0.1213      Z       0.7806
       Tot       1.2522
    Quadrupole Moments (Debye-Ang)
        XX     -35.6995     XY      -0.8343     YY     -32.3789
        XZ       0.3361     YZ      -0.8369     ZZ     -36.7652

 Final energy is   -517.213237922254
 **  OPTIMIZATION CONVERGED  **
 Total job time:  44.49s(wall), 512.22s(cpu)
        *  Thank you very much for using Q-Chem.  Have a nice day.  *
