 Q-Chem 5.1, Q-Chem, Inc., Pleasanton, CA (2018)
 Q-Chem 5.1.1 for Intel X86 EM64T Linux

User input:
--------------------------------------------------------------

$comment
potential surface scanner
$end

$rem
JOBTYPE  PES_SCAN
UNRESTRICTED TRUE
SYM_IGNORE  TRUE
GEOM_OPT_MAX_CYCLES 400
SCF_MAX_CYCLES 400
METHOD   B3LYP
BASIS   6-31G**
PDB_PRINT 2
SCF_CONVERGENCE 6
THRESH 14
SCF_PRINT 1
$end
$molecule
0 3
S 1.320229 -0.124595 -1.731504
C -0.982657 -0.083655 -0.106324
C 0.269302 -0.800814 -0.546743
C -1.980063 -1.035352 0.566911
H -1.457563 0.398678 -0.969932
H 2.154520 3.440598 -0.601393
H -0.728292 0.733177 0.590486
H 0.738779 -1.507276 0.138644
H -2.863536 -0.488034 0.910492
H -2.308088 -1.816841 -0.124819
H -1.529231 -1.524827 1.436979
H 2.079199 2.712742 -0.739795
$end
$scan
stre 1 12 3.000000 3.001000 0.100000
$end
--------------------------------------------------------------

   11    -517.2183825366      4.46e-07  Convergence criterion met
 Total energy in the final basis set =     -517.2183825366
   11    -517.2182654045      4.28e-07  Convergence criterion met
 Total energy in the final basis set =     -517.2182654045
   11    -517.2182633328      4.28e-07  Convergence criterion met
 Total energy in the final basis set =     -517.2182633328
   11    -517.2182650612      4.32e-07  Convergence criterion met
 Total energy in the final basis set =     -517.2182650612
   11    -517.2182669881      4.38e-07  Convergence criterion met
 Total energy in the final basis set =     -517.2182669881
   11    -517.2182688561      4.45e-07  Convergence criterion met
 Total energy in the final basis set =     -517.2182688561

             Standard Nuclear Orientation (Angstroms)
    I     Atom           X                Y                Z
 ----------------------------------------------------------------
    1      S       1.3598759527    -0.1175151038    -1.7067854526
    2      C      -0.9569840125    -0.0705544325    -0.1015606608
    3      C       0.2835726996    -0.8027950077    -0.5499524328
    4      C      -1.9698315186    -1.0139044521     0.5602614291
    5      H      -1.4234938891     0.4296316895    -0.9595561509
    6      H       2.0573706438     3.3796267310    -0.5950671254
    7      H      -0.6899176753     0.7335845540     0.6051518678
    8      H       0.7361772585    -1.5292124624     0.1261103087
    9      H      -2.8451180763    -0.4565091594     0.9085099255
   10      H      -2.3089486800    -1.7829820732    -0.1399350881
   11      H      -1.5275918275    -1.5189627947     1.4257846769
   12      H       1.9974881248     2.6533935115    -0.7499592973
 ----------------------------------------------------------------

   11    -517.2182696780      4.48e-07  Convergence criterion met
 Total energy in the final basis set =     -517.2182696780

                    Orbital Energies (a.u.)
 --------------------------------------------------------------

 Alpha MOs
 -- Occupied --
-88.910 -10.215 -10.204 -10.184  -7.971  -5.941  -5.931  -5.926
 -0.818  -0.752  -0.644  -0.575  -0.462  -0.437  -0.423  -0.422
 -0.372  -0.364  -0.350  -0.310  -0.295  -0.171

 Beta MOs
 -- Occupied --
-88.904 -10.203 -10.202 -10.183  -7.964  -5.927  -5.923  -5.919
 -0.796  -0.731  -0.629  -0.547  -0.452  -0.428  -0.422  -0.407
 -0.363  -0.355  -0.341  -0.271

          Ground-State Mulliken Net Atomic Charges

     Atom                 Charge (a.u.)    Spin (a.u.)
  --------------------------------------------------------
      1 S                     0.089142       1.109348
      2 C                    -0.184732      -0.019952
      3 C                    -0.279287       0.829036
      4 C                    -0.316446       0.013747
      5 H                     0.113800       0.009653
      6 H                    -0.019596       0.005430
      7 H                     0.117106       0.049628
      8 H                     0.135807       0.001244
      9 H                     0.107145       0.002535
     10 H                     0.118069       0.001492
     11 H                     0.107741      -0.001058
     12 H                     0.011251      -0.001104
  --------------------------------------------------------
  Sum of atomic charges =    -0.000000

                    Cartesian Multipole Moments
 -----------------------------------------------------------------
    Charge (ESU x 10^10)
                -0.0000
    Dipole Moment (Debye)
         X      -0.8045      Y      -0.2343      Z       0.9776
       Tot       1.2876
    Quadrupole Moments (Debye-Ang)
        XX     -34.4563     XY      -1.4802     YY     -34.6836
        XZ       0.8348     YZ      -1.3158     ZZ     -36.5247

 Final energy is   -517.218269677984
 **  OPTIMIZATION CONVERGED  **
 Total job time:  23.55s(wall), 270.50s(cpu)
        *  Thank you very much for using Q-Chem.  Have a nice day.  *
