 Q-Chem 5.1, Q-Chem, Inc., Pleasanton, CA (2018)
 Q-Chem 5.1.1 for Intel X86 EM64T Linux

User input:
--------------------------------------------------------------

$comment
potential surface scanner
$end

$rem
JOBTYPE  PES_SCAN
UNRESTRICTED TRUE
SYM_IGNORE  TRUE
GEOM_OPT_MAX_CYCLES 400
SCF_MAX_CYCLES 400
METHOD   B3LYP
BASIS   6-31G**
PDB_PRINT 2
SCF_CONVERGENCE 6
THRESH 14
SCF_PRINT 1
$end
$molecule
0 3
S 1.875342 0.050474 -1.060216
C -0.699364 0.057954 0.157218
C 0.458495 -0.707021 -0.429078
C -1.920103 -0.841958 0.387119
H -0.972083 0.885414 -0.510030
H 1.092968 2.794545 -1.041333
H -0.408686 0.528001 1.112412
H 0.620004 -1.737763 -0.110266
H -2.748502 -0.267477 0.813345
H -2.261293 -1.289469 -0.551098
H -1.684525 -1.654974 1.082123
H 1.360345 2.086080 -1.027195
$end
$scan
stre 1 12 2.000000 2.001000 0.100000
$end
--------------------------------------------------------------

   11    -517.2115713817      3.36e-07  Convergence criterion met
 Total energy in the final basis set =     -517.2115713817
   11    -517.2094244950      2.99e-07  Convergence criterion met
 Total energy in the final basis set =     -517.2094244950
   11    -517.2094096113      3.02e-07  Convergence criterion met
 Total energy in the final basis set =     -517.2094096113
   11    -517.2094155025      3.05e-07  Convergence criterion met
 Total energy in the final basis set =     -517.2094155025
   11    -517.2094198515      3.08e-07  Convergence criterion met
 Total energy in the final basis set =     -517.2094198515
   11    -517.2094229043      3.11e-07  Convergence criterion met
 Total energy in the final basis set =     -517.2094229043
   11    -517.2094249740      3.13e-07  Convergence criterion met
 Total energy in the final basis set =     -517.2094249740
   11    -517.2094276393      3.15e-07  Convergence criterion met
 Total energy in the final basis set =     -517.2094276393
   11    -517.2094313216      3.18e-07  Convergence criterion met
 Total energy in the final basis set =     -517.2094313216
   11    -517.2094349338      3.20e-07  Convergence criterion met
 Total energy in the final basis set =     -517.2094349338
   11    -517.2094366790      3.20e-07  Convergence criterion met
 Total energy in the final basis set =     -517.2094366790

             Standard Nuclear Orientation (Angstroms)
    I     Atom           X                Y                Z
 ----------------------------------------------------------------
    1      S       1.8972995583     0.0867817298    -1.0220445019
    2      C      -0.7005799682     0.0753428965     0.1571868471
    3      C       0.4622599090    -0.6759383558    -0.4353804822
    4      C      -1.9119730932    -0.8365383682     0.3874185484
    5      H      -0.9832459915     0.9023640213    -0.5069630115
    6      H       1.0727079885     2.7233042102    -1.0256644434
    7      H      -0.4113671543     0.5459842139     1.1125252354
    8      H       0.6115551116    -1.7190354525    -0.1535629162
    9      H      -2.7452188686    -0.2718615002     0.8171366350
   10      H      -2.2511424256    -1.2843009266    -0.5515171864
   11      H      -1.6667760802    -1.6495513990     1.0790736530
   12      H       1.3390790141     2.0072549306    -1.0352073773
 ----------------------------------------------------------------

   11    -517.2094371390      3.18e-07  Convergence criterion met
 Total energy in the final basis set =     -517.2094371390

                    Orbital Energies (a.u.)
 --------------------------------------------------------------

 Alpha MOs
 -- Occupied --
-88.903 -10.213 -10.201 -10.182  -7.965  -5.935  -5.925  -5.920
 -0.815  -0.751  -0.643  -0.577  -0.468  -0.456  -0.428  -0.422
 -0.368  -0.362  -0.347  -0.306  -0.277  -0.169

 Beta MOs
 -- Occupied --
-88.897 -10.201 -10.200 -10.182  -7.959  -5.921  -5.917  -5.914
 -0.794  -0.731  -0.629  -0.551  -0.450  -0.447  -0.418  -0.408
 -0.359  -0.354  -0.336  -0.269

          Ground-State Mulliken Net Atomic Charges

     Atom                 Charge (a.u.)    Spin (a.u.)
  --------------------------------------------------------
      1 S                     0.085898       1.013123
      2 C                    -0.180276      -0.027448
      3 C                    -0.274108       0.842863
      4 C                    -0.321140       0.006427
      5 H                     0.113834       0.017006
      6 H                     0.042230       0.138364
      7 H                     0.113892       0.050374
      8 H                     0.134552       0.001028
      9 H                     0.106745       0.000371
     10 H                     0.116690       0.001471
     11 H                     0.108124      -0.000589
     12 H                    -0.046441      -0.042990
  --------------------------------------------------------
  Sum of atomic charges =    -0.000000

                    Cartesian Multipole Moments
 -----------------------------------------------------------------
    Charge (ESU x 10^10)
                 0.0000
    Dipole Moment (Debye)
         X      -1.0173      Y      -0.0144      Z       0.7282
       Tot       1.2511
    Quadrupole Moments (Debye-Ang)
        XX     -35.9658     XY      -0.6207     YY     -32.1166
        XZ       0.3363     YZ      -0.7830     ZZ     -36.7693

 Final energy is   -517.209437138953
 **  OPTIMIZATION CONVERGED  **
 Total job time:  41.09s(wall), 474.92s(cpu)
        *  Thank you very much for using Q-Chem.  Have a nice day.  *
