 Q-Chem 5.1, Q-Chem, Inc., Pleasanton, CA (2018)
 Q-Chem 5.1.1 for Intel X86 EM64T Linux

User input:
--------------------------------------------------------------

$comment
potential surface scanner
$end

$rem
JOBTYPE  PES_SCAN
UNRESTRICTED TRUE
SYM_IGNORE  TRUE
GEOM_OPT_MAX_CYCLES 400
SCF_MAX_CYCLES 400
METHOD   B3LYP
BASIS   6-31G**
PDB_PRINT 2
SCF_CONVERGENCE 6
THRESH 14
SCF_PRINT 1
$end
$molecule
0 1
S 2.182325 0.026684 0.140147
C -0.622096 0.491558 0.019862
C 0.459309 -0.589861 0.024363
C -2.033981 -0.105573 -0.001148
H -0.492328 1.134158 0.897619
H -0.473822 1.132257 -0.858419
H 0.363793 -1.222251 0.917376
H 0.366002 -1.247479 -0.844636
H -2.217918 -0.724870 0.883885
H -2.793388 0.682292 -0.018849
H -2.187475 -0.735462 -0.884550
H 2.162177 1.062350 -1.452646
$end
$scan
stre 1 12 2.000000 2.001000 0.100000
$end
--------------------------------------------------------------

    9    -517.2791429700      6.19e-07  Convergence criterion met
 Total energy in the final basis set =     -517.2791429700
    9    -517.2657274137      7.39e-07  Convergence criterion met
 Total energy in the final basis set =     -517.2657274137
    9    -517.2653726876      7.43e-07  Convergence criterion met
 Total energy in the final basis set =     -517.2653726876
    9    -517.2653738253      7.45e-07  Convergence criterion met
 Total energy in the final basis set =     -517.2653738253

             Standard Nuclear Orientation (Angstroms)
    I     Atom           X                Y                Z
 ----------------------------------------------------------------
    1      S       2.1795954134     0.0072255025     0.1611829250
    2      C      -0.6202183175     0.4867357214     0.0246736896
    3      C       0.4572700160    -0.5986787729     0.0334051533
    4      C      -2.0344044548    -0.1042130944    -0.0027740682
    5      H      -0.4912576186     1.1296341375     0.9022762977
    6      H      -0.4636756446     1.1254951421    -0.8536693071
    7      H       0.3551474188    -1.2308380837     0.9269685568
    8      H       0.3642212998    -1.2572549524    -0.8349381557
    9      H      -2.2264392505    -0.7205273701     0.8826150322
   10      H      -2.7899528848     0.6871820028    -0.0266261608
   11      H      -2.1858670007    -0.7352654081    -0.8856886066
   12      H       2.1681790235     1.1143081752    -1.5044213563
 ----------------------------------------------------------------

    9    -517.2653747207      7.47e-07  Convergence criterion met
 Total energy in the final basis set =     -517.2653747207

                    Orbital Energies (a.u.)
 --------------------------------------------------------------

 Alpha MOs
 -- Occupied --
-88.898 -10.222 -10.193 -10.184  -7.955  -5.921  -5.917  -5.908
 -0.808  -0.733  -0.636  -0.586  -0.477  -0.431  -0.407  -0.405
 -0.356  -0.344  -0.339  -0.307  -0.236

 Beta MOs
 -- Occupied --
-88.898 -10.222 -10.193 -10.184  -7.955  -5.921  -5.917  -5.908
 -0.808  -0.733  -0.636  -0.586  -0.477  -0.431  -0.407  -0.405
 -0.356  -0.344  -0.339  -0.307  -0.236

          Ground-State Mulliken Net Atomic Charges

     Atom                 Charge (a.u.)    Spin (a.u.)
  --------------------------------------------------------
      1 S                    -0.041812       0.000000
      2 C                    -0.161005       0.000000
      3 C                    -0.331875       0.000000
      4 C                    -0.323218      -0.000000
      5 H                     0.115931      -0.000000
      6 H                     0.104553      -0.000000
      7 H                     0.140110      -0.000000
      8 H                     0.141976      -0.000000
      9 H                     0.106635       0.000000
     10 H                     0.111025       0.000000
     11 H                     0.106571       0.000000
     12 H                     0.031108      -0.000000
  --------------------------------------------------------
  Sum of atomic charges =    -0.000000

                    Cartesian Multipole Moments
 -----------------------------------------------------------------
    Charge (ESU x 10^10)
                -0.0000
    Dipole Moment (Debye)
         X      -1.8264      Y      -0.2907      Z      -0.3389
       Tot       1.8802
    Quadrupole Moments (Debye-Ang)
        XX     -39.0773     XY       0.3595     YY     -34.3495
        XZ      -0.8346     YZ      -1.6700     ZZ     -33.2503

 Final energy is   -517.265374720669
 **  OPTIMIZATION CONVERGED  **
 Total job time:  15.64s(wall), 177.84s(cpu)
        *  Thank you very much for using Q-Chem.  Have a nice day.  *
