 Q-Chem 5.1, Q-Chem, Inc., Pleasanton, CA (2018)
 Q-Chem 5.1.1 for Intel X86 EM64T Linux

User input:
--------------------------------------------------------------

$comment
potential surface scanner
$end

$rem
JOBTYPE  PES_SCAN
UNRESTRICTED TRUE
SYM_IGNORE  TRUE
GEOM_OPT_MAX_CYCLES 400
SCF_MAX_CYCLES 400
METHOD   B3LYP
BASIS   6-31G**
PDB_PRINT 2
SCF_CONVERGENCE 6
THRESH 14
SCF_PRINT 1
$end
$molecule
0 3
S 1.958927 0.073309 -0.118456
C -0.718246 -0.269188 0.709940
C 0.452516 -0.760888 -0.104608
C -2.051913 -0.802460 0.168424
H -0.734367 0.827748 0.713508
H 1.592540 2.674514 -1.914397
H -0.603823 -0.571305 1.764648
H 0.512028 -1.821157 -0.352686
H -2.886639 -0.456878 0.786821
H -2.220854 -0.465264 -0.858162
H -2.066136 -1.897776 0.168885
H 1.478567 3.373144 -2.140916
$end
$scan
stre 1 12 3.800000 3.801000 0.100000
$end
--------------------------------------------------------------

   11    -517.2183329785      4.21e-07  Convergence criterion met
 Total energy in the final basis set =     -517.2183329785
   11    -517.2166430473      4.55e-07  Convergence criterion met
 Total energy in the final basis set =     -517.2166430473
   11    -517.2179088791      4.50e-07  Convergence criterion met
 Total energy in the final basis set =     -517.2179088791
   11    -517.2182574677      4.45e-07  Convergence criterion met
 Total energy in the final basis set =     -517.2182574677
   11    -517.2182645929      4.44e-07  Convergence criterion met
 Total energy in the final basis set =     -517.2182645929

             Standard Nuclear Orientation (Angstroms)
    I     Atom           X                Y                Z
 ----------------------------------------------------------------
    1      S       1.9560403158     0.1014844440    -0.1368124386
    2      C      -0.7160193227    -0.2562499367     0.7016336512
    3      C       0.4545526945    -0.7412168483    -0.1167713784
    4      C      -2.0484338189    -0.8002849225     0.1674566914
    5      H      -0.7397085564     0.8405084850     0.7032655497
    6      H       1.5836079033     2.6163032131    -1.8888266248
    7      H      -0.5956488488    -0.5557531263     1.7565843348
    8      H       0.5170239695    -1.8002614976    -0.3691958861
    9      H      -2.8824800920    -0.4593247935     0.7892617919
   10      H      -2.2250867791    -0.4663643790    -0.8589387593
   11      H      -2.0541209037    -1.8956108747     0.1702881553
   12      H       1.4628734385     3.3205692366    -2.0949440870
 ----------------------------------------------------------------

   11    -517.2182649109      4.44e-07  Convergence criterion met
 Total energy in the final basis set =     -517.2182649109

                    Orbital Energies (a.u.)
 --------------------------------------------------------------

 Alpha MOs
 -- Occupied --
-88.910 -10.214 -10.204 -10.183  -7.970  -5.941  -5.931  -5.926
 -0.818  -0.752  -0.644  -0.574  -0.462  -0.436  -0.423  -0.420
 -0.373  -0.364  -0.349  -0.310  -0.295  -0.170

 Beta MOs
 -- Occupied --
-88.904 -10.203 -10.202 -10.183  -7.964  -5.927  -5.923  -5.919
 -0.795  -0.731  -0.629  -0.547  -0.452  -0.428  -0.422  -0.406
 -0.363  -0.355  -0.340  -0.271

          Ground-State Mulliken Net Atomic Charges

     Atom                 Charge (a.u.)    Spin (a.u.)
  --------------------------------------------------------
      1 S                     0.088289       1.110840
      2 C                    -0.183751      -0.020451
      3 C                    -0.280216       0.830808
      4 C                    -0.315140       0.015017
      5 H                     0.113370       0.007758
      6 H                     0.013649      -0.001164
      7 H                     0.115637       0.049234
      8 H                     0.135620       0.000514
      9 H                     0.106497       0.003352
     10 H                     0.118409       0.001628
     11 H                     0.107381      -0.001131
     12 H                    -0.019744       0.003594
  --------------------------------------------------------
  Sum of atomic charges =     0.000000

                    Cartesian Multipole Moments
 -----------------------------------------------------------------
    Charge (ESU x 10^10)
                 0.0000
    Dipole Moment (Debye)
         X      -1.0443      Y      -0.6552      Z       0.5074
       Tot       1.3331
    Quadrupole Moments (Debye-Ang)
        XX     -35.6437     XY      -0.7593     YY     -32.9809
        XZ      -0.5989     YZ       1.0187     ZZ     -35.9054

 Final energy is   -517.218264910911
 **  OPTIMIZATION CONVERGED  **
 Total job time:  20.18s(wall), 228.53s(cpu)
        *  Thank you very much for using Q-Chem.  Have a nice day.  *
