 Q-Chem 5.1, Q-Chem, Inc., Pleasanton, CA (2018)
 Q-Chem 5.1.1 for Intel X86 EM64T Linux

User input:
--------------------------------------------------------------

$comment
potential surface scanner
$end

$rem
JOBTYPE  PES_SCAN
UNRESTRICTED TRUE
SYM_IGNORE  TRUE
GEOM_OPT_MAX_CYCLES 400
SCF_MAX_CYCLES 400
METHOD   B3LYP
BASIS   6-31G**
PDB_PRINT 2
SCF_CONVERGENCE 6
THRESH 14
SCF_PRINT 1
$end
$molecule
0 3
S 1.706447 -0.039168 -1.249014
C -0.765423 -0.017176 0.123736
C 0.402224 -0.800558 -0.421158
C -1.968537 -0.920183 0.426639
H -1.058808 0.758230 -0.595321
H 1.454585 3.171802 -1.069210
H -0.474200 0.520728 1.042061
H 0.643551 -1.766539 0.023462
H -2.800893 -0.331564 0.825292
H -2.312483 -1.433637 -0.475864
H -1.711098 -1.681836 1.170436
H 1.597234 2.443705 -0.978061
$end
$scan
stre 1 12 2.400000 2.401000 0.100000
$end
--------------------------------------------------------------

   11    -517.2163513998      3.97e-07  Convergence criterion met
 Total energy in the final basis set =     -517.2163513998
   11    -517.2155420877      3.38e-07  Convergence criterion met
 Total energy in the final basis set =     -517.2155420877
   11    -517.2155292392      3.42e-07  Convergence criterion met
 Total energy in the final basis set =     -517.2155292392
   11    -517.2155328967      3.48e-07  Convergence criterion met
 Total energy in the final basis set =     -517.2155328967
   11    -517.2155394580      3.64e-07  Convergence criterion met
 Total energy in the final basis set =     -517.2155394580
   11    -517.2155449051      3.80e-07  Convergence criterion met
 Total energy in the final basis set =     -517.2155449051
   11    -517.2155476775      3.88e-07  Convergence criterion met
 Total energy in the final basis set =     -517.2155476775

             Standard Nuclear Orientation (Angstroms)
    I     Atom           X                Y                Z
 ----------------------------------------------------------------
    1      S       1.7517183775    -0.0275644021    -1.2097534010
    2      C      -0.7369090875     0.0006339971     0.1404562306
    3      C       0.4234319029    -0.7848639696    -0.4161055121
    4      C      -1.9559065612    -0.8922236380     0.4084175085
    5      H      -1.0124799994     0.7999767704    -0.5588043476
    6      H       1.3301333459     3.0701069234    -1.0805094064
    7      H      -0.4457087566     0.5079634249     1.0760931234
    8      H       0.6480677154    -1.7639862548     0.0086326826
    9      H      -2.7822717156    -0.3026620388     0.8180216926
   10      H      -2.3006692317    -1.3740809086    -0.5110544802
   11      H      -1.7157533782    -1.6789230725     1.1315852138
   12      H       1.5089463883     2.3494271686    -0.9839813043
 ----------------------------------------------------------------

   11    -517.2155485868      3.89e-07  Convergence criterion met
 Total energy in the final basis set =     -517.2155485868

                    Orbital Energies (a.u.)
 --------------------------------------------------------------

 Alpha MOs
 -- Occupied --
-88.908 -10.214 -10.202 -10.183  -7.969  -5.939  -5.929  -5.924
 -0.817  -0.751  -0.643  -0.575  -0.461  -0.446  -0.429  -0.422
 -0.371  -0.363  -0.348  -0.309  -0.290  -0.170

 Beta MOs
 -- Occupied --
-88.902 -10.202 -10.201 -10.183  -7.963  -5.925  -5.921  -5.917
 -0.795  -0.731  -0.629  -0.547  -0.451  -0.437  -0.422  -0.407
 -0.361  -0.355  -0.339  -0.270

          Ground-State Mulliken Net Atomic Charges

     Atom                 Charge (a.u.)    Spin (a.u.)
  --------------------------------------------------------
      1 S                     0.086556       1.083051
      2 C                    -0.183853      -0.022962
      3 C                    -0.276460       0.833490
      4 C                    -0.317587       0.012073
      5 H                     0.114828       0.011459
      6 H                     0.006940       0.043318
      7 H                     0.115418       0.049882
      8 H                     0.134867       0.001647
      9 H                     0.106870       0.002055
     10 H                     0.117651       0.001588
     11 H                     0.107640      -0.001010
     12 H                    -0.012870      -0.014592
  --------------------------------------------------------
  Sum of atomic charges =    -0.000000

                    Cartesian Multipole Moments
 -----------------------------------------------------------------
    Charge (ESU x 10^10)
                 0.0000
    Dipole Moment (Debye)
         X      -0.8998      Y      -0.2139      Z       0.8495
       Tot       1.2558
    Quadrupole Moments (Debye-Ang)
        XX     -35.3745     XY      -1.0795     YY     -32.8870
        XZ       0.3845     YZ      -1.0476     ZZ     -36.6817

 Final energy is   -517.215548586828
 **  OPTIMIZATION CONVERGED  **
 Total job time:  27.12s(wall), 312.87s(cpu)
        *  Thank you very much for using Q-Chem.  Have a nice day.  *
