 Q-Chem 5.1, Q-Chem, Inc., Pleasanton, CA (2018)
 Q-Chem 5.1.1 for Intel X86 EM64T Linux

User input:
--------------------------------------------------------------

$comment
potential surface scanner
$end

$rem
JOBTYPE  PES_SCAN
UNRESTRICTED TRUE
SYM_IGNORE  TRUE
GEOM_OPT_MAX_CYCLES 400
SCF_MAX_CYCLES 400
METHOD   B3LYP
BASIS   6-31G**
PDB_PRINT 2
SCF_CONVERGENCE 6
THRESH 14
SCF_PRINT 1
$end
$molecule
0 1
S 2.126400 0.172600 -0.001000
C -0.602600 0.507000 0.001200
C 0.472000 -0.574500 0.001000
C -1.995800 -0.105100 -0.001200
H -0.500600 1.146800 0.886100
H -0.499900 1.148900 -0.882200
H 0.380400 -1.208800 0.888400
H 0.378500 -1.212800 -0.883500
H -2.152000 -0.728200 0.885200
H -2.755700 0.682700 -0.000800
H -2.150200 -0.725500 -0.889800
H 2.012100 0.800700 -1.180400
$end
$scan
stre 1 12 0.900000 0.901000 0.100000
$end
--------------------------------------------------------------

    9    -517.3385956811      3.60e-07  Convergence criterion met
 Total energy in the final basis set =     -517.3385956811
    9    -517.3245232978      4.10e-07  Convergence criterion met
 Total energy in the final basis set =     -517.3245232978
    9    -517.2595039446      4.47e-07  Convergence criterion met
 Total energy in the final basis set =     -517.2595039446
    9    -517.1570055588      4.54e-07  Convergence criterion met
 Total energy in the final basis set =     -517.1570055588
    9    -517.1073388098      4.52e-07  Convergence criterion met
 Total energy in the final basis set =     -517.1073388098
    9    -517.1067833790      4.51e-07  Convergence criterion met
 Total energy in the final basis set =     -517.1067833790
    9    -517.1067919198      4.47e-07  Convergence criterion met
 Total energy in the final basis set =     -517.1067919198
    9    -517.1067925258      4.47e-07  Convergence criterion met
 Total energy in the final basis set =     -517.1067925258
    9    -517.1067946369      4.47e-07  Convergence criterion met
 Total energy in the final basis set =     -517.1067946369

             Standard Nuclear Orientation (Angstroms)
    I     Atom           X                Y                Z
 ----------------------------------------------------------------
    1      S       2.1774452016     0.1995772862    -0.1005905903
    2      C      -0.6343957214     0.5293303849    -0.0334896780
    3      C       0.4814805672    -0.5179209638    -0.0693301681
    4      C      -2.0248484783    -0.1147150839     0.0168844037
    5      H      -0.4855989118     1.1810500426     0.8345431859
    6      H      -0.5580092945     1.1717236447    -0.9199148611
    7      H       0.4507784129    -1.1462997037     0.8247280048
    8      H       0.3685419712    -1.1813377769    -0.9328169938
    9      H      -2.1397651442    -0.7401612360     0.9091062022
   10      H      -2.8111672540     0.6461918490     0.0405191559
   11      H      -2.2022494633    -0.7496659295    -0.8582909314
   12      H       2.0903881146     0.6260274865    -0.8883477298
 ----------------------------------------------------------------

    9    -517.1067953454      4.48e-07  Convergence criterion met
 Total energy in the final basis set =     -517.1067953454

                    Orbital Energies (a.u.)
 --------------------------------------------------------------

 Alpha MOs
 -- Occupied --
-88.832 -10.219 -10.193 -10.183  -7.921  -5.887  -5.879  -5.871
 -0.834  -0.773  -0.677  -0.598  -0.480  -0.451  -0.416  -0.403
 -0.381  -0.352  -0.341  -0.318  -0.238

 Beta MOs
 -- Occupied --
-88.832 -10.219 -10.193 -10.183  -7.921  -5.887  -5.879  -5.871
 -0.834  -0.773  -0.677  -0.598  -0.480  -0.451  -0.416  -0.403
 -0.381  -0.352  -0.341  -0.318  -0.238

          Ground-State Mulliken Net Atomic Charges

     Atom                 Charge (a.u.)    Spin (a.u.)
  --------------------------------------------------------
      1 S                     0.021862      -0.000000
      2 C                    -0.169392      -0.000000
      3 C                    -0.328471       0.000000
      4 C                    -0.323130       0.000000
      5 H                     0.117486      -0.000000
      6 H                     0.099474       0.000000
      7 H                     0.140358       0.000000
      8 H                     0.133077       0.000000
      9 H                     0.107903      -0.000000
     10 H                     0.110265       0.000000
     11 H                     0.105836       0.000000
     12 H                    -0.015268       0.000000
  --------------------------------------------------------
  Sum of atomic charges =     0.000000

                    Cartesian Multipole Moments
 -----------------------------------------------------------------
    Charge (ESU x 10^10)
                -0.0000
    Dipole Moment (Debye)
         X      -1.8006      Y      -0.0571      Z      -0.8135
       Tot       1.9766
    Quadrupole Moments (Debye-Ang)
        XX     -38.6075     XY       0.6997     YY     -33.6992
        XZ      -1.9249     YZ      -1.4798     ZZ     -32.4017

 Final energy is   -517.106795345388
 **  OPTIMIZATION CONVERGED  **
 Total job time:  30.48s(wall), 352.37s(cpu)
        *  Thank you very much for using Q-Chem.  Have a nice day.  *
