 Q-Chem 5.1, Q-Chem, Inc., Pleasanton, CA (2018)
 Q-Chem 5.1.1 for Intel X86 EM64T Linux

User input:
--------------------------------------------------------------

$comment
potential surface scanner
$end

$rem
JOBTYPE  PES_SCAN
UNRESTRICTED TRUE
SYM_IGNORE  TRUE
GEOM_OPT_MAX_CYCLES 400
SCF_MAX_CYCLES 400
METHOD   B3LYP
BASIS   6-31G**
PDB_PRINT 2
SCF_CONVERGENCE 6
THRESH 14
SCF_PRINT 1
$end
$molecule
0 1
S 1.447752 0.137654 0.557543
C -1.284427 -0.092214 0.682912
C -0.151751 -0.523377 0.122028
C -2.656444 -0.518336 0.248777
H -1.228540 0.623235 1.502547
H 2.948958 2.444533 -2.530209
H 2.132710 -1.023501 0.520585
H -0.164230 -1.236499 -0.698962
H -3.220694 -0.942293 1.088465
H -3.236861 0.336919 -0.120066
H -2.615287 -1.266099 -0.548533
H 2.741415 1.963779 -2.002086
$end
$scan
stre 1 12 3.500000 3.501000 0.100000
$end
--------------------------------------------------------------

    9    -517.2849755770      8.51e-07  Convergence criterion met
 Total energy in the final basis set =     -517.2849755770
    9    -517.2849666712      8.50e-07  Convergence criterion met
 Total energy in the final basis set =     -517.2849666712

             Standard Nuclear Orientation (Angstroms)
    I     Atom           X                Y                Z
 ----------------------------------------------------------------
    1      S       1.4397309060     0.1217905068     0.5775569134
    2      C      -1.2935862849    -0.1009740114     0.6923235335
    3      C      -0.1600096308    -0.5335661179     0.1343665747
    4      C      -2.6651375277    -0.5222071403     0.2519648604
    5      H      -1.2388109572     0.6119862876     1.5141977677
    6      H       2.9949592372     2.4863456548    -2.5746010812
    7      H       2.1215307132    -1.0411840525     0.5397488300
    8      H      -0.1714716514    -1.2443556382    -0.6886664888
    9      H      -3.2335043334    -0.9472193100     1.0883394498
   10      H      -3.2420416196     0.3356245269    -0.1164096865
   11      H      -2.6230361067    -1.2676895015    -0.5474329350
   12      H       2.7839782553     2.0052497957    -2.0483867380
 ----------------------------------------------------------------

    9    -517.2849665660      8.50e-07  Convergence criterion met
 Total energy in the final basis set =     -517.2849665660

                    Orbital Energies (a.u.)
 --------------------------------------------------------------

 Alpha MOs
 -- Occupied --
-88.883 -10.215 -10.198 -10.190  -7.946  -5.911  -5.907  -5.901
 -0.813  -0.747  -0.662  -0.555  -0.464  -0.441  -0.420  -0.417
 -0.390  -0.371  -0.337  -0.291  -0.224

 Beta MOs
 -- Occupied --
-88.883 -10.215 -10.198 -10.190  -7.946  -5.911  -5.907  -5.901
 -0.813  -0.747  -0.662  -0.555  -0.464  -0.441  -0.420  -0.417
 -0.390  -0.371  -0.337  -0.291  -0.224

          Ground-State Mulliken Net Atomic Charges

     Atom                 Charge (a.u.)    Spin (a.u.)
  --------------------------------------------------------
      1 S                    -0.007119       0.000000
      2 C                    -0.029572      -0.000000
      3 C                    -0.246514       0.000000
      4 C                    -0.351481       0.000000
      5 H                     0.102548       0.000000
      6 H                    -0.021006       0.000000
      7 H                     0.060213      -0.000000
      8 H                     0.118900      -0.000000
      9 H                     0.121236      -0.000000
     10 H                     0.123555      -0.000000
     11 H                     0.111925      -0.000000
     12 H                     0.017315      -0.000000
  --------------------------------------------------------
  Sum of atomic charges =    -0.000000

                    Cartesian Multipole Moments
 -----------------------------------------------------------------
    Charge (ESU x 10^10)
                -0.0000
    Dipole Moment (Debye)
         X      -1.1220      Y      -1.2079      Z      -0.1790
       Tot       1.6583
    Quadrupole Moments (Debye-Ang)
        XX     -31.6300     XY      -2.4372     YY     -33.7487
        XZ      -0.3938     YZ       0.9404     ZZ     -35.8924

 Final energy is   -517.284966566045
 **  OPTIMIZATION CONVERGED  **
 Total job time:  9.40s(wall), 101.85s(cpu)
        *  Thank you very much for using Q-Chem.  Have a nice day.  *
