 Q-Chem 5.1, Q-Chem, Inc., Pleasanton, CA (2018)
 Q-Chem 5.1.1 for Intel X86 EM64T Linux

User input:
--------------------------------------------------------------

$comment
potential surface scanner
$end

$rem
JOBTYPE  PES_SCAN
UNRESTRICTED TRUE
SYM_IGNORE  TRUE
GEOM_OPT_MAX_CYCLES 400
SCF_MAX_CYCLES 400
METHOD   B3LYP
BASIS   6-31G**
PDB_PRINT 2
SCF_CONVERGENCE 6
THRESH 14
SCF_PRINT 1
$end
$molecule
0 1
S 2.126400 0.172600 -0.001000
C -0.602600 0.507000 0.001200
C 0.472000 -0.574500 0.001000
C -1.995800 -0.105100 -0.001200
H -0.500600 1.146800 0.886100
H -0.499900 1.148900 -0.882200
H 0.380400 -1.208800 0.888400
H 0.378500 -1.212800 -0.883500
H -2.152000 -0.728200 0.885200
H -2.755700 0.682700 -0.000800
H -2.150200 -0.725500 -0.889800
H 2.012100 0.800700 -1.180400
$end
$scan
stre 1 12 1.100000 1.101000 0.100000
$end
--------------------------------------------------------------

    9    -517.3385956811      3.60e-07  Convergence criterion met
 Total energy in the final basis set =     -517.3385956811
    9    -517.3245232978      4.10e-07  Convergence criterion met
 Total energy in the final basis set =     -517.3245232978
    9    -517.2941236052      4.38e-07  Convergence criterion met
 Total energy in the final basis set =     -517.2941236052
    9    -517.2935168309      4.41e-07  Convergence criterion met
 Total energy in the final basis set =     -517.2935168309
    9    -517.2935661824      4.44e-07  Convergence criterion met
 Total energy in the final basis set =     -517.2935661824
    9    -517.2935689974      4.44e-07  Convergence criterion met
 Total energy in the final basis set =     -517.2935689974

             Standard Nuclear Orientation (Angstroms)
    I     Atom           X                Y                Z
 ----------------------------------------------------------------
    1      S       2.1842931663     0.1700397465    -0.0447251309
    2      C      -0.6350731923     0.5260998593    -0.0222065033
    3      C       0.4765592696    -0.5258420201    -0.0502604943
    4      C      -2.0275210079    -0.1147816066     0.0126809949
    5      H      -0.4930405623     1.1733168060     0.8503389178
    6      H      -0.5465872488     1.1717001651    -0.9050413383
    7      H       0.4313688549    -1.1556987744     0.8427637325
    8      H       0.3688876145    -1.1877743114    -0.9153382167
    9      H      -2.1516373664    -0.7441153238     0.9010482139
   10      H      -2.8118459648     0.6482185711     0.0333869476
   11      H      -2.1990414813    -0.7453450348    -0.8668804905
   12      H       2.1162379186     0.6879819230    -1.0127666327
 ----------------------------------------------------------------

    9    -517.2935709692      4.43e-07  Convergence criterion met
 Total energy in the final basis set =     -517.2935709692

                    Orbital Energies (a.u.)
 --------------------------------------------------------------

 Alpha MOs
 -- Occupied --
-88.851 -10.218 -10.192 -10.183  -7.923  -5.888  -5.884  -5.877
 -0.815  -0.756  -0.666  -0.596  -0.479  -0.446  -0.415  -0.402
 -0.379  -0.352  -0.341  -0.317  -0.236

 Beta MOs
 -- Occupied --
-88.851 -10.218 -10.192 -10.183  -7.923  -5.888  -5.884  -5.877
 -0.815  -0.756  -0.666  -0.596  -0.479  -0.446  -0.415  -0.402
 -0.379  -0.352  -0.341  -0.317  -0.236

          Ground-State Mulliken Net Atomic Charges

     Atom                 Charge (a.u.)    Spin (a.u.)
  --------------------------------------------------------
      1 S                    -0.044039      -0.000000
      2 C                    -0.166624       0.000000
      3 C                    -0.329238       0.000000
      4 C                    -0.322857      -0.000000
      5 H                     0.116816      -0.000000
      6 H                     0.098705       0.000000
      7 H                     0.139092      -0.000000
      8 H                     0.133158       0.000000
      9 H                     0.107620       0.000000
     10 H                     0.109987      -0.000000
     11 H                     0.105664       0.000000
     12 H                     0.051716       0.000000
  --------------------------------------------------------
  Sum of atomic charges =    -0.000000

                    Cartesian Multipole Moments
 -----------------------------------------------------------------
    Charge (ESU x 10^10)
                -0.0000
    Dipole Moment (Debye)
         X      -1.7441      Y      -0.0478      Z      -0.8330
       Tot       1.9334
    Quadrupole Moments (Debye-Ang)
        XX     -38.6018     XY       0.7760     YY     -33.9535
        XZ      -2.0209     YZ      -1.5285     ZZ     -32.5188

 Final energy is   -517.293570969233
 **  OPTIMIZATION CONVERGED  **
 Total job time:  22.04s(wall), 250.14s(cpu)
        *  Thank you very much for using Q-Chem.  Have a nice day.  *
