 Q-Chem 5.1, Q-Chem, Inc., Pleasanton, CA (2018)
 Q-Chem 5.1.1 for Intel X86 EM64T Linux

User input:
--------------------------------------------------------------

$comment
potential surface scanner
$end

$rem
JOBTYPE  PES_SCAN
UNRESTRICTED TRUE
SYM_IGNORE  TRUE
GEOM_OPT_MAX_CYCLES 400
SCF_MAX_CYCLES 400
METHOD   B3LYP
BASIS   6-31G**
PDB_PRINT 2
SCF_CONVERGENCE 6
THRESH 14
SCF_PRINT 1
$end
$molecule
0 1
S 2.170910 -0.102279 0.254432
C -0.601481 0.458228 0.044712
C 0.447848 -0.655213 0.081999
C -2.030218 -0.092919 -0.013823
H -0.474190 1.104572 0.919785
H -0.400117 1.083114 -0.835086
H 0.304803 -1.278265 0.980288
H 0.354488 -1.319594 -0.782208
H -2.270099 -0.681141 0.878875
H -2.759939 0.719893 -0.081222
H -2.172429 -0.739942 -0.886633
H 2.143022 1.407348 -1.738116
$end
$scan
stre 1 12 2.600000 2.601000 0.100000
$end
--------------------------------------------------------------

   11    -517.2084498852      3.50e-07  Convergence criterion met
 Total energy in the final basis set =     -517.2084498852
   11    -517.1997277542      6.59e-07  Convergence criterion met
 Total energy in the final basis set =     -517.1997277542
   11    -517.1995554944      6.63e-07  Convergence criterion met
 Total energy in the final basis set =     -517.1995554944

             Standard Nuclear Orientation (Angstroms)
    I     Atom           X                Y                Z
 ----------------------------------------------------------------
    1      S       2.1704778289    -0.1237157580     0.2781088813
    2      C      -0.5967208979     0.4547390887     0.0493554554
    3      C       0.4465767763    -0.6638135724     0.0917675419
    4      C      -2.0274253982    -0.0912911486    -0.0165022162
    5      H      -0.4720901887     1.1004528984     0.9252133230
    6      H      -0.3901905904     1.0796369598    -0.8289250372
    7      H       0.2904122162    -1.2856888656     0.9892027107
    8      H       0.3553457882    -1.3280212435    -0.7728793609
    9      H      -2.2752254474    -0.6784948061     0.8747329425
   10      H      -2.7535502511     0.7243613932    -0.0883116375
   11      H      -2.1669287158    -0.7377376536    -0.8901564365
   12      H       2.1319168799     1.4533747075    -1.7886031664
 ----------------------------------------------------------------

   11    -517.1995751190      6.54e-07  Convergence criterion met
 Total energy in the final basis set =     -517.1995751190

                    Orbital Energies (a.u.)
 --------------------------------------------------------------

 Alpha MOs
 -- Occupied --
-88.905 -10.227 -10.196 -10.185  -7.962  -5.928  -5.924  -5.915
 -0.812  -0.736  -0.637  -0.587  -0.479  -0.432  -0.409  -0.408
 -0.358  -0.345  -0.339  -0.276  -0.239

 Beta MOs
 -- Occupied --
-88.905 -10.227 -10.196 -10.185  -7.962  -5.928  -5.924  -5.915
 -0.812  -0.736  -0.637  -0.587  -0.479  -0.432  -0.409  -0.408
 -0.358  -0.345  -0.339  -0.276  -0.239

          Ground-State Mulliken Net Atomic Charges

     Atom                 Charge (a.u.)    Spin (a.u.)
  --------------------------------------------------------
      1 S                    -0.021247       0.000000
      2 C                    -0.162271      -0.000000
      3 C                    -0.340265       0.000000
      4 C                    -0.324356       0.000000
      5 H                     0.117411      -0.000000
      6 H                     0.110113      -0.000000
      7 H                     0.146858       0.000000
      8 H                     0.146379      -0.000000
      9 H                     0.106766       0.000000
     10 H                     0.112608      -0.000000
     11 H                     0.107651       0.000000
     12 H                     0.000354      -0.000000
  --------------------------------------------------------
  Sum of atomic charges =    -0.000000

                    Cartesian Multipole Moments
 -----------------------------------------------------------------
    Charge (ESU x 10^10)
                -0.0000
    Dipole Moment (Debye)
         X      -2.0046      Y      -0.5110      Z      -0.0233
       Tot       2.0689
    Quadrupole Moments (Debye-Ang)
        XX     -39.3533     XY      -0.0433     YY     -34.2419
        XZ      -0.1610     YZ      -1.6055     ZZ     -33.6288

 Final energy is   -517.199575118989
 **  OPTIMIZATION CONVERGED  **
 Total job time:  14.43s(wall), 162.47s(cpu)
        *  Thank you very much for using Q-Chem.  Have a nice day.  *
