 Q-Chem 5.1, Q-Chem, Inc., Pleasanton, CA (2018)
 Q-Chem 5.1.1 for Intel X86 EM64T Linux

User input:
--------------------------------------------------------------

$comment
potential surface scanner
$end

$rem
JOBTYPE  PES_SCAN
UNRESTRICTED TRUE
SYM_IGNORE  TRUE
GEOM_OPT_MAX_CYCLES 400
SCF_MAX_CYCLES 400
METHOD   B3LYP
BASIS   6-31G**
PDB_PRINT 2
SCF_CONVERGENCE 6
THRESH 14
SCF_PRINT 1
$end
$molecule
0 3
S 1.917063 0.256620 -0.989796
C -0.705528 0.137887 0.175979
C 0.476923 -0.553936 -0.436921
C -1.891746 -0.814454 0.371734
H -1.012845 0.981185 -0.457467
H 0.948452 2.451252 -1.002789
H -0.432430 0.582980 1.148991
H 0.651366 -1.605165 -0.214872
H -2.739413 -0.292896 0.826733
H -2.221452 -1.232583 -0.584221
H -1.621101 -1.648645 1.027806
H 1.343310 1.641562 -1.042178
$end
$scan
stre 1 12 1.400000 1.401000 0.100000
$end
--------------------------------------------------------------

   10    -517.1884135824      9.73e-07  Convergence criterion met
 Total energy in the final basis set =     -517.1884135824
   10    -517.1798095393      9.49e-07  Convergence criterion met
 Total energy in the final basis set =     -517.1798095393
   10    -517.1804185849      9.38e-07  Convergence criterion met
 Total energy in the final basis set =     -517.1804185849
   10    -517.1813311657      9.22e-07  Convergence criterion met
 Total energy in the final basis set =     -517.1813311657
   10    -517.1814876381      9.18e-07  Convergence criterion met
 Total energy in the final basis set =     -517.1814876381
   10    -517.1815185091      9.18e-07  Convergence criterion met
 Total energy in the final basis set =     -517.1815185091
   10    -517.1815218492      9.20e-07  Convergence criterion met
 Total energy in the final basis set =     -517.1815218492
   10    -517.1815233054      9.22e-07  Convergence criterion met
 Total energy in the final basis set =     -517.1815233054
   10    -517.1815258099      9.26e-07  Convergence criterion met
 Total energy in the final basis set =     -517.1815258099
   10    -517.1815278813      9.31e-07  Convergence criterion met
 Total energy in the final basis set =     -517.1815278813
   10    -517.1815291610      9.35e-07  Convergence criterion met
 Total energy in the final basis set =     -517.1815291610

             Standard Nuclear Orientation (Angstroms)
    I     Atom           X                Y                Z
 ----------------------------------------------------------------
    1      S       1.9183139944     0.2790430140    -0.9662048866
    2      C      -0.7022273561     0.1343660646     0.1959260103
    3      C       0.4790951595    -0.5500189313    -0.4239127816
    4      C      -1.8960921908    -0.8138941620     0.3652279534
    5      H      -1.0000352675     0.9934560213    -0.4210140116
    6      H       0.9153505519     2.5122268695    -1.0556807089
    7      H      -0.4316384016     0.5572910086     1.1795917124
    8      H       0.6633112319    -1.5999265413    -0.2073442362
    9      H      -2.7422127225    -0.2973494549     0.8286954739
   10      H      -2.2244957522    -1.2080731791    -0.6013034537
   11      H      -1.6336972732    -1.6646725122     1.0031061997
   12      H       1.3669270262     1.5613588028    -1.0740882712
 ----------------------------------------------------------------

   10    -517.1815298300      9.35e-07  Convergence criterion met
 Total energy in the final basis set =     -517.1815298300

                    Orbital Energies (a.u.)
 --------------------------------------------------------------

 Alpha MOs
 -- Occupied --
-88.893 -10.214 -10.199 -10.182  -7.956  -5.923  -5.917  -5.913
 -0.818  -0.757  -0.651  -0.591  -0.481  -0.456  -0.420  -0.418
 -0.367  -0.361  -0.342  -0.304  -0.264  -0.171

 Beta MOs
 -- Occupied --
-88.890 -10.201 -10.200 -10.182  -7.953  -5.916  -5.913  -5.908
 -0.799  -0.746  -0.639  -0.571  -0.456  -0.449  -0.410  -0.400
 -0.359  -0.354  -0.331  -0.272

          Ground-State Mulliken Net Atomic Charges

     Atom                 Charge (a.u.)    Spin (a.u.)
  --------------------------------------------------------
      1 S                     0.116306       0.518784
      2 C                    -0.181815      -0.043211
      3 C                    -0.264703       0.881985
      4 C                    -0.320956       0.003636
      5 H                     0.106774       0.015085
      6 H                     0.019290       0.694549
      7 H                     0.113280       0.053483
      8 H                     0.130045      -0.022087
      9 H                     0.106280      -0.000078
     10 H                     0.115935       0.001559
     11 H                     0.108642       0.000197
     12 H                    -0.049076      -0.103900
  --------------------------------------------------------
  Sum of atomic charges =    -0.000000

                    Cartesian Multipole Moments
 -----------------------------------------------------------------
    Charge (ESU x 10^10)
                 0.0000
    Dipole Moment (Debye)
         X      -1.1104      Y       0.2003      Z       0.6022
       Tot       1.2790
    Quadrupole Moments (Debye-Ang)
        XX     -36.8319     XY       0.0641     YY     -32.4529
        XZ       0.3886     YZ      -1.1054     ZZ     -36.5783

 Final energy is   -517.181529829980
 **  OPTIMIZATION CONVERGED  **
 Total job time:  39.35s(wall), 436.47s(cpu)
        *  Thank you very much for using Q-Chem.  Have a nice day.  *
