 Q-Chem 5.1, Q-Chem, Inc., Pleasanton, CA (2018)
 Q-Chem 5.1.1 for Intel X86 EM64T Linux

User input:
--------------------------------------------------------------

$comment
potential surface scanner
$end

$rem
JOBTYPE  PES_SCAN
UNRESTRICTED TRUE
SYM_IGNORE  TRUE
GEOM_OPT_MAX_CYCLES 400
SCF_MAX_CYCLES 400
METHOD   B3LYP
BASIS   6-31G**
PDB_PRINT 2
SCF_CONVERGENCE 6
THRESH 14
SCF_PRINT 1
$end
$molecule
0 3
S 0.327499 -1.497859 0.369921
S -2.245993 0.472591 0.354587
C 0.479991 0.262043 -0.209581
C -0.553776 1.135403 0.505486
C 1.904765 0.799513 -0.075153
H 0.203561 0.185272 -1.265914
H -0.286806 1.252767 1.561875
H -0.571320 2.141027 0.062282
H 1.971563 1.810295 -0.494808
H 2.211216 0.852081 0.974957
H 2.615941 0.160998 -0.604716
H 0.684853 -1.263325 1.650821
H -2.501798 -3.185804 -0.640757
$end
$scan
stre 2 13 3.700000 3.701000 0.100000
$end
--------------------------------------------------------------

   10    -915.3840954556      9.57e-07  Convergence criterion met
 Total energy in the final basis set =     -915.3840954556
   11    -915.3840556612      4.17e-07  Convergence criterion met
 Total energy in the final basis set =     -915.3840556612
   11    -915.3840609034      4.18e-07  Convergence criterion met
 Total energy in the final basis set =     -915.3840609034
   11    -915.3840753953      4.33e-07  Convergence criterion met
 Total energy in the final basis set =     -915.3840753953
   11    -915.3840764496      4.36e-07  Convergence criterion met
 Total energy in the final basis set =     -915.3840764496
   10    -915.3840794143      9.97e-07  Convergence criterion met
 Total energy in the final basis set =     -915.3840794143

             Standard Nuclear Orientation (Angstroms)
    I     Atom           X                Y                Z
 ----------------------------------------------------------------
    1      S       0.3422251647    -1.5051915536     0.3764269362
    2      S      -2.2447673428     0.4444601403     0.3541953486
    3      C       0.4827405573     0.2538604054    -0.2090805215
    4      C      -0.5581556455     1.1220930712     0.5021839790
    5      C       1.9034638603     0.8019050404    -0.0753769774
    6      H       0.2076418641     0.1715532632    -1.2653572757
    7      H      -0.2923107030     1.2455188180     1.5582076249
    8      H      -0.5833809901     2.1258314239     0.0552293907
    9      H       1.9634862867     1.8112746526    -0.4993838659
   10      H       2.2083849883     0.8612177378     0.9748453603
   11      H       2.6197460748     0.1661356825    -0.6013681843
   12      H       0.6958266920    -1.2633073885     1.6570077009
   13      H      -2.5052048070    -3.1103492932    -0.6385295156
 ----------------------------------------------------------------

   10    -915.3840799150      9.87e-07  Convergence criterion met
 Total energy in the final basis set =     -915.3840799150

                    Orbital Energies (a.u.)
 --------------------------------------------------------------

 Alpha MOs
 -- Occupied --
-88.889 -88.883 -10.243 -10.230 -10.199  -7.951  -7.943  -5.916
 -5.914  -5.912  -5.907  -5.905  -5.896  -0.842  -0.755  -0.720
 -0.644  -0.588  -0.481  -0.451  -0.435  -0.419  -0.401  -0.364
 -0.351  -0.331  -0.298  -0.278  -0.246  -0.238

 Beta MOs
 -- Occupied --
-88.888 -88.878 -10.243 -10.230 -10.199  -7.950  -7.938  -5.915
 -5.912  -5.905  -5.902  -5.897  -5.893  -0.840  -0.743  -0.718
 -0.625  -0.582  -0.477  -0.449  -0.431  -0.416  -0.399  -0.363
 -0.343  -0.326  -0.251  -0.225

          Ground-State Mulliken Net Atomic Charges

     Atom                 Charge (a.u.)    Spin (a.u.)
  --------------------------------------------------------
      1 S                    -0.006157       0.072484
      2 S                    -0.005501       0.931877
      3 C                    -0.211592       0.008356
      4 C                    -0.327112      -0.027636
      5 C                    -0.308240      -0.000205
      6 H                     0.155561      -0.000996
      7 H                     0.137564       0.004404
      8 H                     0.146274       0.020627
      9 H                     0.114488       0.000844
     10 H                     0.111926       0.000017
     11 H                     0.132007       0.000040
     12 H                     0.061975      -0.000974
     13 H                    -0.001193       0.991163
  --------------------------------------------------------
  Sum of atomic charges =     0.000000

                    Cartesian Multipole Moments
 -----------------------------------------------------------------
    Charge (ESU x 10^10)
                 0.0000
    Dipole Moment (Debye)
         X       2.4854      Y       1.8026      Z       0.2994
       Tot       3.0848
    Quadrupole Moments (Debye-Ang)
        XX     -52.3781     XY       0.8093     YY     -47.5996
        XZ       1.7462     YZ      -1.4384     ZZ     -45.6191

 Final energy is   -915.384079914976
 **  OPTIMIZATION CONVERGED  **
 Total job time:  30.42s(wall), 351.82s(cpu)
        *  Thank you very much for using Q-Chem.  Have a nice day.  *
