 Q-Chem 5.1, Q-Chem, Inc., Pleasanton, CA (2018)
 Q-Chem 5.1.1 for Intel X86 EM64T Linux

User input:
--------------------------------------------------------------

$comment
potential surface scanner
$end

$rem
JOBTYPE  PES_SCAN
UNRESTRICTED TRUE
SYM_IGNORE  TRUE
GEOM_OPT_MAX_CYCLES 400
SCF_MAX_CYCLES 400
METHOD   B3LYP
BASIS   6-31G**
PDB_PRINT 2
SCF_CONVERGENCE 6
THRESH 14
SCF_PRINT 1
$end
$molecule
0 1
S 0.621451 -1.697146 0.214057
S -2.353452 0.170481 -0.145983
C 0.497965 0.086861 -0.280110
C -0.705672 0.795228 0.361343
C 1.802454 0.838059 0.003786
H 0.333650 0.026469 -1.360774
H -0.618402 0.778354 1.452707
H -0.699869 1.846107 0.049746
H 1.740118 1.861998 -0.382099
H 1.997863 0.897819 1.080105
H 2.653043 0.341455 -0.468558
H 0.936808 -1.468865 1.506316
H -1.966259 -1.351818 0.158465
$end
$scan
stre 2 13 1.700000 1.701000 0.100000
$end
--------------------------------------------------------------

    9    -915.5069746936      3.35e-07  Convergence criterion met
 Total energy in the final basis set =     -915.5069746936
    9    -915.4943998558      6.21e-07  Convergence criterion met
 Total energy in the final basis set =     -915.4943998558
    9    -915.4941868773      6.48e-07  Convergence criterion met
 Total energy in the final basis set =     -915.4941868773
    9    -915.4943591589      7.02e-07  Convergence criterion met
 Total energy in the final basis set =     -915.4943591589
    9    -915.4944248852      7.31e-07  Convergence criterion met
 Total energy in the final basis set =     -915.4944248852
    9    -915.4945038588      7.32e-07  Convergence criterion met
 Total energy in the final basis set =     -915.4945038588
    9    -915.4945947115      7.32e-07  Convergence criterion met
 Total energy in the final basis set =     -915.4945947115
    9    -915.4946294983      7.35e-07  Convergence criterion met
 Total energy in the final basis set =     -915.4946294983
    9    -915.4946415258      7.38e-07  Convergence criterion met
 Total energy in the final basis set =     -915.4946415258
    9    -915.4946436207      7.37e-07  Convergence criterion met
 Total energy in the final basis set =     -915.4946436207

             Standard Nuclear Orientation (Angstroms)
    I     Atom           X                Y                Z
 ----------------------------------------------------------------
    1      S       0.5507073646    -1.6870713216     0.1797918803
    2      S      -2.3539267808     0.1201660826    -0.0403979341
    3      C       0.4753190642     0.1103758060    -0.2861866220
    4      C      -0.7164480928     0.8379876195     0.3612894958
    5      C       1.7985535833     0.8206525046     0.0091261069
    6      H       0.3096811549     0.0611675080    -1.3674406814
    7      H      -0.5783967528     0.8829601300     1.4475379233
    8      H      -0.7277387377     1.8683935820    -0.0109765218
    9      H       1.7550434609     1.8529233761    -0.3564207831
   10      H       1.9974556285     0.8557966850     1.0855720446
   11      H       2.6379506488     0.3180100521    -0.4767031136
   12      H       0.7473222793    -1.4971919056     1.5022645805
   13      H      -1.6558248204    -1.4191681186     0.1415446246
 ----------------------------------------------------------------

    9    -915.4946445058      7.39e-07  Convergence criterion met
 Total energy in the final basis set =     -915.4946445058

                    Orbital Energies (a.u.)
 --------------------------------------------------------------

 Alpha MOs
 -- Occupied --
-88.900 -88.866 -10.247 -10.225 -10.201  -7.962  -7.926  -5.926
 -5.923  -5.917  -5.890  -5.888  -5.880  -0.842  -0.748  -0.725
 -0.638  -0.588  -0.478  -0.454  -0.437  -0.417  -0.405  -0.369
 -0.359  -0.332  -0.319  -0.254  -0.223

 Beta MOs
 -- Occupied --
-88.900 -88.866 -10.247 -10.225 -10.201  -7.962  -7.926  -5.926
 -5.923  -5.917  -5.890  -5.888  -5.880  -0.842  -0.748  -0.725
 -0.638  -0.588  -0.478  -0.454  -0.437  -0.417  -0.405  -0.369
 -0.359  -0.332  -0.319  -0.254  -0.223

          Ground-State Mulliken Net Atomic Charges

     Atom                 Charge (a.u.)    Spin (a.u.)
  --------------------------------------------------------
      1 S                    -0.005428      -0.000000
      2 S                    -0.103477      -0.000000
      3 C                    -0.219303      -0.000000
      4 C                    -0.310471       0.000000
      5 C                    -0.308460       0.000000
      6 H                     0.159818       0.000000
      7 H                     0.130986      -0.000000
      8 H                     0.142921      -0.000000
      9 H                     0.118186       0.000000
     10 H                     0.113281      -0.000000
     11 H                     0.131464      -0.000000
     12 H                     0.076658       0.000000
     13 H                     0.073824       0.000000
  --------------------------------------------------------
  Sum of atomic charges =    -0.000000

                    Cartesian Multipole Moments
 -----------------------------------------------------------------
    Charge (ESU x 10^10)
                 0.0000
    Dipole Moment (Debye)
         X       2.8960      Y       0.9793      Z       0.7984
       Tot       3.1596
    Quadrupole Moments (Debye-Ang)
        XX     -54.7415     XY       1.6864     YY     -46.6394
        XZ       0.6095     YZ      -1.4856     ZZ     -45.7592

 Final energy is   -915.494644505842
 **  OPTIMIZATION CONVERGED  **
 Total job time:  44.62s(wall), 509.88s(cpu)
        *  Thank you very much for using Q-Chem.  Have a nice day.  *
