 Q-Chem 5.1, Q-Chem, Inc., Pleasanton, CA (2018)
 Q-Chem 5.1.1 for Intel X86 EM64T Linux

User input:
--------------------------------------------------------------

$comment
potential surface scanner
$end

$rem
JOBTYPE  PES_SCAN
UNRESTRICTED TRUE
SYM_IGNORE  TRUE
GEOM_OPT_MAX_CYCLES 400
SCF_MAX_CYCLES 400
METHOD   B3LYP
BASIS   6-31G**
PDB_PRINT 2
SCF_CONVERGENCE 6
THRESH 14
SCF_PRINT 1
$end
$molecule
0 3
S 0.523926 -1.504139 1.091794
S -2.198731 0.100711 0.887058
C 0.430812 -0.001356 0.001003
C -0.622909 0.961727 0.553636
C 1.792837 0.658045 -0.211251
H 0.059854 -0.419158 -0.941096
H -0.254945 1.443430 1.466479
H -0.833466 1.755715 -0.175579
H 1.702258 1.498415 -0.909491
H 2.196834 1.046552 0.729775
H 2.512737 -0.053870 -0.622395
H 0.956398 -0.858004 2.195707
H -2.025907 -1.503066 -1.876641
$end
$scan
stre 2 13 3.100000 3.101000 0.100000
$end
--------------------------------------------------------------

   11    -915.3850221438      4.94e-07  Convergence criterion met
 Total energy in the final basis set =     -915.3850221438
   11    -915.3851588590      5.15e-07  Convergence criterion met
 Total energy in the final basis set =     -915.3851588590
   11    -915.3851714765      5.19e-07  Convergence criterion met
 Total energy in the final basis set =     -915.3851714765
   11    -915.3851920106      5.34e-07  Convergence criterion met
 Total energy in the final basis set =     -915.3851920106
   11    -915.3851934564      5.34e-07  Convergence criterion met
 Total energy in the final basis set =     -915.3851934564
   11    -915.3851958788      5.31e-07  Convergence criterion met
 Total energy in the final basis set =     -915.3851958788

             Standard Nuclear Orientation (Angstroms)
    I     Atom           X                Y                Z
 ----------------------------------------------------------------
    1      S       0.5249880788    -1.5071820960     1.0835576537
    2      S      -2.1982090202     0.0849590103     0.8638996604
    3      C       0.4356948189    -0.0033590473    -0.0062772767
    4      C      -0.6245843296     0.9547111163     0.5413112597
    5      C       1.7965777500     0.6611363301    -0.2083655469
    6      H       0.0728014775    -0.4216217798    -0.9509405281
    7      H      -0.2646867086     1.4329704783     1.4591286721
    8      H      -0.8334504151     1.7508073218    -0.1858243147
    9      H       1.7071199605     1.5021185751    -0.9060199247
   10      H       2.1933467414     1.0499635030     0.7356078582
   11      H       2.5221187863    -0.0470506920    -0.6161328428
   12      H       0.9472973511    -0.8614164053     2.1916521024
   13      H      -2.0393164911    -1.4710343145    -1.8125977725
 ----------------------------------------------------------------

   11    -915.3851963408      5.30e-07  Convergence criterion met
 Total energy in the final basis set =     -915.3851963408

                    Orbital Energies (a.u.)
 --------------------------------------------------------------

 Alpha MOs
 -- Occupied --
-88.893 -88.886 -10.245 -10.231 -10.200  -7.955  -7.946  -5.919
 -5.916  -5.916  -5.911  -5.908  -5.899  -0.845  -0.756  -0.723
 -0.646  -0.590  -0.482  -0.452  -0.437  -0.420  -0.403  -0.365
 -0.353  -0.332  -0.299  -0.284  -0.247  -0.234

 Beta MOs
 -- Occupied --
-88.892 -88.880 -10.244 -10.231 -10.200  -7.954  -7.940  -5.919
 -5.915  -5.909  -5.904  -5.899  -5.895  -0.842  -0.743  -0.720
 -0.626  -0.583  -0.479  -0.450  -0.432  -0.418  -0.401  -0.364
 -0.344  -0.328  -0.254  -0.227

          Ground-State Mulliken Net Atomic Charges

     Atom                 Charge (a.u.)    Spin (a.u.)
  --------------------------------------------------------
      1 S                     0.003496       0.093105
      2 S                     0.003085       0.945299
      3 C                    -0.213974       0.018586
      4 C                    -0.325605      -0.029550
      5 C                    -0.307928      -0.000983
      6 H                     0.155410      -0.004691
      7 H                     0.136581       0.004058
      8 H                     0.147206       0.017319
      9 H                     0.116079       0.000689
     10 H                     0.112061       0.000608
     11 H                     0.132135       0.000296
     12 H                     0.064957      -0.003082
     13 H                    -0.023505       0.958347
  --------------------------------------------------------
  Sum of atomic charges =    -0.000000

                    Cartesian Multipole Moments
 -----------------------------------------------------------------
    Charge (ESU x 10^10)
                -0.0000
    Dipole Moment (Debye)
         X       2.4132      Y       2.0826      Z      -0.2788
       Tot       3.1997
    Quadrupole Moments (Debye-Ang)
        XX     -51.9741     XY      -0.1021     YY     -48.7672
        XZ       2.5461     YZ      -0.1203     ZZ     -46.2420

 Final energy is   -915.385196340827
 **  OPTIMIZATION CONVERGED  **
 Total job time:  31.96s(wall), 367.96s(cpu)
        *  Thank you very much for using Q-Chem.  Have a nice day.  *
