 Q-Chem 5.1, Q-Chem, Inc., Pleasanton, CA (2018)
 Q-Chem 5.1.1 for Intel X86 EM64T Linux

User input:
--------------------------------------------------------------

$comment
potential surface scanner
$end

$rem
JOBTYPE  PES_SCAN
UNRESTRICTED TRUE
SYM_IGNORE  TRUE
GEOM_OPT_MAX_CYCLES 400
SCF_MAX_CYCLES 400
METHOD   B3LYP
BASIS   6-31G**
PDB_PRINT 2
SCF_CONVERGENCE 6
THRESH 14
SCF_PRINT 1
$end
$molecule
0 3
S 0.342225 -1.505192 0.376427
S -2.244767 0.444460 0.354195
C 0.482741 0.253860 -0.209081
C -0.558156 1.122093 0.502184
C 1.903464 0.801905 -0.075377
H 0.207642 0.171553 -1.265357
H -0.292311 1.245519 1.558208
H -0.583381 2.125831 0.055229
H 1.963486 1.811275 -0.499384
H 2.208385 0.861218 0.974845
H 2.619746 0.166136 -0.601368
H 0.695827 -1.263307 1.657008
H -2.505205 -3.110349 -0.638530
$end
$scan
stre 2 13 3.600000 3.601000 0.100000
$end
--------------------------------------------------------------

   10    -915.3840799148      9.87e-07  Convergence criterion met
 Total energy in the final basis set =     -915.3840799148
   11    -915.3840165707      4.19e-07  Convergence criterion met
 Total energy in the final basis set =     -915.3840165707
   11    -915.3840327456      4.18e-07  Convergence criterion met
 Total energy in the final basis set =     -915.3840327456
   11    -915.3840531307      4.27e-07  Convergence criterion met
 Total energy in the final basis set =     -915.3840531307
   11    -915.3840545642      4.30e-07  Convergence criterion met
 Total energy in the final basis set =     -915.3840545642
   11    -915.3840580786      4.46e-07  Convergence criterion met
 Total energy in the final basis set =     -915.3840580786

             Standard Nuclear Orientation (Angstroms)
    I     Atom           X                Y                Z
 ----------------------------------------------------------------
    1      S       0.3567652854    -1.5118137922     0.3802508338
    2      S      -2.2426180644     0.4150625013     0.3472698965
    3      C       0.4864265025     0.2468779933    -0.2096235203
    4      C      -0.5628409026     1.1084192764     0.4979178368
    5      C       1.9029385745     0.8053692125    -0.0743521612
    6      H       0.2140262467     0.1600049934    -1.2661811284
    7      H      -0.3001444517     1.2345465899     1.5544109084
    8      H      -0.5944040224     2.1115132638     0.0499723228
    9      H       1.9563437686     1.8137723852    -0.5014099252
   10      H       2.2048977236     0.8703264265     0.9764395824
   11      H       2.6254255761     0.1733905246    -0.5965012787
   12      H       0.7114455097    -1.2632934183     1.6592937976
   13      H      -2.5185657459    -3.0391739563    -0.6284881645
 ----------------------------------------------------------------

   11    -915.3840587080      4.50e-07  Convergence criterion met
 Total energy in the final basis set =     -915.3840587080

                    Orbital Energies (a.u.)
 --------------------------------------------------------------

 Alpha MOs
 -- Occupied --
-88.889 -88.883 -10.243 -10.230 -10.199  -7.951  -7.943  -5.916
 -5.914  -5.912  -5.907  -5.905  -5.896  -0.842  -0.755  -0.720
 -0.644  -0.588  -0.481  -0.451  -0.435  -0.419  -0.401  -0.364
 -0.351  -0.331  -0.298  -0.278  -0.246  -0.238

 Beta MOs
 -- Occupied --
-88.889 -88.878 -10.243 -10.230 -10.199  -7.951  -7.938  -5.915
 -5.912  -5.905  -5.902  -5.897  -5.893  -0.840  -0.743  -0.718
 -0.625  -0.582  -0.477  -0.449  -0.431  -0.416  -0.399  -0.363
 -0.343  -0.327  -0.251  -0.225

          Ground-State Mulliken Net Atomic Charges

     Atom                 Charge (a.u.)    Spin (a.u.)
  --------------------------------------------------------
      1 S                    -0.005503       0.073727
      2 S                    -0.005644       0.931478
      3 C                    -0.211676       0.008198
      4 C                    -0.327041      -0.027404
      5 C                    -0.308425      -0.000201
      6 H                     0.155617      -0.001004
      7 H                     0.137548       0.004528
      8 H                     0.146204       0.020575
      9 H                     0.114625       0.000842
     10 H                     0.111905       0.000016
     11 H                     0.132041       0.000037
     12 H                     0.061974      -0.001014
     13 H                    -0.001623       0.990223
  --------------------------------------------------------
  Sum of atomic charges =     0.000000

                    Cartesian Multipole Moments
 -----------------------------------------------------------------
    Charge (ESU x 10^10)
                -0.0000
    Dipole Moment (Debye)
         X       2.4843      Y       1.8239      Z       0.3009
       Tot       3.0966
    Quadrupole Moments (Debye-Ang)
        XX     -52.3780     XY       0.7410     YY     -47.6424
        XZ       1.7484     YZ      -1.4283     ZZ     -45.6099

 Final energy is   -915.384058708019
 **  OPTIMIZATION CONVERGED  **
 Total job time:  31.27s(wall), 359.71s(cpu)
        *  Thank you very much for using Q-Chem.  Have a nice day.  *
