 Q-Chem 5.1, Q-Chem, Inc., Pleasanton, CA (2018)
 Q-Chem 5.1.1 for Intel X86 EM64T Linux

User input:
--------------------------------------------------------------

$comment
potential surface scanner
$end

$rem
JOBTYPE  PES_SCAN
UNRESTRICTED TRUE
SYM_IGNORE  TRUE
GEOM_OPT_MAX_CYCLES 400
SCF_MAX_CYCLES 400
METHOD   B3LYP
BASIS   6-31G**
PDB_PRINT 2
SCF_CONVERGENCE 6
THRESH 14
SCF_PRINT 1
$end
$molecule
0 3
S 0.296950 -1.484082 0.358517
S -2.250351 0.534386 0.353212
C 0.473658 0.276225 -0.209042
C -0.546028 1.161664 0.512067
C 1.906229 0.793729 -0.075232
H 0.194696 0.211012 -1.265533
H -0.278584 1.266714 1.569691
H -0.544918 2.171672 0.077907
H 1.984778 1.806796 -0.487058
H 2.217372 0.833528 0.974072
H 2.606645 0.149755 -0.612464
H 0.666148 -1.264804 1.638779
H -2.486898 -3.331592 -0.645917
$end
$scan
stre 2 13 3.900000 3.901000 0.100000
$end
--------------------------------------------------------------

   10    -915.3841174566      9.19e-07  Convergence criterion met
 Total energy in the final basis set =     -915.3841174566
   11    -915.3840823120      4.36e-07  Convergence criterion met
 Total energy in the final basis set =     -915.3840823120
   11    -915.3840882119      4.41e-07  Convergence criterion met
 Total energy in the final basis set =     -915.3840882119
   10    -915.3841045340      9.74e-07  Convergence criterion met
 Total energy in the final basis set =     -915.3841045340

             Standard Nuclear Orientation (Angstroms)
    I     Atom           X                Y                Z
 ----------------------------------------------------------------
    1      S       0.3094937458    -1.4887876580     0.3651221391
    2      S      -2.2452263056     0.4967577617     0.3508272836
    3      C       0.4783554484     0.2714532630    -0.2085094904
    4      C      -0.5496070379     1.1505456415     0.5094640041
    5      C       1.9076857704     0.7967883950    -0.0757559991
    6      H       0.1992994086     0.2001372194    -1.2645913574
    7      H      -0.2841599321     1.2590268745     1.5671999279
    8      H      -0.5596330196     2.1593383415     0.0731268679
    9      H       1.9803908088     1.8084137860    -0.4920186957
   10      H       2.2183594516     0.8429948923     0.9734730744
   11      H       2.6117611578     0.1543901611    -0.6101725123
   12      H       0.6730548127    -1.2606176050     1.6454630780
   13      H      -2.5000773089    -3.2654380729    -0.6446293200
 ----------------------------------------------------------------

   10    -915.3841054158      9.67e-07  Convergence criterion met
 Total energy in the final basis set =     -915.3841054158

                    Orbital Energies (a.u.)
 --------------------------------------------------------------

 Alpha MOs
 -- Occupied --
-88.889 -88.883 -10.243 -10.230 -10.199  -7.951  -7.943  -5.916
 -5.914  -5.912  -5.907  -5.905  -5.896  -0.842  -0.755  -0.720
 -0.644  -0.588  -0.481  -0.451  -0.435  -0.419  -0.401  -0.363
 -0.350  -0.331  -0.299  -0.279  -0.246  -0.238

 Beta MOs
 -- Occupied --
-88.888 -88.878 -10.243 -10.230 -10.199  -7.950  -7.938  -5.915
 -5.912  -5.905  -5.902  -5.897  -5.893  -0.839  -0.743  -0.718
 -0.625  -0.582  -0.477  -0.449  -0.431  -0.416  -0.399  -0.362
 -0.343  -0.327  -0.251  -0.225

          Ground-State Mulliken Net Atomic Charges

     Atom                 Charge (a.u.)    Spin (a.u.)
  --------------------------------------------------------
      1 S                    -0.006294       0.072018
      2 S                    -0.005971       0.931175
      3 C                    -0.212030       0.008497
      4 C                    -0.326711      -0.028004
      5 C                    -0.308141      -0.000221
      6 H                     0.155599      -0.000993
      7 H                     0.137481       0.004294
      8 H                     0.146078       0.020402
      9 H                     0.114546       0.000831
     10 H                     0.111909       0.000015
     11 H                     0.131954       0.000046
     12 H                     0.061947      -0.001002
     13 H                    -0.000365       0.992942
  --------------------------------------------------------
  Sum of atomic charges =     0.000000

                    Cartesian Multipole Moments
 -----------------------------------------------------------------
    Charge (ESU x 10^10)
                 0.0000
    Dipole Moment (Debye)
         X       2.5066      Y       1.7514      Z       0.3107
       Tot       3.0736
    Quadrupole Moments (Debye-Ang)
        XX     -52.3616     XY       0.9391     YY     -47.4815
        XZ       1.7356     YZ      -1.4422     ZZ     -45.6551

 Final energy is   -915.384105415792
 **  OPTIMIZATION CONVERGED  **
 Total job time:  21.87s(wall), 249.96s(cpu)
        *  Thank you very much for using Q-Chem.  Have a nice day.  *
