 Q-Chem 5.1, Q-Chem, Inc., Pleasanton, CA (2018)
 Q-Chem 5.1.1 for Intel X86 EM64T Linux

User input:
--------------------------------------------------------------

$comment
potential surface scanner
$end

$rem
JOBTYPE  PES_SCAN
UNRESTRICTED TRUE
SYM_IGNORE  TRUE
GEOM_OPT_MAX_CYCLES 400
SCF_MAX_CYCLES 400
METHOD   B3LYP
BASIS   6-31G**
PDB_PRINT 2
SCF_CONVERGENCE 6
THRESH 14
SCF_PRINT 1
$end
$molecule
0 3
S 0.513152 -1.503050 1.099328
S -2.228666 0.162660 0.877585
C 0.413712 -0.000769 0.010241
C -0.623688 0.974450 0.572365
C 1.776955 0.650808 -0.219708
H 0.029880 -0.417156 -0.927102
H -0.252377 1.431622 1.496320
H -0.809538 1.787828 -0.142789
H 1.683390 1.488641 -0.920566
H 2.193103 1.041639 0.715210
H 2.489413 -0.066313 -0.634798
H 0.999552 -0.864831 2.185376
H -1.945190 -1.560526 -1.922464
$end
$scan
stre 2 13 3.200000 3.201000 0.100000
$end
--------------------------------------------------------------

   11    -915.3848651116      4.68e-07  Convergence criterion met
 Total energy in the final basis set =     -915.3848651116
   11    -915.3849697256      4.95e-07  Convergence criterion met
 Total energy in the final basis set =     -915.3849697256
   11    -915.3849822727      5.01e-07  Convergence criterion met
 Total energy in the final basis set =     -915.3849822727
   11    -915.3850013515      5.20e-07  Convergence criterion met
 Total energy in the final basis set =     -915.3850013515
   11    -915.3850036069      5.19e-07  Convergence criterion met
 Total energy in the final basis set =     -915.3850036069
   11    -915.3850081397      5.10e-07  Convergence criterion met
 Total energy in the final basis set =     -915.3850081397
   11    -915.3850092698      5.06e-07  Convergence criterion met
 Total energy in the final basis set =     -915.3850092698
   11    -915.3850112472      5.00e-07  Convergence criterion met
 Total energy in the final basis set =     -915.3850112472
   11    -915.3850131526      4.96e-07  Convergence criterion met
 Total energy in the final basis set =     -915.3850131526
   11    -915.3850156365      4.94e-07  Convergence criterion met
 Total energy in the final basis set =     -915.3850156365
   11    -915.3850179584      4.94e-07  Convergence criterion met
 Total energy in the final basis set =     -915.3850179584
   11    -915.3850200714      4.95e-07  Convergence criterion met
 Total energy in the final basis set =     -915.3850200714
   11    -915.3850214451      4.95e-07  Convergence criterion met
 Total energy in the final basis set =     -915.3850214451

             Standard Nuclear Orientation (Angstroms)
    I     Atom           X                Y                Z
 ----------------------------------------------------------------
    1      S       0.5239260997    -1.5041387335     1.0917938306
    2      S      -2.1987314084     0.1007106808     0.8870579545
    3      C       0.4308119660    -0.0013557512     0.0010025615
    4      C      -0.6229088578     0.9617267830     0.5536360170
    5      C       1.7928371425     0.6580452683    -0.2112505818
    6      H       0.0598544941    -0.4191584062    -0.9410957813
    7      H      -0.2549451269     1.4434301098     1.4664789360
    8      H      -0.8334660349     1.7557146202    -0.1755794762
    9      H       1.7022575347     1.4984154903    -0.9094907824
   10      H       2.1968336948     1.0465520409     0.7297746079
   11      H       2.5127372547    -0.0538695199    -0.6223949328
   12      H       0.9563984903    -0.8580039532     2.1957069975
   13      H      -2.0259072488    -1.5030656292    -1.8766413506
 ----------------------------------------------------------------

   11    -915.3850221444      4.94e-07  Convergence criterion met
 Total energy in the final basis set =     -915.3850221444

                    Orbital Energies (a.u.)
 --------------------------------------------------------------

 Alpha MOs
 -- Occupied --
-88.892 -88.885 -10.244 -10.230 -10.199  -7.954  -7.945  -5.919
 -5.915  -5.915  -5.910  -5.907  -5.898  -0.844  -0.756  -0.722
 -0.645  -0.589  -0.482  -0.452  -0.436  -0.420  -0.403  -0.365
 -0.352  -0.332  -0.301  -0.283  -0.247  -0.235

 Beta MOs
 -- Occupied --
-88.892 -88.879 -10.244 -10.231 -10.200  -7.954  -7.939  -5.918
 -5.915  -5.908  -5.903  -5.898  -5.894  -0.841  -0.743  -0.720
 -0.626  -0.582  -0.478  -0.450  -0.432  -0.418  -0.401  -0.363
 -0.344  -0.327  -0.253  -0.227

          Ground-State Mulliken Net Atomic Charges

     Atom                 Charge (a.u.)    Spin (a.u.)
  --------------------------------------------------------
      1 S                     0.002223       0.090786
      2 S                    -0.000664       0.940153
      3 C                    -0.213766       0.018636
      4 C                    -0.325398      -0.029293
      5 C                    -0.307834      -0.000919
      6 H                     0.154517      -0.004859
      7 H                     0.136387       0.003885
      8 H                     0.146842       0.017523
      9 H                     0.115847       0.000679
     10 H                     0.112077       0.000580
     11 H                     0.132049       0.000289
     12 H                     0.064855      -0.002983
     13 H                    -0.017136       0.965522
  --------------------------------------------------------
  Sum of atomic charges =     0.000000

                    Cartesian Multipole Moments
 -----------------------------------------------------------------
    Charge (ESU x 10^10)
                 0.0000
    Dipole Moment (Debye)
         X       2.3898      Y       2.0398      Z      -0.3633
       Tot       3.1629
    Quadrupole Moments (Debye-Ang)
        XX     -51.9427     XY       0.0167     YY     -48.7337
        XZ       2.7513     YZ      -0.0424     ZZ     -46.2364

 Final energy is   -915.385022144443
 **  OPTIMIZATION CONVERGED  **
 Total job time:  63.56s(wall), 728.90s(cpu)
        *  Thank you very much for using Q-Chem.  Have a nice day.  *
