 Q-Chem 5.1, Q-Chem, Inc., Pleasanton, CA (2018)
 Q-Chem 5.1.1 for Intel X86 EM64T Linux

User input:
--------------------------------------------------------------

$comment
potential surface scanner
$end

$rem
JOBTYPE  PES_SCAN
UNRESTRICTED TRUE
SYM_IGNORE  TRUE
GEOM_OPT_MAX_CYCLES 400
SCF_MAX_CYCLES 400
METHOD   B3LYP
BASIS   6-31G**
PDB_PRINT 2
SCF_CONVERGENCE 6
THRESH 14
SCF_PRINT 1
$end
$molecule
0 1
S 0.653000 -1.655100 0.136100
S -2.273700 -0.042700 -0.103500
C 0.513800 0.101500 -0.361300
C -0.697000 0.778900 0.292500
C 1.803900 0.817400 0.036300
H 0.414100 0.130900 -1.452400
H -0.592400 0.804400 1.383200
H -0.770600 1.816900 -0.049700
H 1.768400 1.866200 -0.278900
H 1.962400 0.805000 1.120700
H 2.677400 0.363600 -0.445400
H 0.755100 -1.437500 1.455700
H -1.974700 -1.224500 0.455700
$end
$scan
stre 2 13 1.300000 1.301000 0.100000
$end
--------------------------------------------------------------

    9    -915.5220086792      2.35e-07  Convergence criterion met
 Total energy in the final basis set =     -915.5220086792
    9    -915.5238191889      2.53e-07  Convergence criterion met
 Total energy in the final basis set =     -915.5238191889
    9    -915.5244047371      2.54e-07  Convergence criterion met
 Total energy in the final basis set =     -915.5244047371
    9    -915.5246806044      2.51e-07  Convergence criterion met
 Total energy in the final basis set =     -915.5246806044
    9    -915.5248155004      2.50e-07  Convergence criterion met
 Total energy in the final basis set =     -915.5248155004
    9    -915.5249197852      2.50e-07  Convergence criterion met
 Total energy in the final basis set =     -915.5249197852
    9    -915.5249485598      2.51e-07  Convergence criterion met
 Total energy in the final basis set =     -915.5249485598
    9    -915.5249562581      2.52e-07  Convergence criterion met
 Total energy in the final basis set =     -915.5249562581
    9    -915.5249601815      2.52e-07  Convergence criterion met
 Total energy in the final basis set =     -915.5249601815
    9    -915.5249653199      2.52e-07  Convergence criterion met
 Total energy in the final basis set =     -915.5249653199
    9    -915.5249682732      2.52e-07  Convergence criterion met
 Total energy in the final basis set =     -915.5249682732

             Standard Nuclear Orientation (Angstroms)
    I     Atom           X                Y                Z
 ----------------------------------------------------------------
    1      S       0.6794365323    -1.7142483168     0.2188128445
    2      S      -2.3381010832     0.1036061990    -0.1882452962
    3      C       0.5189872275     0.0650579113    -0.2807200189
    4      C      -0.7036975009     0.7442736329     0.3526578213
    5      C       1.8032243526     0.8496692678     0.0070213064
    6      H       0.3617961610     0.0005631459    -1.3621135804
    7      H      -0.6370265063     0.7125013197     1.4448901409
    8      H      -0.7176342199     1.7995913615     0.0596025340
    9      H       1.7173684239     1.8726159592    -0.3770430477
   10      H       1.9955135135     0.9119032316     1.0838507884
   11      H       2.6662996222     0.3742328036    -0.4644783443
   12      H       1.0346836516    -1.4724422792     1.4979063314
   13      H      -2.1411501743    -1.1223242364     0.1968585205
 ----------------------------------------------------------------

    9    -915.5249692077      2.51e-07  Convergence criterion met
 Total energy in the final basis set =     -915.5249692077

                    Orbital Energies (a.u.)
 --------------------------------------------------------------

 Alpha MOs
 -- Occupied --
-88.881 -88.869 -10.240 -10.229 -10.197  -7.943  -7.933  -5.908
 -5.904  -5.898  -5.898  -5.895  -5.888  -0.838  -0.762  -0.714
 -0.660  -0.590  -0.482  -0.452  -0.431  -0.422  -0.399  -0.383
 -0.360  -0.329  -0.323  -0.248  -0.238

 Beta MOs
 -- Occupied --
-88.881 -88.869 -10.240 -10.229 -10.197  -7.943  -7.933  -5.908
 -5.904  -5.898  -5.898  -5.895  -5.888  -0.838  -0.762  -0.714
 -0.660  -0.590  -0.482  -0.452  -0.431  -0.422  -0.399  -0.383
 -0.360  -0.329  -0.323  -0.248  -0.238

          Ground-State Mulliken Net Atomic Charges

     Atom                 Charge (a.u.)    Spin (a.u.)
  --------------------------------------------------------
      1 S                    -0.046386       0.000000
      2 S                    -0.048799       0.000000
      3 C                    -0.210079       0.000000
      4 C                    -0.313406       0.000000
      5 C                    -0.311313      -0.000000
      6 H                     0.155089      -0.000000
      7 H                     0.136760       0.000000
      8 H                     0.141280       0.000000
      9 H                     0.113812      -0.000000
     10 H                     0.110411       0.000000
     11 H                     0.132536       0.000000
     12 H                     0.057999      -0.000000
     13 H                     0.082096      -0.000000
  --------------------------------------------------------
  Sum of atomic charges =    -0.000000

                    Cartesian Multipole Moments
 -----------------------------------------------------------------
    Charge (ESU x 10^10)
                -0.0000
    Dipole Moment (Debye)
         X       1.7982      Y       1.2522      Z       1.0088
       Tot       2.4123
    Quadrupole Moments (Debye-Ang)
        XX     -52.2212     XY       3.0239     YY     -47.6673
        XZ       0.1930     YZ      -1.4953     ZZ     -45.4429

 Final energy is   -915.524969207670
 **  OPTIMIZATION CONVERGED  **
 Total job time:  48.88s(wall), 561.05s(cpu)
        *  Thank you very much for using Q-Chem.  Have a nice day.  *
