 Q-Chem 5.1, Q-Chem, Inc., Pleasanton, CA (2018)
 Q-Chem 5.1.1 for Intel X86 EM64T Linux

User input:
--------------------------------------------------------------

$comment
potential surface scanner
$end

$rem
JOBTYPE  PES_SCAN
UNRESTRICTED TRUE
SYM_IGNORE  TRUE
GEOM_OPT_MAX_CYCLES 400
SCF_MAX_CYCLES 400
METHOD   B3LYP
BASIS   6-31G**
PDB_PRINT 2
SCF_CONVERGENCE 6
THRESH 14
SCF_PRINT 1
$end
$molecule
0 1
S 0.653000 -1.655100 0.136100
S -2.273700 -0.042700 -0.103500
C 0.513800 0.101500 -0.361300
C -0.697000 0.778900 0.292500
C 1.803900 0.817400 0.036300
H 0.414100 0.130900 -1.452400
H -0.592400 0.804400 1.383200
H -0.770600 1.816900 -0.049700
H 1.768400 1.866200 -0.278900
H 1.962400 0.805000 1.120700
H 2.677400 0.363600 -0.445400
H 0.755100 -1.437500 1.455700
H -1.974700 -1.224500 0.455700
$end
$scan
stre 2 13 0.700000 0.701000 0.100000
$end
--------------------------------------------------------------

    9    -915.5220086792      2.35e-07  Convergence criterion met
 Total energy in the final basis set =     -915.5220086792
    9    -915.5089448135      2.83e-07  Convergence criterion met
 Total energy in the final basis set =     -915.5089448135
    9    -915.4449262443      3.52e-07  Convergence criterion met
 Total energy in the final basis set =     -915.4449262443
    9    -915.3391652267      4.31e-07  Convergence criterion met
 Total energy in the final basis set =     -915.3391652267
    9    -915.0714057070      5.62e-07  Convergence criterion met
 Total energy in the final basis set =     -915.0714057070
    9    -914.9264988637      6.04e-07  Convergence criterion met
 Total energy in the final basis set =     -914.9264988637
    9    -914.7956684226      6.30e-07  Convergence criterion met
 Total energy in the final basis set =     -914.7956684226
    9    -914.7370132862      6.38e-07  Convergence criterion met
    9    -914.7328915418      6.24e-07  Convergence criterion met
 Total energy in the final basis set =     -914.7328915418
    9    -914.7328970505      6.24e-07  Convergence criterion met
 Total energy in the final basis set =     -914.7328970505
    9    -914.7329031945      6.24e-07  Convergence criterion met
 Total energy in the final basis set =     -914.7329031945
    9    -914.7329082374      6.24e-07  Convergence criterion met
 Total energy in the final basis set =     -914.7329082374
    9    -914.7329107191      6.23e-07  Convergence criterion met
 Total energy in the final basis set =     -914.7329107191
    9    -914.7329117260      6.23e-07  Convergence criterion met
 Total energy in the final basis set =     -914.7329117260

             Standard Nuclear Orientation (Angstroms)
    I     Atom           X                Y                Z
 ----------------------------------------------------------------
    1      S       0.7290329562    -1.7375098845     0.2204819935
    2      S      -2.3033936060    -0.0633931313    -0.1155866943
    3      C       0.5257733405     0.0392292101    -0.2712913832
    4      C      -0.7059642890     0.6822819557     0.3779665848
    5      C       1.7917192654     0.8564174977     0.0028877151
    6      H       0.3600920083    -0.0273004034    -1.3515796778
    7      H      -0.6176925643     0.6624784994     1.4692158282
    8      H      -0.7700758083     1.7318532578     0.0763630355
    9      H       1.6779020580     1.8764737184    -0.3822030967
   10      H       1.9937867263     0.9250550919     1.0775830743
   11      H       2.6610938512     0.4012871886    -0.4769450604
   12      H       1.0478365690    -1.4964498039     1.5094304779
   13      H      -2.1504105074    -0.7254231965     0.0526772030
 ----------------------------------------------------------------

    9    -914.7329124621      6.23e-07  Convergence criterion met
 Total energy in the final basis set =     -914.7329124621

                    Orbital Energies (a.u.)
 --------------------------------------------------------------

 Alpha MOs
 -- Occupied --
-88.880 -88.827 -10.241 -10.231 -10.197  -7.950  -7.943  -5.926
 -5.908  -5.904  -5.898  -5.897  -5.889  -0.870  -0.816  -0.717
 -0.697  -0.595  -0.492  -0.459  -0.433  -0.428  -0.403  -0.392
 -0.361  -0.330  -0.324  -0.249  -0.246

 Beta MOs
 -- Occupied --
-88.880 -88.827 -10.241 -10.231 -10.197  -7.950  -7.943  -5.926
 -5.908  -5.904  -5.898  -5.897  -5.889  -0.870  -0.816  -0.717
 -0.697  -0.595  -0.492  -0.459  -0.433  -0.428  -0.403  -0.392
 -0.361  -0.330  -0.324  -0.249  -0.246

          Ground-State Mulliken Net Atomic Charges

     Atom                 Charge (a.u.)    Spin (a.u.)
  --------------------------------------------------------
      1 S                    -0.044386      -0.000000
      2 S                     0.223572      -0.000000
      3 C                    -0.218092       0.000000
      4 C                    -0.312188      -0.000000
      5 C                    -0.310501       0.000000
      6 H                     0.155378      -0.000000
      7 H                     0.137223       0.000000
      8 H                     0.144631       0.000000
      9 H                     0.113935      -0.000000
     10 H                     0.110691       0.000000
     11 H                     0.133078      -0.000000
     12 H                     0.057350       0.000000
     13 H                    -0.190691       0.000000
  --------------------------------------------------------
  Sum of atomic charges =     0.000000

                    Cartesian Multipole Moments
 -----------------------------------------------------------------
    Charge (ESU x 10^10)
                 0.0000
    Dipole Moment (Debye)
         X       1.8328      Y       1.3961      Z       0.9512
       Tot       2.4926
    Quadrupole Moments (Debye-Ang)
        XX     -52.1372     XY       2.7212     YY     -47.4443
        XZ       0.2737     YZ      -1.2485     ZZ     -44.6909

 Final energy is   -914.732912462137
 **  OPTIMIZATION CONVERGED  **
 Total job time:  122.55s(wall), 1352.36s(cpu)
        *  Thank you very much for using Q-Chem.  Have a nice day.  *
