 Q-Chem 5.1, Q-Chem, Inc., Pleasanton, CA (2018)
 Q-Chem 5.1.1 for Intel X86 EM64T Linux

User input:
--------------------------------------------------------------

$comment
potential surface scanner
$end

$rem
JOBTYPE  PES_SCAN
UNRESTRICTED TRUE
SYM_IGNORE  TRUE
GEOM_OPT_MAX_CYCLES 400
SCF_MAX_CYCLES 400
METHOD   B3LYP
BASIS   6-31G**
PDB_PRINT 2
SCF_CONVERGENCE 6
THRESH 14
SCF_PRINT 1
$end
$molecule
0 1
S 0.653000 -1.655100 0.136100
S -2.273700 -0.042700 -0.103500
C 0.513800 0.101500 -0.361300
C -0.697000 0.778900 0.292500
C 1.803900 0.817400 0.036300
H 0.414100 0.130900 -1.452400
H -0.592400 0.804400 1.383200
H -0.770600 1.816900 -0.049700
H 1.768400 1.866200 -0.278900
H 1.962400 0.805000 1.120700
H 2.677400 0.363600 -0.445400
H 0.755100 -1.437500 1.455700
H -1.974700 -1.224500 0.455700
$end
$scan
stre 2 13 0.800000 0.801000 0.100000
$end
--------------------------------------------------------------

    9    -915.5220086792      2.35e-07  Convergence criterion met
 Total energy in the final basis set =     -915.5220086792
    9    -915.5089448135      2.83e-07  Convergence criterion met
 Total energy in the final basis set =     -915.5089448135
    9    -915.4449262443      3.52e-07  Convergence criterion met
 Total energy in the final basis set =     -915.4449262443
    9    -915.3391652267      4.31e-07  Convergence criterion met
 Total energy in the final basis set =     -915.3391652267
    9    -915.1178469236      5.44e-07  Convergence criterion met
 Total energy in the final basis set =     -915.1178469236
    9    -915.0973971810      5.51e-07  Convergence criterion met
 Total energy in the final basis set =     -915.0973971810
    9    -915.0846915958      5.54e-07  Convergence criterion met
 Total energy in the final basis set =     -915.0846915958
    9    -915.0846765067      5.54e-07  Convergence criterion met
    9    -915.0848618426      5.47e-07  Convergence criterion met
 Total energy in the final basis set =     -915.0848618426
    9    -915.0848749454      5.47e-07  Convergence criterion met
 Total energy in the final basis set =     -915.0848749454
    9    -915.0848867861      5.47e-07  Convergence criterion met
 Total energy in the final basis set =     -915.0848867861
    9    -915.0848965389      5.45e-07  Convergence criterion met
 Total energy in the final basis set =     -915.0848965389
    9    -915.0849034553      5.44e-07  Convergence criterion met
 Total energy in the final basis set =     -915.0849034553
    9    -915.0849056314      5.43e-07  Convergence criterion met
 Total energy in the final basis set =     -915.0849056314

             Standard Nuclear Orientation (Angstroms)
    I     Atom           X                Y                Z
 ----------------------------------------------------------------
    1      S       0.7151311332    -1.7345307321     0.2062312194
    2      S      -2.3082738705    -0.0522119439    -0.1375200166
    3      C       0.5280852870     0.0454044997    -0.2799600912
    4      C      -0.7084862726     0.6960543971     0.3541903597
    5      C       1.7957520190     0.8533550303     0.0137014829
    6      H       0.3740753223    -0.0154948282    -1.3622273551
    7      H      -0.6276554151     0.6888603132     1.4463466311
    8      H      -0.7682410319     1.7424943860     0.0408327509
    9      H       1.6874167244     1.8804324450    -0.3536541335
   10      H       1.9928259034     0.9024735550     1.0903671140
   11      H       2.6657354004     0.4032298528    -0.4697699562
   12      H       1.0547100060    -1.5006327398     1.4911521747
   13      H      -2.1613752057    -0.7844342350     0.1493098200
 ----------------------------------------------------------------

    9    -915.0849065256      5.42e-07  Convergence criterion met
 Total energy in the final basis set =     -915.0849065256

                    Orbital Energies (a.u.)
 --------------------------------------------------------------

 Alpha MOs
 -- Occupied --
-88.880 -88.828 -10.240 -10.231 -10.197  -7.942  -7.931  -5.907
 -5.904  -5.900  -5.897  -5.886  -5.878  -0.860  -0.811  -0.716
 -0.694  -0.594  -0.492  -0.457  -0.433  -0.428  -0.402  -0.391
 -0.361  -0.330  -0.325  -0.247  -0.245

 Beta MOs
 -- Occupied --
-88.880 -88.828 -10.240 -10.231 -10.197  -7.942  -7.931  -5.907
 -5.904  -5.900  -5.897  -5.886  -5.878  -0.860  -0.811  -0.716
 -0.694  -0.594  -0.492  -0.457  -0.433  -0.428  -0.402  -0.391
 -0.361  -0.330  -0.325  -0.247  -0.245

          Ground-State Mulliken Net Atomic Charges

     Atom                 Charge (a.u.)    Spin (a.u.)
  --------------------------------------------------------
      1 S                    -0.046534      -0.000000
      2 S                     0.119798      -0.000000
      3 C                    -0.213474       0.000000
      4 C                    -0.313636       0.000000
      5 C                    -0.311150       0.000000
      6 H                     0.155022      -0.000000
      7 H                     0.136402       0.000000
      8 H                     0.144043      -0.000000
      9 H                     0.113601      -0.000000
     10 H                     0.110417      -0.000000
     11 H                     0.132857      -0.000000
     12 H                     0.056604      -0.000000
     13 H                    -0.083951       0.000000
  --------------------------------------------------------
  Sum of atomic charges =    -0.000000

                    Cartesian Multipole Moments
 -----------------------------------------------------------------
    Charge (ESU x 10^10)
                -0.0000
    Dipole Moment (Debye)
         X       1.7816      Y       1.3780      Z       1.0559
       Tot       2.4876
    Quadrupole Moments (Debye-Ang)
        XX     -51.9841     XY       2.8293     YY     -47.5363
        XZ       0.0166     YZ      -1.5784     ZZ     -44.7840

 Final energy is   -915.084906525631
 **  OPTIMIZATION CONVERGED  **
 Total job time:  69.14s(wall), 795.64s(cpu)
        *  Thank you very much for using Q-Chem.  Have a nice day.  *
