 Q-Chem 5.1, Q-Chem, Inc., Pleasanton, CA (2018)
 Q-Chem 5.1.1 for Intel X86 EM64T Linux

User input:
--------------------------------------------------------------

$comment
potential surface scanner
$end

$rem
JOBTYPE  PES_SCAN
UNRESTRICTED TRUE
SYM_IGNORE  TRUE
GEOM_OPT_MAX_CYCLES 400
SCF_MAX_CYCLES 400
METHOD   B3LYP
BASIS   6-31G**
PDB_PRINT 2
SCF_CONVERGENCE 6
THRESH 14
SCF_PRINT 1
$end
$molecule
0 1
S 0.653000 -1.655100 0.136100
S -2.273700 -0.042700 -0.103500
C 0.513800 0.101500 -0.361300
C -0.697000 0.778900 0.292500
C 1.803900 0.817400 0.036300
H 0.414100 0.130900 -1.452400
H -0.592400 0.804400 1.383200
H -0.770600 1.816900 -0.049700
H 1.768400 1.866200 -0.278900
H 1.962400 0.805000 1.120700
H 2.677400 0.363600 -0.445400
H 0.755100 -1.437500 1.455700
H -1.974700 -1.224500 0.455700
$end
$scan
stre 2 13 1.100000 1.101000 0.100000
$end
--------------------------------------------------------------

    9    -915.5220086792      2.35e-07  Convergence criterion met
 Total energy in the final basis set =     -915.5220086792
    9    -915.5089448135      2.83e-07  Convergence criterion met
 Total energy in the final basis set =     -915.5089448135
    9    -915.4790062572      3.20e-07  Convergence criterion met
 Total energy in the final basis set =     -915.4790062572
    9    -915.4785493062      3.19e-07  Convergence criterion met
 Total energy in the final basis set =     -915.4785493062
    9    -915.4789380848      3.15e-07  Convergence criterion met
 Total energy in the final basis set =     -915.4789380848
    9    -915.4789938058      3.16e-07  Convergence criterion met
 Total energy in the final basis set =     -915.4789938058
    9    -915.4791110774      3.18e-07  Convergence criterion met
 Total energy in the final basis set =     -915.4791110774
    9    -915.4791526274      3.19e-07  Convergence criterion met
    9    -915.4792261199      3.12e-07  Convergence criterion met
 Total energy in the final basis set =     -915.4792261199
    9    -915.4792300210      3.10e-07  Convergence criterion met
 Total energy in the final basis set =     -915.4792300210
    9    -915.4792333420      3.09e-07  Convergence criterion met
 Total energy in the final basis set =     -915.4792333420
    9    -915.4792366137      3.09e-07  Convergence criterion met
 Total energy in the final basis set =     -915.4792366137
    9    -915.4792394529      3.09e-07  Convergence criterion met
 Total energy in the final basis set =     -915.4792394529
    9    -915.4792413525      3.10e-07  Convergence criterion met
 Total energy in the final basis set =     -915.4792413525

             Standard Nuclear Orientation (Angstroms)
    I     Atom           X                Y                Z
 ----------------------------------------------------------------
    1      S       0.6956660015    -1.7229297099     0.2109460866
    2      S      -2.3275835744     0.0430866173    -0.1788650731
    3      C       0.5243052206     0.0568101934    -0.2819892104
    4      C      -0.7057196161     0.7228844859     0.3505048992
    5      C       1.8012088495     0.8508181059     0.0114452666
    6      H       0.3702294566    -0.0050795712    -1.3640569483
    7      H      -0.6372509835     0.6972129902     1.4428650787
    8      H      -0.7376881357     1.7759898976     0.0528260420
    9      H       1.7061144330     1.8752974402    -0.3659736433
   10      H       1.9927384734     0.9074629257     1.0887203557
   11      H       2.6686258123     0.3860904516    -0.4628632829
   12      H       1.0526264697    -1.4844183659     1.4901114528
   13      H      -2.1635724068    -0.9782254608     0.1953289765
 ----------------------------------------------------------------

    9    -915.4792422832      3.11e-07  Convergence criterion met
 Total energy in the final basis set =     -915.4792422832

                    Orbital Energies (a.u.)
 --------------------------------------------------------------

 Alpha MOs
 -- Occupied --
-88.880 -88.854 -10.239 -10.229 -10.197  -7.942  -7.927  -5.907
 -5.904  -5.897  -5.891  -5.887  -5.881  -0.840  -0.777  -0.715
 -0.676  -0.592  -0.487  -0.454  -0.431  -0.427  -0.400  -0.388
 -0.360  -0.329  -0.324  -0.247  -0.240

 Beta MOs
 -- Occupied --
-88.880 -88.854 -10.239 -10.229 -10.197  -7.942  -7.927  -5.907
 -5.904  -5.897  -5.891  -5.887  -5.881  -0.840  -0.777  -0.715
 -0.676  -0.592  -0.487  -0.454  -0.431  -0.427  -0.400  -0.388
 -0.360  -0.329  -0.324  -0.247  -0.240

          Ground-State Mulliken Net Atomic Charges

     Atom                 Charge (a.u.)    Spin (a.u.)
  --------------------------------------------------------
      1 S                    -0.048443      -0.000000
      2 S                    -0.033585       0.000000
      3 C                    -0.210613      -0.000000
      4 C                    -0.313846       0.000000
      5 C                    -0.311412      -0.000000
      6 H                     0.154973       0.000000
      7 H                     0.136249       0.000000
      8 H                     0.142039      -0.000000
      9 H                     0.113711       0.000000
     10 H                     0.110250       0.000000
     11 H                     0.132610      -0.000000
     12 H                     0.057056       0.000000
     13 H                     0.071011       0.000000
  --------------------------------------------------------
  Sum of atomic charges =    -0.000000

                    Cartesian Multipole Moments
 -----------------------------------------------------------------
    Charge (ESU x 10^10)
                -0.0000
    Dipole Moment (Debye)
         X       1.7530      Y       1.2762      Z       1.0603
       Tot       2.4136
    Quadrupole Moments (Debye-Ang)
        XX     -52.0160     XY       3.0740     YY     -47.6761
        XZ       0.0422     YZ      -1.5755     ZZ     -45.1901

 Final energy is   -915.479242283215
 **  OPTIMIZATION CONVERGED  **
 Total job time:  68.43s(wall), 787.38s(cpu)
        *  Thank you very much for using Q-Chem.  Have a nice day.  *
