 Q-Chem 5.1, Q-Chem, Inc., Pleasanton, CA (2018)
 Q-Chem 5.1.1 for Intel X86 EM64T Linux

User input:
--------------------------------------------------------------

$comment
potential surface scanner
$end

$rem
JOBTYPE  PES_SCAN
UNRESTRICTED TRUE
SYM_IGNORE  TRUE
GEOM_OPT_MAX_CYCLES 400
SCF_MAX_CYCLES 400
METHOD   B3LYP
BASIS   6-31G**
PDB_PRINT 2
SCF_CONVERGENCE 6
THRESH 14
SCF_PRINT 1
$end
$molecule
0 3
S 0.534157 -1.508053 1.096912
S -2.179228 0.030821 0.881911
C 0.442691 -0.014400 -0.007978
C -0.632499 0.936491 0.523379
C 1.799133 0.659431 -0.204590
H 0.089594 -0.444733 -0.951090
H -0.276037 1.444452 1.426383
H -0.864550 1.707390 -0.223084
H 1.707625 1.495052 -0.908289
H 2.185812 1.057707 0.739599
H 2.533149 -0.045505 -0.602812
H 0.950194 -0.850624 2.200567
H -2.050345 -1.343026 -1.781909
$end
$scan
stre 2 13 2.900000 2.901000 0.100000
$end
--------------------------------------------------------------

   11    -915.3854146227      6.06e-07  Convergence criterion met
 Total energy in the final basis set =     -915.3854146227
   11    -915.3856176566      6.06e-07  Convergence criterion met
 Total energy in the final basis set =     -915.3856176566
   11    -915.3856318470      6.12e-07  Convergence criterion met
 Total energy in the final basis set =     -915.3856318470
   11    -915.3856510050      6.27e-07  Convergence criterion met
 Total energy in the final basis set =     -915.3856510050
   11    -915.3856524939      6.25e-07  Convergence criterion met
 Total energy in the final basis set =     -915.3856524939

             Standard Nuclear Orientation (Angstroms)
    I     Atom           X                Y                Z
 ----------------------------------------------------------------
    1      S       0.5374799138    -1.5108281009     1.0898073468
    2      S      -2.1788578966     0.0148361865     0.8581568789
    3      C       0.4481097201    -0.0167710358    -0.0146723596
    4      C      -0.6337294596     0.9288192889     0.5120352411
    5      C       1.8031238652     0.6623933662    -0.2030596481
    6      H       0.1019156184    -0.4478003474    -0.9600084681
    7      H      -0.2863929115     1.4337488516     1.4203103272
    8      H      -0.8631494134     1.7022412660    -0.2324613580
    9      H       1.7121833336     1.4982821386    -0.9065546380
   10      H       2.1833319648     1.0612667501     0.7434936304
   11      H       2.5420364209    -0.0391728823    -0.5981792690
   12      H       0.9360969253    -0.8516906191     2.1988730621
   13      H      -2.0624520811    -1.3103218623    -1.7187417457
 ----------------------------------------------------------------

   11    -915.3856544627      6.19e-07  Convergence criterion met
 Total energy in the final basis set =     -915.3856544627

                    Orbital Energies (a.u.)
 --------------------------------------------------------------

 Alpha MOs
 -- Occupied --
-88.895 -88.887 -10.246 -10.231 -10.201  -7.957  -7.947  -5.922
 -5.918  -5.917  -5.913  -5.909  -5.901  -0.846  -0.757  -0.724
 -0.647  -0.590  -0.483  -0.453  -0.438  -0.421  -0.404  -0.366
 -0.354  -0.333  -0.295  -0.286  -0.247  -0.230

 Beta MOs
 -- Occupied --
-88.895 -88.882 -10.245 -10.232 -10.201  -7.956  -7.941  -5.921
 -5.918  -5.911  -5.905  -5.900  -5.896  -0.843  -0.744  -0.722
 -0.627  -0.583  -0.480  -0.451  -0.433  -0.419  -0.402  -0.364
 -0.345  -0.328  -0.256  -0.229

          Ground-State Mulliken Net Atomic Charges

     Atom                 Charge (a.u.)    Spin (a.u.)
  --------------------------------------------------------
      1 S                     0.009292       0.106155
      2 S                     0.010302       0.953871
      3 C                    -0.215557       0.019576
      4 C                    -0.324939      -0.030314
      5 C                    -0.308094      -0.001082
      6 H                     0.157562      -0.004252
      7 H                     0.136297       0.003572
      8 H                     0.148124       0.015902
      9 H                     0.117160       0.000758
     10 H                     0.112227       0.000695
     11 H                     0.132352       0.000372
     12 H                     0.066589      -0.003529
     13 H                    -0.041317       0.938278
  --------------------------------------------------------
  Sum of atomic charges =    -0.000000

                    Cartesian Multipole Moments
 -----------------------------------------------------------------
    Charge (ESU x 10^10)
                -0.0000
    Dipole Moment (Debye)
         X       2.5032      Y       2.1566      Z      -0.1113
       Tot       3.3059
    Quadrupole Moments (Debye-Ang)
        XX     -52.0183     XY      -0.4396     YY     -48.7891
        XZ       2.1177     YZ      -0.2269     ZZ     -46.3954

 Final energy is   -915.385654462701
 **  OPTIMIZATION CONVERGED  **
 Total job time:  27.57s(wall), 316.50s(cpu)
        *  Thank you very much for using Q-Chem.  Have a nice day.  *
