 Q-Chem 5.1, Q-Chem, Inc., Pleasanton, CA (2018)
 Q-Chem 5.1.1 for Intel X86 EM64T Linux

User input:
--------------------------------------------------------------

$comment
potential surface scanner
$end

$rem
JOBTYPE  PES_SCAN
UNRESTRICTED TRUE
SYM_IGNORE  TRUE
GEOM_OPT_MAX_CYCLES 400
SCF_MAX_CYCLES 400
METHOD   B3LYP
BASIS   6-31G**
PDB_PRINT 2
SCF_CONVERGENCE 6
THRESH 14
SCF_PRINT 1
$end
$molecule
0 1
S 0.679437 -1.714248 0.218813
S -2.338101 0.103606 -0.188245
C 0.518987 0.065058 -0.280720
C -0.703698 0.744274 0.352658
C 1.803224 0.849669 0.007021
H 0.361796 0.000563 -1.362114
H -0.637027 0.712501 1.444890
H -0.717634 1.799591 0.059603
H 1.717368 1.872616 -0.377043
H 1.995514 0.911903 1.083851
H 2.666300 0.374233 -0.464478
H 1.034684 -1.472442 1.497906
H -2.141150 -1.122324 0.196859
$end
$scan
stre 2 13 1.400000 1.401000 0.100000
$end
--------------------------------------------------------------

    9    -915.5249691895      2.51e-07  Convergence criterion met
 Total energy in the final basis set =     -915.5249691895
    9    -915.5251266509      2.44e-07  Convergence criterion met
 Total energy in the final basis set =     -915.5251266509
    9    -915.5250629428      2.45e-07  Convergence criterion met
 Total energy in the final basis set =     -915.5250629428
    9    -915.5250664276      2.44e-07  Convergence criterion met
 Total energy in the final basis set =     -915.5250664276
    9    -915.5250714538      2.46e-07  Convergence criterion met
 Total energy in the final basis set =     -915.5250714538

             Standard Nuclear Orientation (Angstroms)
    I     Atom           X                Y                Z
 ----------------------------------------------------------------
    1      S       0.6656499444    -1.7094972730     0.2224088072
    2      S      -2.3429509754     0.1346858719    -0.1894999848
    3      C       0.5139354633     0.0703215363    -0.2792946519
    4      C      -0.7040561964     0.7572602908     0.3553166459
    5      C       1.8033700178     0.8470656986     0.0057574258
    6      H       0.3548545934     0.0050524095    -1.3603528691
    7      H      -0.6371995417     0.7234176443     1.4474851702
    8      H      -0.7080334092     1.8135706394     0.0639697671
    9      H       1.7238900278     1.8694650286    -0.3811955322
   10      H       1.9964161788     0.9115075486     1.0823357805
   11      H       2.6632678945     0.3648960917    -0.4646968441
   12      H       1.0302383506    -1.4678763491     1.4988626027
   13      H      -2.1196823478    -1.1948691374     0.1879046827
 ----------------------------------------------------------------

    9    -915.5250720158      2.46e-07  Convergence criterion met
 Total energy in the final basis set =     -915.5250720158

                    Orbital Energies (a.u.)
 --------------------------------------------------------------

 Alpha MOs
 -- Occupied --
-88.882 -88.875 -10.240 -10.229 -10.197  -7.944  -7.936  -5.909
 -5.905  -5.901  -5.899  -5.898  -5.891  -0.837  -0.757  -0.715
 -0.653  -0.589  -0.480  -0.452  -0.432  -0.420  -0.399  -0.379
 -0.360  -0.329  -0.322  -0.248  -0.237

 Beta MOs
 -- Occupied --
-88.882 -88.875 -10.240 -10.229 -10.197  -7.944  -7.936  -5.909
 -5.905  -5.901  -5.899  -5.898  -5.891  -0.837  -0.757  -0.715
 -0.653  -0.589  -0.480  -0.452  -0.432  -0.420  -0.399  -0.379
 -0.360  -0.329  -0.322  -0.248  -0.237

          Ground-State Mulliken Net Atomic Charges

     Atom                 Charge (a.u.)    Spin (a.u.)
  --------------------------------------------------------
      1 S                    -0.044538       0.000000
      2 S                    -0.053990      -0.000000
      3 C                    -0.210009      -0.000000
      4 C                    -0.312568       0.000000
      5 C                    -0.311525       0.000000
      6 H                     0.155319      -0.000000
      7 H                     0.137068       0.000000
      8 H                     0.141019      -0.000000
      9 H                     0.114032      -0.000000
     10 H                     0.110584      -0.000000
     11 H                     0.132576      -0.000000
     12 H                     0.058755      -0.000000
     13 H                     0.083277       0.000000
  --------------------------------------------------------
  Sum of atomic charges =    -0.000000

                    Cartesian Multipole Moments
 -----------------------------------------------------------------
    Charge (ESU x 10^10)
                 0.0000
    Dipole Moment (Debye)
         X       1.8587      Y       1.2488      Z       0.9773
       Tot       2.4432
    Quadrupole Moments (Debye-Ang)
        XX     -52.3516     XY       2.9199     YY     -47.6213
        XZ       0.3074     YZ      -1.4405     ZZ     -45.5739

 Final energy is   -915.525072015781
 **  OPTIMIZATION CONVERGED  **
 Total job time:  24.31s(wall), 278.20s(cpu)
        *  Thank you very much for using Q-Chem.  Have a nice day.  *
