 Q-Chem 5.1, Q-Chem, Inc., Pleasanton, CA (2018)
 Q-Chem 5.1.1 for Intel X86 EM64T Linux

User input:
--------------------------------------------------------------

$comment
potential surface scanner
$end

$rem
JOBTYPE  PES_SCAN
UNRESTRICTED TRUE
SYM_IGNORE  TRUE
GEOM_OPT_MAX_CYCLES 400
SCF_MAX_CYCLES 400
METHOD   B3LYP
BASIS   6-31G**
PDB_PRINT 2
SCF_CONVERGENCE 6
THRESH 14
SCF_PRINT 1
$end
$molecule
0 1
S 0.653000 -1.655100 0.136100
S -2.273700 -0.042700 -0.103500
C 0.513800 0.101500 -0.361300
C -0.697000 0.778900 0.292500
C 1.803900 0.817400 0.036300
H 0.414100 0.130900 -1.452400
H -0.592400 0.804400 1.383200
H -0.770600 1.816900 -0.049700
H 1.768400 1.866200 -0.278900
H 1.962400 0.805000 1.120700
H 2.677400 0.363600 -0.445400
H 0.755100 -1.437500 1.455700
H -1.974700 -1.224500 0.455700
$end
$scan
stre 2 13 0.900000 0.901000 0.100000
$end
--------------------------------------------------------------

    9    -915.5220086792      2.35e-07  Convergence criterion met
 Total energy in the final basis set =     -915.5220086792
    9    -915.5089448135      2.83e-07  Convergence criterion met
 Total energy in the final basis set =     -915.5089448135
    9    -915.4449262443      3.52e-07  Convergence criterion met
 Total energy in the final basis set =     -915.4449262443
    9    -915.3428506908      4.28e-07  Convergence criterion met
 Total energy in the final basis set =     -915.3428506908
    9    -915.2925683843      4.59e-07  Convergence criterion met
 Total energy in the final basis set =     -915.2925683843
    9    -915.2920545242      4.59e-07  Convergence criterion met
 Total energy in the final basis set =     -915.2920545242
    9    -915.2921908287      4.58e-07  Convergence criterion met
 Total energy in the final basis set =     -915.2921908287
    9    -915.2922115983      4.58e-07  Convergence criterion met
    9    -915.2923645123      4.59e-07  Convergence criterion met
 Total energy in the final basis set =     -915.2923645123
    9    -915.2923785589      4.56e-07  Convergence criterion met
 Total energy in the final basis set =     -915.2923785589
    9    -915.2923912513      4.52e-07  Convergence criterion met
 Total energy in the final basis set =     -915.2923912513
    9    -915.2923964574      4.49e-07  Convergence criterion met
 Total energy in the final basis set =     -915.2923964574
    9    -915.2923982941      4.49e-07  Convergence criterion met
 Total energy in the final basis set =     -915.2923982941
    9    -915.2923993939      4.48e-07  Convergence criterion met
 Total energy in the final basis set =     -915.2923993939

             Standard Nuclear Orientation (Angstroms)
    I     Atom           X                Y                Z
 ----------------------------------------------------------------
    1      S       0.7064782891    -1.7299330855     0.2078672118
    2      S      -2.3153207115    -0.0217102299    -0.1454189457
    3      C       0.5255304883     0.0499849637    -0.2803354504
    4      C      -0.7074963919     0.7063753200     0.3546229670
    5      C       1.7976239354     0.8515822871     0.0128161095
    6      H       0.3711757598    -0.0109567256    -1.3624909903
    7      H      -0.6281416021     0.6964440216     1.4467150757
    8      H      -0.7599175247     1.7542363551     0.0435586010
    9      H       1.6940692610     1.8782966053    -0.3565367026
   10      H       1.9942378154     0.9016572068     1.0894868410
   11      H       2.6659190236     0.3966035248    -0.4693250683
   12      H       1.0459659819    -1.4939401918     1.4922907878
   13      H      -2.1504243243    -0.8536400517     0.1557495635
 ----------------------------------------------------------------

    9    -915.2924003665      4.48e-07  Convergence criterion met
 Total energy in the final basis set =     -915.2924003665

                    Orbital Energies (a.u.)
 --------------------------------------------------------------

 Alpha MOs
 -- Occupied --
-88.880 -88.836 -10.240 -10.230 -10.197  -7.943  -7.925  -5.908
 -5.904  -5.897  -5.891  -5.884  -5.876  -0.850  -0.801  -0.716
 -0.689  -0.594  -0.490  -0.456  -0.432  -0.428  -0.401  -0.390
 -0.361  -0.329  -0.324  -0.247  -0.243

 Beta MOs
 -- Occupied --
-88.880 -88.836 -10.240 -10.230 -10.197  -7.943  -7.925  -5.908
 -5.904  -5.897  -5.891  -5.884  -5.876  -0.850  -0.801  -0.716
 -0.689  -0.594  -0.490  -0.456  -0.432  -0.428  -0.401  -0.390
 -0.361  -0.329  -0.324  -0.247  -0.243

          Ground-State Mulliken Net Atomic Charges

     Atom                 Charge (a.u.)    Spin (a.u.)
  --------------------------------------------------------
      1 S                    -0.047996       0.000000
      2 S                     0.037340      -0.000000
      3 C                    -0.213120      -0.000000
      4 C                    -0.312897       0.000000
      5 C                    -0.310944      -0.000000
      6 H                     0.155034      -0.000000
      7 H                     0.136191      -0.000000
      8 H                     0.143326      -0.000000
      9 H                     0.113613      -0.000000
     10 H                     0.110382       0.000000
     11 H                     0.132703       0.000000
     12 H                     0.056959      -0.000000
     13 H                    -0.000591      -0.000000
  --------------------------------------------------------
  Sum of atomic charges =    -0.000000

                    Cartesian Multipole Moments
 -----------------------------------------------------------------
    Charge (ESU x 10^10)
                -0.0000
    Dipole Moment (Debye)
         X       1.7794      Y       1.3293      Z       1.0425
       Tot       2.4536
    Quadrupole Moments (Debye-Ang)
        XX     -52.0507     XY       2.9237     YY     -47.5415
        XZ       0.0536     YZ      -1.5465     ZZ     -44.9336

 Final energy is   -915.292400366460
 **  OPTIMIZATION CONVERGED  **
 Total job time:  69.04s(wall), 793.45s(cpu)
        *  Thank you very much for using Q-Chem.  Have a nice day.  *
