 Q-Chem 5.1, Q-Chem, Inc., Pleasanton, CA (2018)
 Q-Chem 5.1.1 for Intel X86 EM64T Linux

User input:
--------------------------------------------------------------

$comment
potential surface scanner
$end

$rem
JOBTYPE  PES_SCAN
UNRESTRICTED TRUE
SYM_IGNORE  TRUE
GEOM_OPT_MAX_CYCLES 400
SCF_MAX_CYCLES 400
METHOD   B3LYP
BASIS   6-31G**
PDB_PRINT 2
SCF_CONVERGENCE 6
THRESH 14
SCF_PRINT 1
$end
$molecule
0 3
S 0.561727 -1.534033 1.073578
S -2.126798 -0.174874 0.807554
C 0.478601 -0.053144 -0.052269
C -0.662372 0.851830 0.415650
C 1.816328 0.667571 -0.192011
H 0.178865 -0.507390 -1.001922
H -0.366610 1.422849 1.302085
H -0.939792 1.558109 -0.375722
H 1.724214 1.494015 -0.906279
H 2.147172 1.086241 0.764371
H 2.592095 -0.011669 -0.554592
H 0.859847 -0.853739 2.201520
H -2.023580 -0.820760 -1.292965
$end
$scan
stre 2 13 2.100000 2.101000 0.100000
$end
--------------------------------------------------------------

   11    -915.3860345960      5.05e-07  Convergence criterion met
 Total energy in the final basis set =     -915.3860345960
   11    -915.3850338924      4.91e-07  Convergence criterion met
 Total energy in the final basis set =     -915.3850338924
   11    -915.3850632634      4.94e-07  Convergence criterion met
 Total energy in the final basis set =     -915.3850632634
   11    -915.3850796919      4.95e-07  Convergence criterion met
 Total energy in the final basis set =     -915.3850796919
   11    -915.3850866093      4.94e-07  Convergence criterion met
 Total energy in the final basis set =     -915.3850866093
   11    -915.3850898347      4.93e-07  Convergence criterion met
 Total energy in the final basis set =     -915.3850898347
   11    -915.3850911766      4.92e-07  Convergence criterion met
 Total energy in the final basis set =     -915.3850911766
   11    -915.3850922609      4.91e-07  Convergence criterion met
 Total energy in the final basis set =     -915.3850922609

             Standard Nuclear Orientation (Angstroms)
    I     Atom           X                Y                Z
 ----------------------------------------------------------------
    1      S       0.5626869999    -1.5384358453     1.0649907910
    2      S      -2.1194656380    -0.1953644032     0.7978278467
    3      C       0.4830396171    -0.0555602252    -0.0592232866
    4      C      -0.6649898080     0.8442004863     0.4012799741
    5      C       1.8191642654     0.6693063318    -0.1895999059
    6      H       0.1894749913    -0.5100052242    -1.0107304172
    7      H      -0.3778122632     1.4229507990     1.2852047875
    8      H      -0.9476974288     1.5404848846    -0.3969052687
    9      H       1.7285862571     1.4964245426    -0.9032619914
   10      H       2.1430186043     1.0876734391     0.7692911587
   11      H       2.5991992478    -0.0069023646    -0.5487614418
   12      H       0.8433970599    -0.8598458387     2.1984258908
   13      H      -2.0189049049    -0.7699205820    -1.2195401372
 ----------------------------------------------------------------

   11    -915.3850931391      4.91e-07  Convergence criterion met
 Total energy in the final basis set =     -915.3850931391

                    Orbital Energies (a.u.)
 --------------------------------------------------------------

 Alpha MOs
 -- Occupied --
-88.905 -88.898 -10.249 -10.234 -10.203  -7.967  -7.957  -5.931
 -5.927  -5.925  -5.924  -5.918  -5.913  -0.852  -0.763  -0.731
 -0.654  -0.594  -0.488  -0.457  -0.443  -0.425  -0.410  -0.368
 -0.361  -0.338  -0.309  -0.297  -0.250  -0.169

 Beta MOs
 -- Occupied --
-88.904 -88.891 -10.248 -10.234 -10.203  -7.966  -7.950  -5.930
 -5.927  -5.920  -5.914  -5.908  -5.905  -0.848  -0.747  -0.727
 -0.632  -0.587  -0.484  -0.455  -0.437  -0.423  -0.407  -0.367
 -0.350  -0.332  -0.265  -0.254

          Ground-State Mulliken Net Atomic Charges

     Atom                 Charge (a.u.)    Spin (a.u.)
  --------------------------------------------------------
      1 S                     0.031219       0.157903
      2 S                     0.083249       1.039383
      3 C                    -0.221022       0.022333
      4 C                    -0.320948      -0.037238
      5 C                    -0.308090      -0.001498
      6 H                     0.167968       0.003234
      7 H                     0.136937      -0.001484
      8 H                     0.154324       0.016837
      9 H                     0.121350       0.001058
     10 H                     0.112319       0.001027
     11 H                     0.132864       0.000682
     12 H                     0.073420      -0.005024
     13 H                    -0.163590       0.802787
  --------------------------------------------------------
  Sum of atomic charges =    -0.000000

                    Cartesian Multipole Moments
 -----------------------------------------------------------------
    Charge (ESU x 10^10)
                -0.0000
    Dipole Moment (Debye)
         X       2.8135      Y       2.2639      Z       0.7324
       Tot       3.6847
    Quadrupole Moments (Debye-Ang)
        XX     -52.1146     XY      -1.2716     YY     -48.5120
        XZ       0.1451     YZ      -0.6196     ZZ     -46.8734

 Final energy is   -915.385093139131
 **  OPTIMIZATION CONVERGED  **
 Total job time:  42.13s(wall), 479.38s(cpu)
        *  Thank you very much for using Q-Chem.  Have a nice day.  *
