 Q-Chem 5.1, Q-Chem, Inc., Pleasanton, CA (2018)
 Q-Chem 5.1.1 for Intel X86 EM64T Linux

User input:
--------------------------------------------------------------

$comment
potential surface scanner
$end

$rem
JOBTYPE  PES_SCAN
UNRESTRICTED TRUE
SYM_IGNORE  TRUE
GEOM_OPT_MAX_CYCLES 400
SCF_MAX_CYCLES 400
METHOD   B3LYP
BASIS   6-31G**
PDB_PRINT 2
SCF_CONVERGENCE 6
THRESH 14
SCF_PRINT 1
$end
$molecule
0 3
S 0.548660 -1.519884 1.086132
S -2.151419 -0.078072 0.849243
C 0.461318 -0.033998 -0.031162
C -0.648210 0.893476 0.468955
C 1.809762 0.663409 -0.196415
H 0.137369 -0.476828 -0.978690
H -0.319382 1.435965 1.362357
H -0.905906 1.632954 -0.299364
H 1.719610 1.495200 -0.904822
H 2.166484 1.071222 0.755378
H 2.565747 -0.028567 -0.575974
H 0.909478 -0.848031 2.200554
H -2.053813 -1.081846 -1.547194
$end
$scan
stre 2 13 2.500000 2.501000 0.100000
$end
--------------------------------------------------------------

   11    -915.3864327021      6.03e-07  Convergence criterion met
 Total energy in the final basis set =     -915.3864327021
   11    -915.3865697372      5.67e-07  Convergence criterion met
 Total energy in the final basis set =     -915.3865697372
   11    -915.3865881474      5.71e-07  Convergence criterion met
 Total energy in the final basis set =     -915.3865881474
   11    -915.3866077094      5.79e-07  Convergence criterion met
 Total energy in the final basis set =     -915.3866077094
   11    -915.3866094507      5.77e-07  Convergence criterion met
 Total energy in the final basis set =     -915.3866094507
   11    -915.3866120930      5.69e-07  Convergence criterion met
 Total energy in the final basis set =     -915.3866120930

             Standard Nuclear Orientation (Angstroms)
    I     Atom           X                Y                Z
 ----------------------------------------------------------------
    1      S       0.5491128469    -1.5228935384     1.0815611295
    2      S      -2.1477050923    -0.0971749565     0.8340775083
    3      C       0.4656237821    -0.0379285799    -0.0372885647
    4      C      -0.6503697984     0.8846459450     0.4560204016
    5      C       1.8113968189     0.6651848897    -0.1956130837
    6      H       0.1487902693    -0.4827790472    -0.9861174036
    7      H      -0.3288231802     1.4274036446     1.3517060588
    8      H      -0.9092205571     1.6220797606    -0.3136311616
    9      H       1.7204538722     1.4958249355    -0.9051787340
   10      H       2.1621099389     1.0755428587     0.7573623905
   11      H       2.5725424017    -0.0233724750    -0.5712030183
   12      H       0.8952658389    -0.8495621486     2.1997975581
   13      H      -2.0494791409    -1.0319712886    -1.4824950808
 ----------------------------------------------------------------

   11    -915.3866127481      5.68e-07  Convergence criterion met
 Total energy in the final basis set =     -915.3866127481

                    Orbital Energies (a.u.)
 --------------------------------------------------------------

 Alpha MOs
 -- Occupied --
-88.900 -88.892 -10.247 -10.233 -10.202  -7.962  -7.952  -5.927
 -5.923  -5.921  -5.919  -5.913  -5.907  -0.849  -0.759  -0.728
 -0.650  -0.593  -0.486  -0.455  -0.440  -0.423  -0.407  -0.368
 -0.357  -0.336  -0.295  -0.291  -0.248  -0.210

 Beta MOs
 -- Occupied --
-88.899 -88.886 -10.247 -10.233 -10.202  -7.961  -7.946  -5.926
 -5.922  -5.916  -5.909  -5.904  -5.900  -0.845  -0.745  -0.725
 -0.629  -0.585  -0.482  -0.453  -0.435  -0.421  -0.405  -0.366
 -0.348  -0.330  -0.260  -0.237

          Ground-State Mulliken Net Atomic Charges

     Atom                 Charge (a.u.)    Spin (a.u.)
  --------------------------------------------------------
      1 S                     0.021196       0.132451
      2 S                     0.038295       0.988241
      3 C                    -0.218339       0.021403
      4 C                    -0.323733      -0.033263
      5 C                    -0.308409      -0.001338
      6 H                     0.162905      -0.002028
      7 H                     0.136439       0.002102
      8 H                     0.151263       0.014636
      9 H                     0.119312       0.000895
     10 H                     0.112291       0.000917
     11 H                     0.132761       0.000499
     12 H                     0.069750      -0.004333
     13 H                    -0.093733       0.879818
  --------------------------------------------------------
  Sum of atomic charges =     0.000000

                    Cartesian Multipole Moments
 -----------------------------------------------------------------
    Charge (ESU x 10^10)
                 0.0000
    Dipole Moment (Debye)
         X       2.6877      Y       2.2763      Z       0.3282
       Tot       3.5374
    Quadrupole Moments (Debye-Ang)
        XX     -52.1258     XY      -1.0287     YY     -48.7451
        XZ       1.0722     YZ      -0.5028     ZZ     -46.6616

 Final energy is   -915.386612748057
 **  OPTIMIZATION CONVERGED  **
 Total job time:  32.21s(wall), 370.17s(cpu)
        *  Thank you very much for using Q-Chem.  Have a nice day.  *
