 Q-Chem 5.1, Q-Chem, Inc., Pleasanton, CA (2018)
 Q-Chem 5.1.1 for Intel X86 EM64T Linux

User input:
--------------------------------------------------------------

$comment
potential surface scanner
$end

$rem
JOBTYPE  PES_SCAN
UNRESTRICTED TRUE
SYM_IGNORE  TRUE
GEOM_OPT_MAX_CYCLES 400
SCF_MAX_CYCLES 400
METHOD   B3LYP
BASIS   6-31G**
PDB_PRINT 2
SCF_CONVERGENCE 6
THRESH 14
SCF_PRINT 1
$end
$molecule
0 3
S 0.543703 -1.513627 1.091951
S -2.165899 -0.024569 0.864117
C 0.452701 -0.024227 -0.019418
C -0.640036 0.914630 0.496922
C 1.805430 0.661774 -0.200560
H 0.114614 -0.460940 -0.965133
H -0.297551 1.439682 1.395698
H -0.884330 1.671186 -0.259704
H 1.714673 1.495444 -0.906723
H 2.177013 1.064897 0.747552
H 2.550491 -0.036784 -0.589415
H 0.928442 -0.847375 2.201659
H -2.059554 -1.215089 -1.667948
$end
$scan
stre 2 13 2.700000 2.701000 0.100000
$end
--------------------------------------------------------------

   10    -915.3859190056      9.33e-07  Convergence criterion met
 Total energy in the final basis set =     -915.3859190056
   11    -915.3861436910      6.30e-07  Convergence criterion met
 Total energy in the final basis set =     -915.3861436910
   11    -915.3861604931      6.32e-07  Convergence criterion met
 Total energy in the final basis set =     -915.3861604931
   11    -915.3861794919      6.33e-07  Convergence criterion met
 Total energy in the final basis set =     -915.3861794919
   11    -915.3861808792      6.31e-07  Convergence criterion met
 Total energy in the final basis set =     -915.3861808792
   11    -915.3861831185      6.27e-07  Convergence criterion met
 Total energy in the final basis set =     -915.3861831185

             Standard Nuclear Orientation (Angstroms)
    I     Atom           X                Y                Z
 ----------------------------------------------------------------
    1      S       0.5442138822    -1.5164898631     1.0859988879
    2      S      -2.1630708109    -0.0420926788     0.8460284823
    3      C       0.4574466991    -0.0273725683    -0.0261547043
    4      C      -0.6416321776     0.9066134741     0.4839702155
    5      C       1.8079665636     0.6641393184    -0.1990219738
    6      H       0.1268337888    -0.4656038579    -0.9734077240
    7      H      -0.3063442247     1.4300882915     1.3862273998
    8      H      -0.8859485783     1.6630467883    -0.2724954196
    9      H       1.7170768539     1.4973780077    -0.9056028055
   10      H       2.1729974771     1.0689087185     0.7509748692
   11      H       2.5584887584    -0.0307573475    -0.5840621138
   12      H       0.9148951579    -0.8493098194     2.1999723623
   13      H      -2.0632263896    -1.1735464635    -1.6034294760
 ----------------------------------------------------------------

   11    -915.3861836012      6.27e-07  Convergence criterion met
 Total energy in the final basis set =     -915.3861836012

                    Orbital Energies (a.u.)
 --------------------------------------------------------------

 Alpha MOs
 -- Occupied --
-88.898 -88.890 -10.247 -10.232 -10.201  -7.960  -7.949  -5.924
 -5.921  -5.919  -5.916  -5.911  -5.904  -0.848  -0.758  -0.726
 -0.648  -0.591  -0.485  -0.454  -0.439  -0.422  -0.406  -0.367
 -0.356  -0.334  -0.293  -0.289  -0.248  -0.223

 Beta MOs
 -- Occupied --
-88.897 -88.884 -10.246 -10.233 -10.201  -7.959  -7.943  -5.924
 -5.920  -5.913  -5.907  -5.902  -5.898  -0.844  -0.745  -0.723
 -0.628  -0.584  -0.481  -0.452  -0.434  -0.420  -0.403  -0.365
 -0.347  -0.329  -0.258  -0.232

          Ground-State Mulliken Net Atomic Charges

     Atom                 Charge (a.u.)    Spin (a.u.)
  --------------------------------------------------------
      1 S                     0.015139       0.118919
      2 S                     0.022328       0.968576
      3 C                    -0.216930       0.020460
      4 C                    -0.324511      -0.031539
      5 C                    -0.308258      -0.001214
      6 H                     0.160135      -0.003419
      7 H                     0.136280       0.003078
      8 H                     0.149539       0.015029
      9 H                     0.118178       0.000825
     10 H                     0.112284       0.000799
     11 H                     0.132559       0.000434
     12 H                     0.068127      -0.003944
     13 H                    -0.064868       0.911996
  --------------------------------------------------------
  Sum of atomic charges =     0.000000

                    Cartesian Multipole Moments
 -----------------------------------------------------------------
    Charge (ESU x 10^10)
                -0.0000
    Dipole Moment (Debye)
         X       2.5948      Y       2.2276      Z       0.1000
       Tot       3.4213
    Quadrupole Moments (Debye-Ang)
        XX     -52.0839     XY      -0.7595     YY     -48.7898
        XZ       1.6024     YZ      -0.3727     ZZ     -46.5262

 Final energy is   -915.386183601200
 **  OPTIMIZATION CONVERGED  **
 Total job time:  31.62s(wall), 364.92s(cpu)
        *  Thank you very much for using Q-Chem.  Have a nice day.  *
