 Q-Chem 5.1, Q-Chem, Inc., Pleasanton, CA (2018)
 Q-Chem 5.1.1 for Intel X86 EM64T Linux

User input:
--------------------------------------------------------------

$comment
potential surface scanner
$end

$rem
JOBTYPE  PES_SCAN
UNRESTRICTED TRUE
SYM_IGNORE  TRUE
GEOM_OPT_MAX_CYCLES 400
SCF_MAX_CYCLES 400
METHOD   B3LYP
BASIS   6-31G**
PDB_PRINT 2
SCF_CONVERGENCE 6
THRESH 14
SCF_PRINT 1
$end
$molecule
0 3
S 0.554648 -1.554230 1.015458
S -2.090169 -0.270543 0.762003
C 0.501496 -0.050768 -0.093418
C -0.667812 0.827506 0.344666
C 1.836969 0.678238 -0.184820
H 0.228423 -0.500693 -1.053786
H -0.421135 1.421401 1.229277
H -0.973637 1.490924 -0.472874
H 1.758206 1.511294 -0.892881
H 2.137239 1.090013 0.784341
H 2.628232 0.008746 -0.532901
H 0.727381 -0.890445 2.178440
H -1.980141 -0.636438 -0.894505
$end
$scan
stre 2 13 1.600000 1.601000 0.100000
$end
--------------------------------------------------------------

   11    -915.3732707835      7.48e-07  Convergence criterion met
 Total energy in the final basis set =     -915.3732707835
   12    -915.3680715410      5.67e-07  Convergence criterion met
 Total energy in the final basis set =     -915.3680715410
   12    -915.3681131053      5.82e-07  Convergence criterion met
 Total energy in the final basis set =     -915.3681131053
   12    -915.3682830012      6.20e-07  Convergence criterion met
 Total energy in the final basis set =     -915.3682830012
   12    -915.3683112617      6.32e-07  Convergence criterion met
 Total energy in the final basis set =     -915.3683112617
   12    -915.3683227001      6.35e-07  Convergence criterion met
 Total energy in the final basis set =     -915.3683227001
   12    -915.3683267536      6.41e-07  Convergence criterion met
 Total energy in the final basis set =     -915.3683267536
   12    -915.3683281884      6.42e-07  Convergence criterion met
 Total energy in the final basis set =     -915.3683281884
   12    -915.3683294488      6.46e-07  Convergence criterion met
 Total energy in the final basis set =     -915.3683294488

             Standard Nuclear Orientation (Angstroms)
    I     Atom           X                Y                Z
 ----------------------------------------------------------------
    1      S       0.5167560063    -1.5548264367     0.9748305275
    2      S      -2.0778502288    -0.3046210853     0.7879575510
    3      C       0.5041973951    -0.0236192422    -0.1228631972
    4      C      -0.6617456692     0.8443408015     0.3217639379
    5      C       1.8537344207     0.6803708491    -0.1828908976
    6      H       0.2434105524    -0.4668127455    -1.0893861542
    7      H      -0.4229668987     1.4350730838     1.2105555153
    8      H      -0.9978893491     1.5037163089    -0.4858945071
    9      H       1.8012788536     1.5227127151    -0.8820949009
   10      H       2.1449552437     1.0760468574     0.7953772320
   11      H       2.6391245456     0.0004373877    -0.5261316252
   12      H       0.6406610522    -0.8907883671     2.1451652747
   13      H      -1.9439659238    -0.6970251268    -0.7573887563
 ----------------------------------------------------------------

   12    -915.3683302153      6.47e-07  Convergence criterion met
 Total energy in the final basis set =     -915.3683302153

                    Orbital Energies (a.u.)
 --------------------------------------------------------------

 Alpha MOs
 -- Occupied --
-88.911 -88.905 -10.246 -10.221 -10.202  -7.973  -7.962  -5.936
 -5.933  -5.931  -5.929  -5.922  -5.920  -0.850  -0.759  -0.734
 -0.660  -0.593  -0.485  -0.457  -0.441  -0.426  -0.410  -0.370
 -0.358  -0.346  -0.333  -0.308  -0.245  -0.091

 Beta MOs
 -- Occupied --
-88.909 -88.899 -10.245 -10.219 -10.202  -7.971  -7.955  -5.935
 -5.932  -5.926  -5.918  -5.913  -5.911  -0.844  -0.740  -0.728
 -0.638  -0.586  -0.481  -0.453  -0.434  -0.420  -0.406  -0.364
 -0.345  -0.324  -0.306  -0.271

          Ground-State Mulliken Net Atomic Charges

     Atom                 Charge (a.u.)    Spin (a.u.)
  --------------------------------------------------------
      1 S                     0.041254       0.280466
      2 S                     0.109149       1.114588
      3 C                    -0.215075       0.017329
      4 C                    -0.304154       0.012625
      5 C                    -0.303844      -0.003139
      6 H                     0.154574       0.018638
      7 H                     0.126571       0.002018
      8 H                     0.142270       0.017537
      9 H                     0.122996       0.001387
     10 H                     0.114077       0.000282
     11 H                     0.128068       0.004355
     12 H                     0.082588      -0.005599
     13 H                    -0.198475       0.539512
  --------------------------------------------------------
  Sum of atomic charges =     0.000000

                    Cartesian Multipole Moments
 -----------------------------------------------------------------
    Charge (ESU x 10^10)
                 0.0000
    Dipole Moment (Debye)
         X       2.7114      Y       1.8914      Z       0.3379
       Tot       3.3231
    Quadrupole Moments (Debye-Ang)
        XX     -51.9197     XY      -1.0670     YY     -48.6025
        XZ       1.0322     YZ      -0.6114     ZZ     -46.4520

 Final energy is   -915.368330215269
 **  OPTIMIZATION CONVERGED  **
 Total job time:  48.24s(wall), 559.08s(cpu)
        *  Thank you very much for using Q-Chem.  Have a nice day.  *
