 Q-Chem 5.1, Q-Chem, Inc., Pleasanton, CA (2018)
 Q-Chem 5.1.1 for Intel X86 EM64T Linux

User input:
--------------------------------------------------------------

$comment
potential surface scanner
$end

$rem
JOBTYPE  PES_SCAN
UNRESTRICTED TRUE
SYM_IGNORE  TRUE
GEOM_OPT_MAX_CYCLES 400
SCF_MAX_CYCLES 400
METHOD   B3LYP
BASIS   6-31G**
PDB_PRINT 2
SCF_CONVERGENCE 6
THRESH 14
SCF_PRINT 1
$end
$molecule
0 3
S 0.537480 -1.510828 1.089807
S -2.178858 0.014836 0.858157
C 0.448110 -0.016771 -0.014672
C -0.633729 0.928819 0.512035
C 1.803124 0.662393 -0.203060
H 0.101916 -0.447800 -0.960008
H -0.286393 1.433749 1.420310
H -0.863149 1.702241 -0.232461
H 1.712183 1.498282 -0.906555
H 2.183332 1.061267 0.743494
H 2.542036 -0.039173 -0.598179
H 0.936097 -0.851691 2.198873
H -2.062452 -1.310322 -1.718742
$end
$scan
stre 2 13 2.800000 2.801000 0.100000
$end
--------------------------------------------------------------

   11    -915.3856544619      6.19e-07  Convergence criterion met
 Total energy in the final basis set =     -915.3856544619
   10    -915.3858699335      8.41e-07  Convergence criterion met
 Total energy in the final basis set =     -915.3858699335
   10    -915.3858848310      8.56e-07  Convergence criterion met
 Total energy in the final basis set =     -915.3858848310
   10    -915.3859042771      9.20e-07  Convergence criterion met
 Total energy in the final basis set =     -915.3859042771
   10    -915.3859063268      9.21e-07  Convergence criterion met
 Total energy in the final basis set =     -915.3859063268
   10    -915.3859102351      9.07e-07  Convergence criterion met
 Total energy in the final basis set =     -915.3859102351
   10    -915.3859112823      9.01e-07  Convergence criterion met
 Total energy in the final basis set =     -915.3859112823
   10    -915.3859133780      8.95e-07  Convergence criterion met
 Total energy in the final basis set =     -915.3859133780
   10    -915.3859151326      8.99e-07  Convergence criterion met
 Total energy in the final basis set =     -915.3859151326
   10    -915.3859169529      9.12e-07  Convergence criterion met
 Total energy in the final basis set =     -915.3859169529
   10    -915.3859181690      9.24e-07  Convergence criterion met
 Total energy in the final basis set =     -915.3859181690

             Standard Nuclear Orientation (Angstroms)
    I     Atom           X                Y                Z
 ----------------------------------------------------------------
    1      S       0.5437026628    -1.5136273655     1.0919509032
    2      S      -2.1658994854    -0.0245686265     0.8641172385
    3      C       0.4527013906    -0.0242269223    -0.0194182376
    4      C      -0.6400358441     0.9146295771     0.4969223326
    5      C       1.8054295681     0.6617738402    -0.2005604265
    6      H       0.1146138617    -0.4609395803    -0.9651327727
    7      H      -0.2975505195     1.4396815434     1.3956984956
    8      H      -0.8843296485     1.6711864722    -0.2597041352
    9      H       1.7146731528     1.4954438400    -0.9067229038
   10      H       2.1770133013     1.0648969221     0.7475520481
   11      H       2.5504905240    -0.0367835710    -0.5894147200
   12      H       0.9284421527    -0.8473754487     2.2016589944
   13      H      -2.0595541163    -1.2150886805    -1.6679478166
 ----------------------------------------------------------------

   10    -915.3859190057      9.33e-07  Convergence criterion met
 Total energy in the final basis set =     -915.3859190057

                    Orbital Energies (a.u.)
 --------------------------------------------------------------

 Alpha MOs
 -- Occupied --
-88.897 -88.888 -10.246 -10.232 -10.201  -7.959  -7.948  -5.923
 -5.920  -5.917  -5.915  -5.910  -5.902  -0.847  -0.757  -0.725
 -0.648  -0.591  -0.484  -0.453  -0.438  -0.421  -0.405  -0.366
 -0.355  -0.334  -0.294  -0.288  -0.247  -0.227

 Beta MOs
 -- Occupied --
-88.896 -88.882 -10.246 -10.232 -10.201  -7.958  -7.942  -5.923
 -5.919  -5.913  -5.906  -5.901  -5.897  -0.843  -0.744  -0.722
 -0.627  -0.584  -0.480  -0.451  -0.434  -0.419  -0.403  -0.365
 -0.346  -0.329  -0.257  -0.230

          Ground-State Mulliken Net Atomic Charges

     Atom                 Charge (a.u.)    Spin (a.u.)
  --------------------------------------------------------
      1 S                     0.012930       0.114764
      2 S                     0.014842       0.958991
      3 C                    -0.216433       0.020420
      4 C                    -0.324471      -0.030858
      5 C                    -0.308216      -0.001133
      6 H                     0.158700      -0.003890
      7 H                     0.136052       0.003101
      8 H                     0.148845       0.015171
      9 H                     0.117760       0.000804
     10 H                     0.112310       0.000764
     11 H                     0.132472       0.000424
     12 H                     0.067779      -0.003814
     13 H                    -0.052569       0.925256
  --------------------------------------------------------
  Sum of atomic charges =    -0.000000

                    Cartesian Multipole Moments
 -----------------------------------------------------------------
    Charge (ESU x 10^10)
                 0.0000
    Dipole Moment (Debye)
         X       2.5557      Y       2.1841      Z      -0.0171
       Tot       3.3618
    Quadrupole Moments (Debye-Ang)
        XX     -52.0373     XY      -0.6160     YY     -48.7748
        XZ       1.8853     YZ      -0.2763     ZZ     -46.4953

 Final energy is   -915.385919005695
 **  OPTIMIZATION CONVERGED  **
 Total job time:  51.73s(wall), 595.39s(cpu)
        *  Thank you very much for using Q-Chem.  Have a nice day.  *
