 Q-Chem 5.1, Q-Chem, Inc., Pleasanton, CA (2018)
 Q-Chem 5.1.1 for Intel X86 EM64T Linux

User input:
--------------------------------------------------------------

$comment
potential surface scanner
$end

$rem
JOBTYPE  PES_SCAN
UNRESTRICTED TRUE
SYM_IGNORE  TRUE
GEOM_OPT_MAX_CYCLES 400
SCF_MAX_CYCLES 400
METHOD   B3LYP
BASIS   6-31G**
PDB_PRINT 2
SCF_CONVERGENCE 6
THRESH 14
SCF_PRINT 1
$end
$molecule
0 1
S 0.665650 -1.709497 0.222409
S -2.342951 0.134686 -0.189500
C 0.513935 0.070322 -0.279295
C -0.704056 0.757260 0.355317
C 1.803370 0.847066 0.005757
H 0.354855 0.005052 -1.360353
H -0.637200 0.723418 1.447485
H -0.708033 1.813571 0.063970
H 1.723890 1.869465 -0.381196
H 1.996416 0.911508 1.082336
H 2.663268 0.364896 -0.464697
H 1.030238 -1.467876 1.498863
H -2.119682 -1.194869 0.187905
$end
$scan
stre 2 13 1.500000 1.501000 0.100000
$end
--------------------------------------------------------------

    9    -915.5250720099      2.46e-07  Convergence criterion met
 Total energy in the final basis set =     -915.5250720099
    9    -915.5181875591      2.58e-07  Convergence criterion met
 Total energy in the final basis set =     -915.5181875591
    9    -915.5180066913      2.56e-07  Convergence criterion met
 Total energy in the final basis set =     -915.5180066913
    9    -915.5180140728      2.56e-07  Convergence criterion met
 Total energy in the final basis set =     -915.5180140728
    9    -915.5180251826      2.58e-07  Convergence criterion met
 Total energy in the final basis set =     -915.5180251826
    9    -915.5180262594      2.58e-07  Convergence criterion met
 Total energy in the final basis set =     -915.5180262594
    9    -915.5180277783      2.57e-07  Convergence criterion met
 Total energy in the final basis set =     -915.5180277783

             Standard Nuclear Orientation (Angstroms)
    I     Atom           X                Y                Z
 ----------------------------------------------------------------
    1      S       0.6466278474    -1.7036515394     0.2233539496
    2      S      -2.3487090397     0.1595717980    -0.1753464219
    3      C       0.5066709872     0.0771305896    -0.2777859400
    4      C      -0.7043270991     0.7745336990     0.3596299036
    5      C       1.8030582202     0.8433878230     0.0038438384
    6      H       0.3442426379     0.0121086176    -1.3584109313
    7      H      -0.6321937364     0.7436414140     1.4515876412
    8      H      -0.7013949189     1.8295667405     0.0632137316
    9      H       1.7314841353     1.8653472300    -0.3856893018
   10      H       1.9976381083     0.9088519527     1.0800720092
   11      H       2.6584823816     0.3529484601    -0.4662267107
   12      H       1.0018618739    -1.4657965238     1.5032262586
   13      H      -2.0637413978    -1.2726382612     0.1675329735
 ----------------------------------------------------------------

    9    -915.5180284282      2.57e-07  Convergence criterion met
 Total energy in the final basis set =     -915.5180284282

                    Orbital Energies (a.u.)
 --------------------------------------------------------------

 Alpha MOs
 -- Occupied --
-88.883 -88.878 -10.241 -10.228 -10.197  -7.946  -7.938  -5.911
 -5.907  -5.903  -5.900  -5.900  -5.893  -0.837  -0.755  -0.715
 -0.648  -0.589  -0.479  -0.452  -0.432  -0.418  -0.399  -0.375
 -0.360  -0.329  -0.321  -0.249  -0.235

 Beta MOs
 -- Occupied --
-88.883 -88.878 -10.241 -10.228 -10.197  -7.946  -7.938  -5.911
 -5.907  -5.903  -5.900  -5.900  -5.893  -0.837  -0.755  -0.715
 -0.648  -0.589  -0.479  -0.452  -0.432  -0.418  -0.399  -0.375
 -0.360  -0.329  -0.321  -0.249  -0.235

          Ground-State Mulliken Net Atomic Charges

     Atom                 Charge (a.u.)    Spin (a.u.)
  --------------------------------------------------------
      1 S                    -0.041001       0.000000
      2 S                    -0.060522       0.000000
      3 C                    -0.210861      -0.000000
      4 C                    -0.311637       0.000000
      5 C                    -0.311214      -0.000000
      6 H                     0.155736       0.000000
      7 H                     0.136977      -0.000000
      8 H                     0.141119      -0.000000
      9 H                     0.114376      -0.000000
     10 H                     0.110877       0.000000
     11 H                     0.132534       0.000000
     12 H                     0.060252      -0.000000
     13 H                     0.083366      -0.000000
  --------------------------------------------------------
  Sum of atomic charges =    -0.000000

                    Cartesian Multipole Moments
 -----------------------------------------------------------------
    Charge (ESU x 10^10)
                -0.0000
    Dipole Moment (Debye)
         X       1.9703      Y       1.2396      Z       0.9314
       Tot       2.5073
    Quadrupole Moments (Debye-Ang)
        XX     -52.6459     XY       2.7155     YY     -47.4943
        XZ       0.4349     YZ      -1.3775     ZZ     -45.6842

 Final energy is   -915.518028428178
 **  OPTIMIZATION CONVERGED  **
 Total job time:  32.58s(wall), 372.82s(cpu)
        *  Thank you very much for using Q-Chem.  Have a nice day.  *
