 Q-Chem 5.1, Q-Chem, Inc., Pleasanton, CA (2018)
 Q-Chem 5.1.1 for Intel X86 EM64T Linux

User input:
--------------------------------------------------------------

$comment
potential surface scanner
$end

$rem
JOBTYPE  PES_SCAN
UNRESTRICTED TRUE
SYM_IGNORE  TRUE
GEOM_OPT_MAX_CYCLES 400
SCF_MAX_CYCLES 400
METHOD   B3LYP
BASIS   6-31G**
PDB_PRINT 2
SCF_CONVERGENCE 6
THRESH 14
SCF_PRINT 1
$end
$molecule
0 3
S 0.473693 -1.675489 0.147706
S -2.356280 0.073221 0.040377
C 0.453289 0.135751 -0.293856
C -0.737819 0.871824 0.350674
C 1.794213 0.797805 0.021857
H 0.295010 0.092544 -1.376714
H -0.560208 0.977715 1.427923
H -0.763126 1.879889 -0.077495
H 1.769725 1.841388 -0.311100
H 1.994103 0.797349 1.098429
H 2.623814 0.296711 -0.482483
H 0.641770 -1.524284 1.479645
H -1.388486 -1.439420 0.164036
$end
$scan
stre 2 13 4.000000 4.001000 0.100000
$end
--------------------------------------------------------------

   15    -915.3380489818      4.52e-07  Convergence criterion met
 Total energy in the final basis set =     -915.3380489818
   13    -915.3590848713      7.63e-07  Convergence criterion met
 Total energy in the final basis set =     -915.3590848713
   12    -915.3665262499      8.43e-07  Convergence criterion met
 Total energy in the final basis set =     -915.3665262499
   11    -915.3707076946      4.23e-07  Convergence criterion met
 Total energy in the final basis set =     -915.3707076946
   12    -915.3745972117      8.10e-07  Convergence criterion met
 Total energy in the final basis set =     -915.3745972117
   13    -915.3782558980      5.36e-07  Convergence criterion met
 Total energy in the final basis set =     -915.3782558980
   13    -915.3806738706      8.75e-07  Convergence criterion met
 Total energy in the final basis set =     -915.3806738706
   14    -915.3819614690      4.77e-07  Convergence criterion met
   11    -915.3840731597      9.07e-07  Convergence criterion met
 Total energy in the final basis set =     -915.3840731597
   10    -915.3840951879      9.34e-07  Convergence criterion met
 Total energy in the final basis set =     -915.3840951879
   10    -915.3840727095      9.99e-07  Convergence criterion met
 Total energy in the final basis set =     -915.3840727095
   10    -915.3841115337      9.25e-07  Convergence criterion met
 Total energy in the final basis set =     -915.3841115337
   10    -915.3841147018      9.20e-07  Convergence criterion met
 Total energy in the final basis set =     -915.3841147018
   10    -915.3841169323      9.19e-07  Convergence criterion met
 Total energy in the final basis set =     -915.3841169323

             Standard Nuclear Orientation (Angstroms)
    I     Atom           X                Y                Z
 ----------------------------------------------------------------
    1      S       0.2969497543    -1.4840821844     0.3585169003
    2      S      -2.2503507312     0.5343864485     0.3532122258
    3      C       0.4736584008     0.2762247363    -0.2090420429
    4      C      -0.5460282664     1.1616638127     0.5120674988
    5      C       1.9062291956     0.7937286806    -0.0752324933
    6      H       0.1946958478     0.2110121887    -1.2655332271
    7      H      -0.2785841408     1.2667144918     1.5696906419
    8      H      -0.5449178989     2.1716721436     0.0779070348
    9      H       1.9847778578     1.8067964337    -0.4870580367
   10      H       2.2173723847     0.8335277265     0.9740719732
   11      H       2.6066451640     0.1497546674    -0.6124636156
   12      H       0.6661482412    -1.2648036063     1.6387793690
   13      H      -2.4868978089    -3.3315915390    -0.6459172280
 ----------------------------------------------------------------

   10    -915.3841174473      9.19e-07  Convergence criterion met
 Total energy in the final basis set =     -915.3841174473

                    Orbital Energies (a.u.)
 --------------------------------------------------------------

 Alpha MOs
 -- Occupied --
-88.888 -88.884 -10.243 -10.230 -10.198  -7.950  -7.944  -5.915
 -5.914  -5.911  -5.906  -5.906  -5.896  -0.842  -0.756  -0.719
 -0.644  -0.588  -0.481  -0.451  -0.435  -0.419  -0.401  -0.363
 -0.350  -0.331  -0.299  -0.279  -0.246  -0.238

 Beta MOs
 -- Occupied --
-88.888 -88.878 -10.243 -10.231 -10.199  -7.950  -7.939  -5.915
 -5.911  -5.904  -5.903  -5.897  -5.893  -0.839  -0.743  -0.717
 -0.625  -0.582  -0.477  -0.449  -0.431  -0.416  -0.399  -0.362
 -0.343  -0.326  -0.250  -0.225

          Ground-State Mulliken Net Atomic Charges

     Atom                 Charge (a.u.)    Spin (a.u.)
  --------------------------------------------------------
      1 S                    -0.007699       0.068002
      2 S                    -0.004014       0.933782
      3 C                    -0.211465       0.008432
      4 C                    -0.327347      -0.028231
      5 C                    -0.308265      -0.000254
      6 H                     0.155338      -0.000960
      7 H                     0.137837       0.004612
      8 H                     0.146280       0.021149
      9 H                     0.114257       0.000818
     10 H                     0.111833       0.000017
     11 H                     0.131956       0.000027
     12 H                     0.061476      -0.000874
     13 H                    -0.000187       0.993481
  --------------------------------------------------------
  Sum of atomic charges =    -0.000000

                    Cartesian Multipole Moments
 -----------------------------------------------------------------
    Charge (ESU x 10^10)
                 0.0000
    Dipole Moment (Debye)
         X       2.4941      Y       1.7400      Z       0.3143
       Tot       3.0573
    Quadrupole Moments (Debye-Ang)
        XX     -52.3473     XY       1.0182     YY     -47.4894
        XZ       1.7385     YZ      -1.4876     ZZ     -45.6476

 Final energy is   -915.384117447305
 **  OPTIMIZATION CONVERGED  **
 Total job time:  154.11s(wall), 1730.71s(cpu)
        *  Thank you very much for using Q-Chem.  Have a nice day.  *
