 Q-Chem 5.1, Q-Chem, Inc., Pleasanton, CA (2018)
 Q-Chem 5.1.1 for Intel X86 EM64T Linux

User input:
--------------------------------------------------------------

$comment
potential surface scanner
$end

$rem
JOBTYPE  PES_SCAN
UNRESTRICTED TRUE
SYM_IGNORE  TRUE
GEOM_OPT_MAX_CYCLES 400
SCF_MAX_CYCLES 400
METHOD   B3LYP
BASIS   6-31G**
PDB_PRINT 2
SCF_CONVERGENCE 6
THRESH 14
SCF_PRINT 1
$end
$molecule
0 3
S 0.544214 -1.516490 1.085999
S -2.163071 -0.042093 0.846028
C 0.457447 -0.027373 -0.026155
C -0.641632 0.906613 0.483970
C 1.807967 0.664139 -0.199022
H 0.126834 -0.465604 -0.973408
H -0.306344 1.430088 1.386227
H -0.885949 1.663047 -0.272495
H 1.717077 1.497378 -0.905603
H 2.172997 1.068909 0.750975
H 2.558489 -0.030757 -0.584062
H 0.914895 -0.849310 2.199972
H -2.063226 -1.173546 -1.603429
$end
$scan
stre 2 13 2.600000 2.601000 0.100000
$end
--------------------------------------------------------------

   11    -915.3861836043      6.27e-07  Convergence criterion met
 Total energy in the final basis set =     -915.3861836043
   11    -915.3863789414      6.07e-07  Convergence criterion met
 Total energy in the final basis set =     -915.3863789414
   11    -915.3863965098      6.13e-07  Convergence criterion met
 Total energy in the final basis set =     -915.3863965098
   11    -915.3864167783      6.24e-07  Convergence criterion met
 Total energy in the final basis set =     -915.3864167783
   11    -915.3864195164      6.22e-07  Convergence criterion met
 Total energy in the final basis set =     -915.3864195164
   11    -915.3864248469      6.11e-07  Convergence criterion met
 Total energy in the final basis set =     -915.3864248469
   11    -915.3864263474      6.07e-07  Convergence criterion met
 Total energy in the final basis set =     -915.3864263474
   11    -915.3864288172      6.01e-07  Convergence criterion met
 Total energy in the final basis set =     -915.3864288172
   11    -915.3864305111      5.99e-07  Convergence criterion met
 Total energy in the final basis set =     -915.3864305111
   11    -915.3864319199      6.01e-07  Convergence criterion met
 Total energy in the final basis set =     -915.3864319199

             Standard Nuclear Orientation (Angstroms)
    I     Atom           X                Y                Z
 ----------------------------------------------------------------
    1      S       0.5486599383    -1.5198841504     1.0861320769
    2      S      -2.1514192726    -0.0780715053     0.8492425221
    3      C       0.4613175370    -0.0339984493    -0.0311617669
    4      C      -0.6482101459     0.8934759043     0.4689550090
    5      C       1.8097620055     0.6634091990    -0.1964145934
    6      H       0.1373686731    -0.4768276162    -0.9786896814
    7      H      -0.3193816193     1.4359653807     1.3623570077
    8      H      -0.9059061401     1.6329544038    -0.2993642543
    9      H       1.7196103663     1.4952003136    -0.9048218251
   10      H       2.1664840857     1.0712221163     0.7553777249
   11      H       2.5657473507    -0.0285672206    -0.5759743346
   12      H       0.9094780146    -0.8480311799     2.2005536001
   13      H      -2.0538127932    -1.0818461961    -1.5471944851
 ----------------------------------------------------------------

   11    -915.3864327010      6.03e-07  Convergence criterion met
 Total energy in the final basis set =     -915.3864327010

                    Orbital Energies (a.u.)
 --------------------------------------------------------------

 Alpha MOs
 -- Occupied --
-88.899 -88.891 -10.247 -10.232 -10.202  -7.961  -7.950  -5.926
 -5.922  -5.919  -5.918  -5.912  -5.905  -0.848  -0.758  -0.727
 -0.649  -0.592  -0.485  -0.454  -0.440  -0.422  -0.406  -0.367
 -0.356  -0.335  -0.294  -0.290  -0.248  -0.217

 Beta MOs
 -- Occupied --
-88.898 -88.885 -10.247 -10.233 -10.202  -7.960  -7.944  -5.925
 -5.921  -5.915  -5.908  -5.903  -5.899  -0.845  -0.745  -0.724
 -0.628  -0.585  -0.482  -0.452  -0.435  -0.420  -0.404  -0.366
 -0.347  -0.330  -0.259  -0.234

          Ground-State Mulliken Net Atomic Charges

     Atom                 Charge (a.u.)    Spin (a.u.)
  --------------------------------------------------------
      1 S                     0.018709       0.127397
      2 S                     0.029026       0.976662
      3 C                    -0.217836       0.021280
      4 C                    -0.323857      -0.032357
      5 C                    -0.308413      -0.001263
      6 H                     0.161429      -0.002779
      7 H                     0.136182       0.002431
      8 H                     0.150457       0.014632
      9 H                     0.118828       0.000871
     10 H                     0.112341       0.000870
     11 H                     0.132713       0.000484
     12 H                     0.069240      -0.004174
     13 H                    -0.078819       0.895944
  --------------------------------------------------------
  Sum of atomic charges =    -0.000000

                    Cartesian Multipole Moments
 -----------------------------------------------------------------
    Charge (ESU x 10^10)
                -0.0000
    Dipole Moment (Debye)
         X       2.6482      Y       2.2458      Z       0.2079
       Tot       3.4785
    Quadrupole Moments (Debye-Ang)
        XX     -52.0915     XY      -0.9069     YY     -48.7558
        XZ       1.3561     YZ      -0.4207     ZZ     -46.6223

 Final energy is   -915.386432701004
 **  OPTIMIZATION CONVERGED  **
 Total job time:  49.69s(wall), 573.88s(cpu)
        *  Thank you very much for using Q-Chem.  Have a nice day.  *
