 Q-Chem 5.1, Q-Chem, Inc., Pleasanton, CA (2018)
 Q-Chem 5.1.1 for Intel X86 EM64T Linux

User input:
--------------------------------------------------------------

$comment
potential surface scanner
$end

$rem
JOBTYPE  PES_SCAN
UNRESTRICTED TRUE
SYM_IGNORE  TRUE
GEOM_OPT_MAX_CYCLES 400
SCF_MAX_CYCLES 400
METHOD   B3LYP
BASIS   6-31G**
PDB_PRINT 2
SCF_CONVERGENCE 6
THRESH 14
SCF_PRINT 1
$end
$molecule
0 3
S 0.356765 -1.511814 0.380251
S -2.242618 0.415063 0.347270
C 0.486427 0.246878 -0.209624
C -0.562841 1.108419 0.497918
C 1.902939 0.805369 -0.074352
H 0.214026 0.160005 -1.266181
H -0.300144 1.234547 1.554411
H -0.594404 2.111513 0.049972
H 1.956344 1.813772 -0.501410
H 2.204898 0.870326 0.976440
H 2.625426 0.173391 -0.596501
H 0.711446 -1.263293 1.659294
H -2.518566 -3.039174 -0.628488
$end
$scan
stre 2 13 3.500000 3.501000 0.100000
$end
--------------------------------------------------------------

   11    -915.3840587080      4.50e-07  Convergence criterion met
 Total energy in the final basis set =     -915.3840587080
   11    -915.3839854536      4.08e-07  Convergence criterion met
 Total energy in the final basis set =     -915.3839854536
   11    -915.3840011753      4.10e-07  Convergence criterion met
 Total energy in the final basis set =     -915.3840011753
   11    -915.3840217569      4.28e-07  Convergence criterion met
 Total energy in the final basis set =     -915.3840217569
   11    -915.3840235742      4.33e-07  Convergence criterion met
 Total energy in the final basis set =     -915.3840235742
   11    -915.3840283648      4.59e-07  Convergence criterion met
 Total energy in the final basis set =     -915.3840283648

             Standard Nuclear Orientation (Angstroms)
    I     Atom           X                Y                Z
 ----------------------------------------------------------------
    1      S       0.3737109948    -1.5195919947     0.3843462299
    2      S      -2.2419426227     0.3882802087     0.3426155213
    3      C       0.4898795870     0.2386335010    -0.2100311848
    4      C      -0.5675245832     1.0938628436     0.4931900863
    5      C       1.9015789873     0.8088719337    -0.0730546396
    6      H       0.2204992109     0.1466538723    -1.2669141541
    7      H      -0.3077344647     1.2248053173     1.5498275538
    8      H      -0.6058693030     2.0956790023     0.0428503550
    9      H       1.9480305857     1.8162553744    -0.5032900707
   10      H       2.2001262062     0.8797831090     0.9783536195
   11      H       2.6306765422     0.1810980591    -0.5911011734
   12      H       0.7292029875    -1.2649556111     1.6619828629
   13      H      -2.5309361280    -2.9643736156    -0.6197750062
 ----------------------------------------------------------------

   11    -915.3840292783      4.66e-07  Convergence criterion met
 Total energy in the final basis set =     -915.3840292783

                    Orbital Energies (a.u.)
 --------------------------------------------------------------

 Alpha MOs
 -- Occupied --
-88.889 -88.883 -10.243 -10.230 -10.199  -7.951  -7.943  -5.916
 -5.914  -5.912  -5.907  -5.905  -5.896  -0.842  -0.756  -0.720
 -0.644  -0.588  -0.481  -0.451  -0.435  -0.419  -0.401  -0.364
 -0.351  -0.331  -0.298  -0.277  -0.247  -0.238

 Beta MOs
 -- Occupied --
-88.889 -88.878 -10.243 -10.230 -10.199  -7.951  -7.938  -5.915
 -5.912  -5.905  -5.902  -5.897  -5.893  -0.840  -0.743  -0.718
 -0.625  -0.582  -0.477  -0.449  -0.431  -0.417  -0.399  -0.363
 -0.343  -0.327  -0.251  -0.225

          Ground-State Mulliken Net Atomic Charges

     Atom                 Charge (a.u.)    Spin (a.u.)
  --------------------------------------------------------
      1 S                    -0.005253       0.073741
      2 S                    -0.005179       0.932191
      3 C                    -0.211460       0.007886
      4 C                    -0.327297      -0.027095
      5 C                    -0.308605      -0.000205
      6 H                     0.155562      -0.000992
      7 H                     0.137738       0.004815
      8 H                     0.146276       0.020746
      9 H                     0.114651       0.000830
     10 H                     0.111881       0.000015
     11 H                     0.132091       0.000025
     12 H                     0.061821      -0.001046
     13 H                    -0.002226       0.989089
  --------------------------------------------------------
  Sum of atomic charges =    -0.000000

                    Cartesian Multipole Moments
 -----------------------------------------------------------------
    Charge (ESU x 10^10)
                -0.0000
    Dipole Moment (Debye)
         X       2.4758      Y       1.8516      Z       0.3014
       Tot       3.1063
    Quadrupole Moments (Debye-Ang)
        XX     -52.3797     XY       0.6734     YY     -47.7105
        XZ       1.7561     YZ      -1.4346     ZZ     -45.5887

 Final energy is   -915.384029278335
 **  OPTIMIZATION CONVERGED  **
 Total job time:  31.59s(wall), 363.21s(cpu)
        *  Thank you very much for using Q-Chem.  Have a nice day.  *
