 Q-Chem 5.1, Q-Chem, Inc., Pleasanton, CA (2018)
 Q-Chem 5.1.1 for Intel X86 EM64T Linux

User input:
--------------------------------------------------------------

$comment
potential surface scanner
$end

$rem
JOBTYPE  PES_SCAN
UNRESTRICTED TRUE
SYM_IGNORE  TRUE
GEOM_OPT_MAX_CYCLES 400
SCF_MAX_CYCLES 400
METHOD   B3LYP
BASIS   6-31G**
PDB_PRINT 2
SCF_CONVERGENCE 6
THRESH 14
SCF_PRINT 1
$end
$molecule
0 3
S 0.562674 -1.526488 1.089392
S -2.136044 -0.137505 0.831424
C 0.472920 -0.048192 -0.038378
C -0.655850 0.866433 0.441547
C 1.812961 0.665542 -0.194633
H 0.163330 -0.502421 -0.985234
H -0.345382 1.426754 1.330125
H -0.924943 1.585684 -0.341244
H 1.717493 1.491776 -0.908730
H 2.156361 1.083641 0.757600
H 2.581317 -0.018233 -0.564290
H 0.889647 -0.844692 2.208325
H -2.054786 -0.917297 -1.436906
$end
$scan
stre 2 13 2.300000 2.301000 0.100000
$end
--------------------------------------------------------------

   11    -915.3866691819      5.43e-07  Convergence criterion met
 Total energy in the final basis set =     -915.3866691819
   11    -915.3864480504      5.25e-07  Convergence criterion met
 Total energy in the final basis set =     -915.3864480504
   11    -915.3864827085      5.27e-07  Convergence criterion met
 Total energy in the final basis set =     -915.3864827085
   11    -915.3864956101      5.27e-07  Convergence criterion met
 Total energy in the final basis set =     -915.3864956101
   11    -915.3865017115      5.25e-07  Convergence criterion met
 Total energy in the final basis set =     -915.3865017115
   11    -915.3865054402      5.22e-07  Convergence criterion met
 Total energy in the final basis set =     -915.3865054402
   11    -915.3865068389      5.21e-07  Convergence criterion met
 Total energy in the final basis set =     -915.3865068389

             Standard Nuclear Orientation (Angstroms)
    I     Atom           X                Y                Z
 ----------------------------------------------------------------
    1      S       0.5620111181    -1.5298990616     1.0814152164
    2      S      -2.1332194013    -0.1541416176     0.8174424999
    3      C       0.4752329033    -0.0506224225    -0.0455937827
    4      C      -0.6588402054     0.8593549374     0.4294648486
    5      C       1.8142648334     0.6665426224    -0.1941754745
    6      H       0.1707402489    -0.5046152262    -0.9938787998
    7      H      -0.3549039674     1.4221041995     1.3186601689
    8      H      -0.9305977957     1.5753866594    -0.3552279107
    9      H       1.7203112827     1.4925567997    -0.9087231307
   10      H       2.1518404156     1.0852595885     0.7598438871
   11      H       2.5861011297    -0.0152253532    -0.5603191915
   12      H       0.8725223040    -0.8480088528     2.2050204385
   13      H      -2.0357648657    -0.8736902731    -1.3649307695
 ----------------------------------------------------------------

   11    -915.3865076932      5.21e-07  Convergence criterion met
 Total energy in the final basis set =     -915.3865076932

                    Orbital Energies (a.u.)
 --------------------------------------------------------------

 Alpha MOs
 -- Occupied --
-88.903 -88.895 -10.248 -10.234 -10.203  -7.965  -7.955  -5.929
 -5.925  -5.923  -5.921  -5.916  -5.910  -0.851  -0.761  -0.730
 -0.652  -0.594  -0.487  -0.456  -0.442  -0.424  -0.408  -0.368
 -0.359  -0.337  -0.301  -0.294  -0.249  -0.193

 Beta MOs
 -- Occupied --
-88.902 -88.889 -10.248 -10.234 -10.203  -7.964  -7.948  -5.928
 -5.925  -5.918  -5.912  -5.906  -5.903  -0.847  -0.747  -0.726
 -0.630  -0.586  -0.483  -0.454  -0.436  -0.422  -0.406  -0.366
 -0.349  -0.331  -0.262  -0.244

          Ground-State Mulliken Net Atomic Charges

     Atom                 Charge (a.u.)    Spin (a.u.)
  --------------------------------------------------------
      1 S                     0.025968       0.144213
      2 S                     0.058905       1.013349
      3 C                    -0.219827       0.022173
      4 C                    -0.322599      -0.035401
      5 C                    -0.308252      -0.001400
      6 H                     0.165705       0.000096
      7 H                     0.136657       0.000327
      8 H                     0.153151       0.015260
      9 H                     0.120360       0.000972
     10 H                     0.112292       0.000981
     11 H                     0.132871       0.000579
     12 H                     0.071483      -0.004563
     13 H                    -0.126714       0.843413
  --------------------------------------------------------
  Sum of atomic charges =    -0.000000

                    Cartesian Multipole Moments
 -----------------------------------------------------------------
    Charge (ESU x 10^10)
                 0.0000
    Dipole Moment (Debye)
         X       2.7505      Y       2.2864      Z       0.5530
       Tot       3.6192
    Quadrupole Moments (Debye-Ang)
        XX     -52.1400     XY      -1.1849     YY     -48.6371
        XZ       0.5297     YZ      -0.5370     ZZ     -46.7991

 Final energy is   -915.386507693241
 **  OPTIMIZATION CONVERGED  **
 Total job time:  47.04s(wall), 426.58s(cpu)
        *  Thank you very much for using Q-Chem.  Have a nice day.  *
