 Q-Chem 5.1, Q-Chem, Inc., Pleasanton, CA (2018)
 Q-Chem 5.1.1 for Intel X86 EM64T Linux

User input:
--------------------------------------------------------------

$comment
potential surface scanner
$end

$rem
JOBTYPE  PES_SCAN
UNRESTRICTED TRUE
SYM_IGNORE  TRUE
GEOM_OPT_MAX_CYCLES 400
SCF_MAX_CYCLES 400
METHOD   B3LYP
BASIS   6-31G**
PDB_PRINT 2
SCF_CONVERGENCE 6
THRESH 14
SCF_PRINT 1
$end
$molecule
0 3
S 0.509246 -1.498307 1.114295
S -2.234024 0.181780 0.899035
C 0.404894 -0.000468 0.019534
C -0.624909 0.981304 0.584588
C 1.769716 0.644472 -0.222753
H 0.014166 -0.418874 -0.913936
H -0.246356 1.440554 1.504590
H -0.810132 1.794053 -0.131789
H 1.675160 1.479316 -0.927041
H 2.193415 1.038692 0.707357
H 2.476330 -0.077845 -0.638910
H 1.027484 -0.858975 2.184991
H -1.915292 -1.580699 -1.990962
$end
$scan
stre 2 13 3.300000 3.301000 0.100000
$end
--------------------------------------------------------------

   11    -915.3847458835      4.42e-07  Convergence criterion met
 Total energy in the final basis set =     -915.3847458835
   11    -915.3848223043      4.74e-07  Convergence criterion met
 Total energy in the final basis set =     -915.3848223043
   11    -915.3848359158      4.78e-07  Convergence criterion met
 Total energy in the final basis set =     -915.3848359158
   11    -915.3848580334      4.87e-07  Convergence criterion met
 Total energy in the final basis set =     -915.3848580334
   11    -915.3848601235      4.84e-07  Convergence criterion met
 Total energy in the final basis set =     -915.3848601235
   11    -915.3848642442      4.72e-07  Convergence criterion met
 Total energy in the final basis set =     -915.3848642442

             Standard Nuclear Orientation (Angstroms)
    I     Atom           X                Y                Z
 ----------------------------------------------------------------
    1      S       0.5131518119    -1.5030498882     1.0993278581
    2      S      -2.2286664506     0.1626599847     0.8775846801
    3      C       0.4137117157    -0.0007689419     0.0102414249
    4      C      -0.6236882574     0.9744501253     0.5723648052
    5      C       1.7769552096     0.6508077688    -0.2197081334
    6      H       0.0298804659    -0.4171559491    -0.9271019313
    7      H      -0.2523770595     1.4316223134     1.4963202314
    8      H      -0.8095379372     1.7878279332    -0.1427893587
    9      H       1.6833902426     1.4886406171    -0.9205656981
   10      H       2.1931029570     1.0416393736     0.7152104072
   11      H       2.4894133683    -0.0663130414    -0.6347976801
   12      H       0.9995517338    -0.8648312125     2.1853761460
   13      H      -1.9451898002    -1.5605260829    -1.9224637514
 ----------------------------------------------------------------

   11    -915.3848651123      4.68e-07  Convergence criterion met
 Total energy in the final basis set =     -915.3848651123

                    Orbital Energies (a.u.)
 --------------------------------------------------------------

 Alpha MOs
 -- Occupied --
-88.890 -88.886 -10.243 -10.231 -10.199  -7.952  -7.946  -5.916
 -5.916  -5.913  -5.908  -5.908  -5.899  -0.843  -0.756  -0.720
 -0.645  -0.589  -0.482  -0.451  -0.436  -0.419  -0.402  -0.364
 -0.352  -0.331  -0.304  -0.282  -0.247  -0.237

 Beta MOs
 -- Occupied --
-88.889 -88.880 -10.243 -10.231 -10.199  -7.951  -7.940  -5.916
 -5.913  -5.906  -5.904  -5.899  -5.895  -0.840  -0.744  -0.718
 -0.625  -0.582  -0.478  -0.450  -0.432  -0.417  -0.400  -0.363
 -0.344  -0.327  -0.251  -0.227

          Ground-State Mulliken Net Atomic Charges

     Atom                 Charge (a.u.)    Spin (a.u.)
  --------------------------------------------------------
      1 S                    -0.003406       0.076203
      2 S                     0.002347       0.946158
      3 C                    -0.211641       0.018918
      4 C                    -0.326361      -0.029501
      5 C                    -0.308481      -0.000939
      6 H                     0.152733      -0.005268
      7 H                     0.137672       0.005007
      8 H                     0.146785       0.019658
      9 H                     0.115168       0.000590
     10 H                     0.111687       0.000632
     11 H                     0.132218       0.000204
     12 H                     0.062450      -0.002410
     13 H                    -0.011171       0.970747
  --------------------------------------------------------
  Sum of atomic charges =     0.000000

                    Cartesian Multipole Moments
 -----------------------------------------------------------------
    Charge (ESU x 10^10)
                -0.0000
    Dipole Moment (Debye)
         X       2.3186      Y       2.0227      Z      -0.4232
       Tot       3.1058
    Quadrupole Moments (Debye-Ang)
        XX     -51.8428     XY       0.2463     YY     -48.8088
        XZ       2.9673     YZ       0.0075     ZZ     -46.1778

 Final energy is   -915.384865112327
 **  OPTIMIZATION CONVERGED  **
 Total job time:  32.00s(wall), 366.35s(cpu)
        *  Thank you very much for using Q-Chem.  Have a nice day.  *
