 Q-Chem 5.1, Q-Chem, Inc., Pleasanton, CA (2018)
 Q-Chem 5.1.1 for Intel X86 EM64T Linux

User input:
--------------------------------------------------------------

$comment
potential surface scanner
$end

$rem
JOBTYPE  PES_SCAN
UNRESTRICTED TRUE
SYM_IGNORE  TRUE
GEOM_OPT_MAX_CYCLES 400
SCF_MAX_CYCLES 400
METHOD   B3LYP
BASIS   6-31G**
PDB_PRINT 2
SCF_CONVERGENCE 6
THRESH 14
SCF_PRINT 1
$end
$molecule
0 3
S 0.562363 -1.542458 1.055886
S -2.114235 -0.212323 0.784985
C 0.487399 -0.057300 -0.066147
C -0.666763 0.837818 0.387689
C 1.821895 0.671315 -0.188404
H 0.199638 -0.511325 -1.019830
H -0.388984 1.419282 1.272453
H -0.951567 1.528147 -0.414796
H 1.732192 1.498795 -0.901729
H 2.139874 1.089871 0.772386
H 2.605832 -0.002070 -0.544490
H 0.822880 -0.866053 2.195436
H -2.010825 -0.728692 -1.144437
$end
$scan
stre 2 13 1.900000 1.901000 0.100000
$end
--------------------------------------------------------------

   11    -915.3834933899      4.78e-07  Convergence criterion met
 Total energy in the final basis set =     -915.3834933899
   11    -915.3811144277      4.73e-07  Convergence criterion met
 Total energy in the final basis set =     -915.3811144277
   11    -915.3810784657      4.71e-07  Convergence criterion met
 Total energy in the final basis set =     -915.3810784657
   11    -915.3810835932      4.71e-07  Convergence criterion met
 Total energy in the final basis set =     -915.3810835932
   11    -915.3810886118      4.71e-07  Convergence criterion met
 Total energy in the final basis set =     -915.3810886118
   11    -915.3810908713      4.71e-07  Convergence criterion met
 Total energy in the final basis set =     -915.3810908713
   11    -915.3810921276      4.71e-07  Convergence criterion met
 Total energy in the final basis set =     -915.3810921276

             Standard Nuclear Orientation (Angstroms)
    I     Atom           X                Y                Z
 ----------------------------------------------------------------
    1      S       0.5654442017    -1.5478075117     1.0453754550
    2      S      -2.1036971437    -0.2344465742     0.7777690892
    3      C       0.4934194601    -0.0585798432    -0.0732218366
    4      C      -0.6681794089     0.8305759259     0.3726470893
    5      C       1.8262853764     0.6738381948    -0.1856322609
    6      H       0.2117054136    -0.5123727778    -1.0289595500
    7      H      -0.4009830209     1.4218380640     1.2537175003
    8      H      -0.9599371067     1.5068996550    -0.4392409101
    9      H       1.7384498334     1.5023576299    -0.8979719080
   10      H       2.1367648141     1.0916740967     0.7778789986
   11      H       2.6145425669     0.0035372342    -0.5381012994
   12      H       0.8006268037    -0.8750333641     2.1924574648
   13      H      -2.0147427897    -0.6774737295    -1.0677158321
 ----------------------------------------------------------------

   11    -915.3810923760      4.71e-07  Convergence criterion met
 Total energy in the final basis set =     -915.3810923760

                    Orbital Energies (a.u.)
 --------------------------------------------------------------

 Alpha MOs
 -- Occupied --
-88.907 -88.900 -10.249 -10.232 -10.203  -7.969  -7.959  -5.933
 -5.929  -5.927  -5.926  -5.920  -5.916  -0.853  -0.764  -0.733
 -0.656  -0.595  -0.488  -0.459  -0.443  -0.427  -0.410  -0.369
 -0.362  -0.339  -0.321  -0.299  -0.251  -0.140

 Beta MOs
 -- Occupied --
-88.906 -88.893 -10.248 -10.233 -10.204  -7.968  -7.952  -5.932
 -5.929  -5.922  -5.916  -5.910  -5.907  -0.848  -0.748  -0.728
 -0.633  -0.587  -0.484  -0.456  -0.437  -0.423  -0.407  -0.366
 -0.351  -0.332  -0.271  -0.264

          Ground-State Mulliken Net Atomic Charges

     Atom                 Charge (a.u.)    Spin (a.u.)
  --------------------------------------------------------
      1 S                     0.035619       0.173660
      2 S                     0.112016       1.067697
      3 C                    -0.221979       0.021685
      4 C                    -0.317425      -0.037480
      5 C                    -0.307459      -0.001645
      6 H                     0.168249       0.007775
      7 H                     0.136529      -0.002857
      8 H                     0.153545       0.020140
      9 H                     0.122181       0.001175
     10 H                     0.112584       0.000930
     11 H                     0.132491       0.000910
     12 H                     0.076186      -0.005676
     13 H                    -0.202535       0.753686
  --------------------------------------------------------
  Sum of atomic charges =     0.000000

                    Cartesian Multipole Moments
 -----------------------------------------------------------------
    Charge (ESU x 10^10)
                 0.0000
    Dipole Moment (Debye)
         X       2.8504      Y       2.1830      Z       0.8231
       Tot       3.6834
    Quadrupole Moments (Debye-Ang)
        XX     -52.0762     XY      -1.2439     YY     -48.3615
        XZ      -0.0584     YZ      -0.6409     ZZ     -46.9061

 Final energy is   -915.381092376010
 **  OPTIMIZATION CONVERGED  **
 Total job time:  36.79s(wall), 422.83s(cpu)
        *  Thank you very much for using Q-Chem.  Have a nice day.  *
