 Q-Chem 5.1, Q-Chem, Inc., Pleasanton, CA (2018)
 Q-Chem 5.1.1 for Intel X86 EM64T Linux

User input:
--------------------------------------------------------------

$comment
potential surface scanner
$end

$rem
JOBTYPE  PES_SCAN
UNRESTRICTED TRUE
SYM_IGNORE  TRUE
GEOM_OPT_MAX_CYCLES 400
SCF_MAX_CYCLES 400
METHOD   B3LYP
BASIS   6-31G**
PDB_PRINT 2
SCF_CONVERGENCE 6
THRESH 14
SCF_PRINT 1
$end
$molecule
0 1
S 0.646628 -1.703652 0.223354
S -2.348709 0.159572 -0.175346
C 0.506671 0.077131 -0.277786
C -0.704327 0.774534 0.359630
C 1.803058 0.843388 0.003844
H 0.344243 0.012109 -1.358411
H -0.632194 0.743641 1.451588
H -0.701395 1.829567 0.063214
H 1.731484 1.865347 -0.385689
H 1.997638 0.908852 1.080072
H 2.658482 0.352948 -0.466227
H 1.001862 -1.465797 1.503226
H -2.063741 -1.272638 0.167533
$end
$scan
stre 2 13 1.600000 1.601000 0.100000
$end
--------------------------------------------------------------

    9    -915.5180284354      2.57e-07  Convergence criterion met
 Total energy in the final basis set =     -915.5180284354
    9    -915.5072034811      3.03e-07  Convergence criterion met
 Total energy in the final basis set =     -915.5072034811
    9    -915.5069397298      3.18e-07  Convergence criterion met
 Total energy in the final basis set =     -915.5069397298
    9    -915.5069504699      3.21e-07  Convergence criterion met
 Total energy in the final basis set =     -915.5069504699
    9    -915.5069609676      3.28e-07  Convergence criterion met
 Total energy in the final basis set =     -915.5069609676
    9    -915.5069654961      3.31e-07  Convergence criterion met
 Total energy in the final basis set =     -915.5069654961
    9    -915.5069699675      3.34e-07  Convergence criterion met
 Total energy in the final basis set =     -915.5069699675
    9    -915.5069724307      3.35e-07  Convergence criterion met
 Total energy in the final basis set =     -915.5069724307
    9    -915.5069740613      3.35e-07  Convergence criterion met
 Total energy in the final basis set =     -915.5069740613

             Standard Nuclear Orientation (Angstroms)
    I     Atom           X                Y                Z
 ----------------------------------------------------------------
    1      S       0.6214508815    -1.6971463682     0.2140570491
    2      S      -2.3534519017     0.1704809878    -0.1459826408
    3      C       0.4979651784     0.0868613655    -0.2801096940
    4      C      -0.7056716915     0.7952279484     0.3613425229
    5      C       1.8024541968     0.8380590177     0.0037863942
    6      H       0.3336498274     0.0264690239    -1.3607742267
    7      H      -0.6184017047     0.7783538335     1.4527068297
    8      H      -0.6998691353     1.8461067638     0.0497462989
    9      H       1.7401180491     1.8619977803    -0.3820990272
   10      H       1.9978634928     0.8978191294     1.0801047311
   11      H       2.6530434003     0.3414553876    -0.4685581575
   12      H       0.9368081117    -1.4688653440     1.5063164311
   13      H      -1.9662587049    -1.3518175258     0.1584654890
 ----------------------------------------------------------------

    9    -915.5069747416      3.35e-07  Convergence criterion met
 Total energy in the final basis set =     -915.5069747416

                    Orbital Energies (a.u.)
 --------------------------------------------------------------

 Alpha MOs
 -- Occupied --
-88.886 -88.879 -10.242 -10.228 -10.198  -7.949  -7.938  -5.914
 -5.910  -5.904  -5.903  -5.900  -5.892  -0.838  -0.752  -0.717
 -0.643  -0.588  -0.478  -0.452  -0.433  -0.417  -0.400  -0.370
 -0.360  -0.330  -0.320  -0.251  -0.233

 Beta MOs
 -- Occupied --
-88.886 -88.879 -10.242 -10.228 -10.198  -7.949  -7.938  -5.914
 -5.910  -5.904  -5.903  -5.900  -5.892  -0.838  -0.752  -0.717
 -0.643  -0.588  -0.478  -0.452  -0.433  -0.417  -0.400  -0.370
 -0.360  -0.330  -0.320  -0.251  -0.233

          Ground-State Mulliken Net Atomic Charges

     Atom                 Charge (a.u.)    Spin (a.u.)
  --------------------------------------------------------
      1 S                    -0.034090       0.000000
      2 S                    -0.069767      -0.000000
      3 C                    -0.212262      -0.000000
      4 C                    -0.311258       0.000000
      5 C                    -0.310324      -0.000000
      6 H                     0.156471       0.000000
      7 H                     0.135895      -0.000000
      8 H                     0.141584       0.000000
      9 H                     0.114878       0.000000
     10 H                     0.111343       0.000000
     11 H                     0.132364       0.000000
     12 H                     0.062978       0.000000
     13 H                     0.082186       0.000000
  --------------------------------------------------------
  Sum of atomic charges =     0.000000

                    Cartesian Multipole Moments
 -----------------------------------------------------------------
    Charge (ESU x 10^10)
                -0.0000
    Dipole Moment (Debye)
         X       2.1560      Y       1.2113      Z       0.8892
       Tot       2.6280
    Quadrupole Moments (Debye-Ang)
        XX     -53.1474     XY       2.4150     YY     -47.2921
        XZ       0.5102     YZ      -1.3772     ZZ     -45.7481

 Final energy is   -915.506974741616
 **  OPTIMIZATION CONVERGED  **
 Total job time:  40.02s(wall), 461.54s(cpu)
        *  Thank you very much for using Q-Chem.  Have a nice day.  *
