 Q-Chem 5.1, Q-Chem, Inc., Pleasanton, CA (2018)
 Q-Chem 5.1.1 for Intel X86 EM64T Linux

User input:
--------------------------------------------------------------

$comment
potential surface scanner
$end

$rem
JOBTYPE  PES_SCAN
UNRESTRICTED TRUE
SYM_IGNORE  TRUE
GEOM_OPT_MAX_CYCLES 400
SCF_MAX_CYCLES 400
METHOD   B3LYP
BASIS   6-31G**
PDB_PRINT 2
SCF_CONVERGENCE 6
THRESH 14
SCF_PRINT 1
$end
$molecule
0 3
S 0.562687 -1.538436 1.064991
S -2.119466 -0.195364 0.797828
C 0.483040 -0.055560 -0.059223
C -0.664990 0.844200 0.401280
C 1.819164 0.669306 -0.189600
H 0.189475 -0.510005 -1.010730
H -0.377812 1.422951 1.285205
H -0.947697 1.540485 -0.396905
H 1.728586 1.496425 -0.903262
H 2.143019 1.087673 0.769291
H 2.599199 -0.006902 -0.548761
H 0.843397 -0.859846 2.198426
H -2.018905 -0.769921 -1.219540
$end
$scan
stre 2 13 2.000000 2.001000 0.100000
$end
--------------------------------------------------------------

   11    -915.3850931423      4.91e-07  Convergence criterion met
 Total energy in the final basis set =     -915.3850931423
   11    -915.3834409267      4.76e-07  Convergence criterion met
 Total energy in the final basis set =     -915.3834409267
   11    -915.3834649107      4.80e-07  Convergence criterion met
 Total energy in the final basis set =     -915.3834649107
   11    -915.3834841662      4.80e-07  Convergence criterion met
 Total energy in the final basis set =     -915.3834841662
   11    -915.3834900950      4.79e-07  Convergence criterion met
 Total energy in the final basis set =     -915.3834900950
   11    -915.3834924474      4.78e-07  Convergence criterion met
 Total energy in the final basis set =     -915.3834924474

             Standard Nuclear Orientation (Angstroms)
    I     Atom           X                Y                Z
 ----------------------------------------------------------------
    1      S       0.5623627731    -1.5424578810     1.0558861316
    2      S      -2.1142354535    -0.2123229591     0.7849847671
    3      C       0.4873989030    -0.0573000631    -0.0661471646
    4      C      -0.6667627187     0.8378182483     0.3876885781
    5      C       1.8218945980     0.6713152018    -0.1884043941
    6      H       0.1996378596    -0.5113253016    -1.0198300770
    7      H      -0.3889838051     1.4192816076     1.2724533368
    8      H      -0.9515674923     1.5281470204    -0.4147958377
    9      H       1.7321917372     1.4987945228    -0.9017292286
   10      H       2.1398735166     1.0898709183     0.7723860876
   11      H       2.6058323346    -0.0020695021    -0.5444904866
   12      H       0.8228800930    -0.8660533158     2.1954356574
   13      H      -2.0108253458    -0.7286924965    -1.1444373699
 ----------------------------------------------------------------

   11    -915.3834933951      4.78e-07  Convergence criterion met
 Total energy in the final basis set =     -915.3834933951

                    Orbital Energies (a.u.)
 --------------------------------------------------------------

 Alpha MOs
 -- Occupied --
-88.906 -88.899 -10.249 -10.233 -10.203  -7.968  -7.958  -5.932
 -5.928  -5.926  -5.925  -5.919  -5.914  -0.853  -0.764  -0.732
 -0.655  -0.595  -0.488  -0.458  -0.443  -0.426  -0.410  -0.368
 -0.361  -0.338  -0.315  -0.298  -0.250  -0.155

 Beta MOs
 -- Occupied --
-88.905 -88.892 -10.248 -10.234 -10.203  -7.967  -7.951  -5.931
 -5.928  -5.921  -5.915  -5.909  -5.906  -0.848  -0.748  -0.728
 -0.632  -0.587  -0.484  -0.455  -0.437  -0.423  -0.407  -0.366
 -0.351  -0.332  -0.266  -0.260

          Ground-State Mulliken Net Atomic Charges

     Atom                 Charge (a.u.)    Spin (a.u.)
  --------------------------------------------------------
      1 S                     0.033534       0.164776
      2 S                     0.097438       1.053720
      3 C                    -0.221454       0.022190
      4 C                    -0.319638      -0.037857
      5 C                    -0.307841      -0.001589
      6 H                     0.168513       0.005298
      7 H                     0.136975      -0.002267
      8 H                     0.154271       0.018093
      9 H                     0.121745       0.001108
     10 H                     0.112350       0.001024
     11 H                     0.132723       0.000764
     12 H                     0.074490      -0.005313
     13 H                    -0.183106       0.780052
  --------------------------------------------------------
  Sum of atomic charges =     0.000000

                    Cartesian Multipole Moments
 -----------------------------------------------------------------
    Charge (ESU x 10^10)
                -0.0000
    Dipole Moment (Debye)
         X       2.8308      Y       2.2388      Z       0.7940
       Tot       3.6954
    Quadrupole Moments (Debye-Ang)
        XX     -52.0886     XY      -1.2771     YY     -48.4469
        XZ       0.0149     YZ      -0.6523     ZZ     -46.8903

 Final energy is   -915.383493395129
 **  OPTIMIZATION CONVERGED  **
 Total job time:  32.62s(wall), 374.74s(cpu)
        *  Thank you very much for using Q-Chem.  Have a nice day.  *
