 Q-Chem 5.1, Q-Chem, Inc., Pleasanton, CA (2018)
 Q-Chem 5.1.1 for Intel X86 EM64T Linux

User input:
--------------------------------------------------------------

$comment
potential surface scanner
$end

$rem
JOBTYPE  PES_SCAN
UNRESTRICTED TRUE
SYM_IGNORE  TRUE
GEOM_OPT_MAX_CYCLES 400
SCF_MAX_CYCLES 400
METHOD   B3LYP
BASIS   6-31G**
PDB_PRINT 2
SCF_CONVERGENCE 6
THRESH 14
SCF_PRINT 1
$end
$molecule
0 3
S 0.524988 -1.507182 1.083558
S -2.198209 0.084959 0.863900
C 0.435695 -0.003359 -0.006277
C -0.624584 0.954711 0.541311
C 1.796578 0.661136 -0.208366
H 0.072801 -0.421622 -0.950941
H -0.264687 1.432970 1.459129
H -0.833450 1.750807 -0.185824
H 1.707120 1.502119 -0.906020
H 2.193347 1.049964 0.735608
H 2.522119 -0.047051 -0.616133
H 0.947297 -0.861416 2.191652
H -2.039316 -1.471034 -1.812598
$end
$scan
stre 2 13 3.000000 3.001000 0.100000
$end
--------------------------------------------------------------

   11    -915.3851963400      5.30e-07  Convergence criterion met
 Total energy in the final basis set =     -915.3851963400
   11    -915.3853581505      5.52e-07  Convergence criterion met
 Total energy in the final basis set =     -915.3853581505
   11    -915.3853712207      5.57e-07  Convergence criterion met
 Total energy in the final basis set =     -915.3853712207
   11    -915.3853908528      5.74e-07  Convergence criterion met
 Total energy in the final basis set =     -915.3853908528
   11    -915.3853929983      5.75e-07  Convergence criterion met
 Total energy in the final basis set =     -915.3853929983
   11    -915.3853974270      5.73e-07  Convergence criterion met
 Total energy in the final basis set =     -915.3853974270
   11    -915.3853985913      5.72e-07  Convergence criterion met
 Total energy in the final basis set =     -915.3853985913
   11    -915.3854007946      5.73e-07  Convergence criterion met
   11    -915.3854030148      5.77e-07  Convergence criterion met
 Total energy in the final basis set =     -915.3854030148
   11    -915.3854059310      5.86e-07  Convergence criterion met
 Total energy in the final basis set =     -915.3854059310
   11    -915.3854086360      5.96e-07  Convergence criterion met
 Total energy in the final basis set =     -915.3854086360
   11    -915.3854110866      6.06e-07  Convergence criterion met
 Total energy in the final basis set =     -915.3854110866
   11    -915.3854127838      6.09e-07  Convergence criterion met
 Total energy in the final basis set =     -915.3854127838
   11    -915.3854138433      6.09e-07  Convergence criterion met
 Total energy in the final basis set =     -915.3854138433

             Standard Nuclear Orientation (Angstroms)
    I     Atom           X                Y                Z
 ----------------------------------------------------------------
    1      S       0.5341573109    -1.5080532061     1.0969116300
    2      S      -2.1792281633     0.0308207756     0.8819108169
    3      C       0.4426914001    -0.0144004185    -0.0079779463
    4      C      -0.6324988141     0.9364909966     0.5233794787
    5      C       1.7991333056     0.6594306765    -0.2045900726
    6      H       0.0895943346    -0.4447325931    -0.9510902176
    7      H      -0.2760372290     1.4444518367     1.4263830984
    8      H      -0.8645496933     1.7073896763    -0.2230838234
    9      H       1.7076254485     1.4950521321    -0.9082893720
   10      H       2.1858124317     1.0577074169     0.7395992688
   11      H       2.5331494216    -0.0455046760    -0.6028122456
   12      H       0.9501944394    -0.8506244941     2.2005671037
   13      H      -2.0503451926    -1.3430261229    -1.7819087190
 ----------------------------------------------------------------

   11    -915.3854146236      6.06e-07  Convergence criterion met
 Total energy in the final basis set =     -915.3854146236

                    Orbital Energies (a.u.)
 --------------------------------------------------------------

 Alpha MOs
 -- Occupied --
-88.895 -88.886 -10.245 -10.231 -10.200  -7.957  -7.946  -5.921
 -5.918  -5.915  -5.913  -5.908  -5.899  -0.845  -0.756  -0.724
 -0.646  -0.590  -0.483  -0.452  -0.437  -0.420  -0.404  -0.366
 -0.353  -0.332  -0.297  -0.286  -0.247  -0.232

 Beta MOs
 -- Occupied --
-88.894 -88.880 -10.245 -10.231 -10.200  -7.956  -7.940  -5.921
 -5.917  -5.910  -5.904  -5.899  -5.895  -0.842  -0.743  -0.721
 -0.626  -0.583  -0.479  -0.451  -0.433  -0.418  -0.402  -0.364
 -0.345  -0.328  -0.255  -0.228

          Ground-State Mulliken Net Atomic Charges

     Atom                 Charge (a.u.)    Spin (a.u.)
  --------------------------------------------------------
      1 S                     0.007862       0.103796
      2 S                     0.004260       0.945883
      3 C                    -0.215222       0.019685
      4 C                    -0.324481      -0.029815
      5 C                    -0.308134      -0.001004
      6 H                     0.156354      -0.004557
      7 H                     0.136007       0.003423
      8 H                     0.147560       0.015973
      9 H                     0.116944       0.000743
     10 H                     0.112258       0.000674
     11 H                     0.132219       0.000365
     12 H                     0.066428      -0.003433
     13 H                    -0.032053       0.948268
  --------------------------------------------------------
  Sum of atomic charges =     0.000000

                    Cartesian Multipole Moments
 -----------------------------------------------------------------
    Charge (ESU x 10^10)
                 0.0000
    Dipole Moment (Debye)
         X       2.4800      Y       2.1057      Z      -0.2185
       Tot       3.2607
    Quadrupole Moments (Debye-Ang)
        XX     -51.9688     XY      -0.3054     YY     -48.7579
        XZ       2.3898     YZ      -0.1448     ZZ     -46.3848

 Final energy is   -915.385414623626
 **  OPTIMIZATION CONVERGED  **
 Total job time:  67.61s(wall), 784.96s(cpu)
        *  Thank you very much for using Q-Chem.  Have a nice day.  *
