 Q-Chem 5.1, Q-Chem, Inc., Pleasanton, CA (2018)
 Q-Chem 5.1.1 for Intel X86 EM64T Linux

User input:
--------------------------------------------------------------

$comment
potential surface scanner
$end

$rem
JOBTYPE  PES_SCAN
UNRESTRICTED TRUE
SYM_IGNORE  TRUE
GEOM_OPT_MAX_CYCLES 400
SCF_MAX_CYCLES 400
METHOD   B3LYP
BASIS   6-31G**
PDB_PRINT 2
SCF_CONVERGENCE 6
THRESH 14
SCF_PRINT 1
$end
$molecule
0 3
S 0.549113 -1.522894 1.081561
S -2.147705 -0.097175 0.834078
C 0.465624 -0.037929 -0.037289
C -0.650370 0.884646 0.456020
C 1.811397 0.665185 -0.195613
H 0.148790 -0.482779 -0.986117
H -0.328823 1.427404 1.351706
H -0.909221 1.622080 -0.313631
H 1.720454 1.495825 -0.905179
H 2.162110 1.075543 0.757362
H 2.572542 -0.023372 -0.571203
H 0.895266 -0.849562 2.199798
H -2.049479 -1.031971 -1.482495
$end
$scan
stre 2 13 2.400000 2.401000 0.100000
$end
--------------------------------------------------------------

   11    -915.3866127479      5.68e-07  Convergence criterion met
 Total energy in the final basis set =     -915.3866127479
   11    -915.3865958728      5.46e-07  Convergence criterion met
 Total energy in the final basis set =     -915.3865958728
   11    -915.3866308643      5.49e-07  Convergence criterion met
 Total energy in the final basis set =     -915.3866308643
   11    -915.3866424947      5.48e-07  Convergence criterion met
 Total energy in the final basis set =     -915.3866424947
   11    -915.3866490154      5.46e-07  Convergence criterion met
 Total energy in the final basis set =     -915.3866490154
   11    -915.3866544327      5.44e-07  Convergence criterion met
 Total energy in the final basis set =     -915.3866544327
   11    -915.3866573369      5.42e-07  Convergence criterion met
 Total energy in the final basis set =     -915.3866573369
   11    -915.3866597493      5.41e-07  Convergence criterion met
   11    -915.3866616020      5.40e-07  Convergence criterion met
 Total energy in the final basis set =     -915.3866616020
   11    -915.3866630537      5.40e-07  Convergence criterion met
 Total energy in the final basis set =     -915.3866630537
   11    -915.3866642912      5.40e-07  Convergence criterion met
 Total energy in the final basis set =     -915.3866642912
   11    -915.3866657674      5.40e-07  Convergence criterion met
 Total energy in the final basis set =     -915.3866657674
   11    -915.3866674575      5.41e-07  Convergence criterion met
 Total energy in the final basis set =     -915.3866674575
   11    -915.3866687256      5.43e-07  Convergence criterion met
 Total energy in the final basis set =     -915.3866687256

             Standard Nuclear Orientation (Angstroms)
    I     Atom           X                Y                Z
 ----------------------------------------------------------------
    1      S       0.5626744220    -1.5264884738     1.0893922905
    2      S      -2.1360438218    -0.1375051326     0.8314243635
    3      C       0.4729203895    -0.0481922657    -0.0383781861
    4      C      -0.6558500550     0.8664328198     0.4415473294
    5      C       1.8129609345     0.6655417816    -0.1946328076
    6      H       0.1633301461    -0.5024213157    -0.9852338555
    7      H      -0.3453824977     1.4267540597     1.3301252321
    8      H      -0.9249432903     1.5856838566    -0.3412444943
    9      H       1.7174927044     1.4917760518    -0.9087298685
   10      H       2.1563606356     1.0836408232     0.7575996865
   11      H       2.5813172669    -0.0182330649    -0.5642903966
   12      H       0.8896474257    -0.8446915440     2.2083248253
   13      H      -2.0547862599    -0.9172965957    -1.4369061186
 ----------------------------------------------------------------

   11    -915.3866691819      5.43e-07  Convergence criterion met
 Total energy in the final basis set =     -915.3866691819

                    Orbital Energies (a.u.)
 --------------------------------------------------------------

 Alpha MOs
 -- Occupied --
-88.902 -88.894 -10.248 -10.233 -10.202  -7.964  -7.953  -5.928
 -5.924  -5.922  -5.920  -5.915  -5.908  -0.850  -0.760  -0.729
 -0.651  -0.593  -0.486  -0.456  -0.441  -0.424  -0.408  -0.368
 -0.358  -0.336  -0.298  -0.292  -0.249  -0.202

 Beta MOs
 -- Occupied --
-88.901 -88.887 -10.247 -10.234 -10.203  -7.963  -7.947  -5.927
 -5.924  -5.917  -5.911  -5.905  -5.901  -0.846  -0.746  -0.725
 -0.630  -0.586  -0.483  -0.454  -0.436  -0.421  -0.405  -0.366
 -0.349  -0.331  -0.261  -0.240

          Ground-State Mulliken Net Atomic Charges

     Atom                 Charge (a.u.)    Spin (a.u.)
  --------------------------------------------------------
      1 S                     0.023567       0.138807
      2 S                     0.047716       1.000041
      3 C                    -0.219513       0.021826
      4 C                    -0.322890      -0.034317
      5 C                    -0.308292      -0.001308
      6 H                     0.164404      -0.001081
      7 H                     0.136435       0.000939
      8 H                     0.152369       0.014843
      9 H                     0.119962       0.000937
     10 H                     0.112378       0.000910
     11 H                     0.132813       0.000548
     12 H                     0.070867      -0.004377
     13 H                    -0.109818       0.862231
  --------------------------------------------------------
  Sum of atomic charges =     0.000000

                    Cartesian Multipole Moments
 -----------------------------------------------------------------
    Charge (ESU x 10^10)
                 0.0000
    Dipole Moment (Debye)
         X       2.7264      Y       2.2728      Z       0.4440
       Tot       3.5772
    Quadrupole Moments (Debye-Ang)
        XX     -52.1475     XY      -1.1056     YY     -48.6712
        XZ       0.7698     YZ      -0.4706     ZZ     -46.7644

 Final energy is   -915.386669181949
 **  OPTIMIZATION CONVERGED  **
 Total job time:  73.93s(wall), 798.60s(cpu)
        *  Thank you very much for using Q-Chem.  Have a nice day.  *
