 Q-Chem 5.1, Q-Chem, Inc., Pleasanton, CA (2018)
 Q-Chem 5.1.1 for Intel X86 EM64T Linux

User input:
--------------------------------------------------------------

$comment
potential surface scanner
$end

$rem
JOBTYPE  PES_SCAN
UNRESTRICTED TRUE
SYM_IGNORE  TRUE
GEOM_OPT_MAX_CYCLES 400
SCF_MAX_CYCLES 400
METHOD   B3LYP
BASIS   6-31G**
PDB_PRINT 2
SCF_CONVERGENCE 6
THRESH 14
SCF_PRINT 1
$end
$molecule
0 3
S 0.561638 -1.551004 1.034621
S -2.099505 -0.250954 0.764429
C 0.496985 -0.057300 -0.081008
C -0.669209 0.827093 0.359302
C 1.829768 0.675551 -0.185183
H 0.218938 -0.510418 -1.038338
H -0.413131 1.418645 1.243122
H -0.964572 1.498370 -0.455582
H 1.744348 1.504959 -0.896755
H 2.135398 1.092477 0.780217
H 2.620323 0.006469 -0.535108
H 0.776436 -0.882085 2.187838
H -1.997717 -0.646797 -0.988554
$end
$scan
stre 2 13 1.700000 1.701000 0.100000
$end
--------------------------------------------------------------

   11    -915.3777241130      5.16e-07  Convergence criterion met
 Total energy in the final basis set =     -915.3777241130
   11    -915.3733027916      7.09e-07  Convergence criterion met
 Total energy in the final basis set =     -915.3733027916
   11    -915.3732453324      7.20e-07  Convergence criterion met
 Total energy in the final basis set =     -915.3732453324
   11    -915.3732626938      7.36e-07  Convergence criterion met
 Total energy in the final basis set =     -915.3732626938
   11    -915.3732677517      7.45e-07  Convergence criterion met
 Total energy in the final basis set =     -915.3732677517
   11    -915.3732693597      7.48e-07  Convergence criterion met
 Total energy in the final basis set =     -915.3732693597
   11    -915.3732704039      7.48e-07  Convergence criterion met
 Total energy in the final basis set =     -915.3732704039

             Standard Nuclear Orientation (Angstroms)
    I     Atom           X                Y                Z
 ----------------------------------------------------------------
    1      S       0.5546476315    -1.5542296945     1.0154584643
    2      S      -2.0901689019    -0.2705425090     0.7620025769
    3      C       0.5014962190    -0.0507681318    -0.0934181689
    4      C      -0.6678120049     0.8275063004     0.3446660594
    5      C       1.8369694460     0.6782381683    -0.1848202613
    6      H       0.2284234198    -0.5006929495    -1.0537859733
    7      H      -0.4211352031     1.4214012170     1.2292774818
    8      H      -0.9736365222     1.4909236699    -0.4728739966
    9      H       1.7582055603     1.5112935981    -0.8928809612
   10      H       2.1372388253     1.0900130120     0.7843414359
   11      H       2.6282321121     0.0087461458    -0.5329012711
   12      H       0.7273808059    -0.8904445755     2.1784401453
   13      H      -1.9801413879    -0.6364382512    -0.8945045311
 ----------------------------------------------------------------

   11    -915.3732707471      7.48e-07  Convergence criterion met
 Total energy in the final basis set =     -915.3732707471

                    Orbital Energies (a.u.)
 --------------------------------------------------------------

 Alpha MOs
 -- Occupied --
-88.909 -88.904 -10.248 -10.228 -10.203  -7.971  -7.962  -5.935
 -5.931  -5.929  -5.928  -5.922  -5.919  -0.853  -0.765  -0.734
 -0.658  -0.594  -0.488  -0.459  -0.443  -0.428  -0.411  -0.369
 -0.361  -0.341  -0.334  -0.303  -0.250  -0.107

 Beta MOs
 -- Occupied --
-88.908 -88.897 -10.247 -10.228 -10.203  -7.969  -7.955  -5.934
 -5.930  -5.924  -5.918  -5.913  -5.910  -0.848  -0.747  -0.729
 -0.635  -0.587  -0.483  -0.456  -0.436  -0.423  -0.407  -0.365
 -0.349  -0.330  -0.290  -0.268

          Ground-State Mulliken Net Atomic Charges

     Atom                 Charge (a.u.)    Spin (a.u.)
  --------------------------------------------------------
      1 S                     0.039578       0.207369
      2 S                     0.133266       1.103617
      3 C                    -0.220679       0.019815
      4 C                    -0.309385      -0.026431
      5 C                    -0.305822      -0.002275
      6 H                     0.162948       0.015237
      7 H                     0.132757      -0.001337
      8 H                     0.147944       0.023449
      9 H                     0.122636       0.001364
     10 H                     0.113205       0.000671
     11 H                     0.130978       0.001909
     12 H                     0.080244      -0.006849
     13 H                    -0.227671       0.663461
  --------------------------------------------------------
  Sum of atomic charges =     0.000000

                    Cartesian Multipole Moments
 -----------------------------------------------------------------
    Charge (ESU x 10^10)
                -0.0000
    Dipole Moment (Debye)
         X       2.8056      Y       2.0275      Z       0.6947
       Tot       3.5306
    Quadrupole Moments (Debye-Ang)
        XX     -51.9407     XY      -1.1229     YY     -48.3272
        XZ       0.2944     YZ      -0.6512     ZZ     -46.7837

 Final energy is   -915.373270747144
 **  OPTIMIZATION CONVERGED  **
 Total job time:  37.14s(wall), 426.57s(cpu)
        *  Thank you very much for using Q-Chem.  Have a nice day.  *
