 Q-Chem 5.1, Q-Chem, Inc., Pleasanton, CA (2018)
 Q-Chem 5.1.1 for Intel X86 EM64T Linux

User input:
--------------------------------------------------------------

$comment
potential surface scanner
$end

$rem
JOBTYPE  PES_SCAN
UNRESTRICTED TRUE
SYM_IGNORE  TRUE
GEOM_OPT_MAX_CYCLES 400
SCF_MAX_CYCLES 400
METHOD   B3LYP
BASIS   6-31G**
PDB_PRINT 2
SCF_CONVERGENCE 6
THRESH 14
SCF_PRINT 1
$end
$molecule
0 1
S 0.653000 -1.655100 0.136100
S -2.273700 -0.042700 -0.103500
C 0.513800 0.101500 -0.361300
C -0.697000 0.778900 0.292500
C 1.803900 0.817400 0.036300
H 0.414100 0.130900 -1.452400
H -0.592400 0.804400 1.383200
H -0.770600 1.816900 -0.049700
H 1.768400 1.866200 -0.278900
H 1.962400 0.805000 1.120700
H 2.677400 0.363600 -0.445400
H 0.755100 -1.437500 1.455700
H -1.974700 -1.224500 0.455700
$end
$scan
stre 2 13 1.200000 1.201000 0.100000
$end
--------------------------------------------------------------

    9    -915.5220086792      2.35e-07  Convergence criterion met
 Total energy in the final basis set =     -915.5220086792
    9    -915.5137072309      2.72e-07  Convergence criterion met
 Total energy in the final basis set =     -915.5137072309
    9    -915.5117608248      2.77e-07  Convergence criterion met
 Total energy in the final basis set =     -915.5117608248
    9    -915.5120375858      2.78e-07  Convergence criterion met
 Total energy in the final basis set =     -915.5120375858
    9    -915.5121848845      2.79e-07  Convergence criterion met
 Total energy in the final basis set =     -915.5121848845
    9    -915.5122804157      2.77e-07  Convergence criterion met
 Total energy in the final basis set =     -915.5122804157
    9    -915.5123278051      2.76e-07  Convergence criterion met
 Total energy in the final basis set =     -915.5123278051
    9    -915.5123390226      2.75e-07  Convergence criterion met
 Total energy in the final basis set =     -915.5123390226
    9    -915.5123435494      2.75e-07  Convergence criterion met
 Total energy in the final basis set =     -915.5123435494
    9    -915.5123488190      2.75e-07  Convergence criterion met
 Total energy in the final basis set =     -915.5123488190
    9    -915.5123524350      2.75e-07  Convergence criterion met
 Total energy in the final basis set =     -915.5123524350
    9    -915.5123537081      2.75e-07  Convergence criterion met
 Total energy in the final basis set =     -915.5123537081

             Standard Nuclear Orientation (Angstroms)
    I     Atom           X                Y                Z
 ----------------------------------------------------------------
    1      S       0.6887443423    -1.7189241681     0.2134080344
    2      S      -2.3333602208     0.0736291089    -0.1848501656
    3      C       0.5218975702     0.0610939833    -0.2815464361
    4      C      -0.7048517204     0.7329439508     0.3513337465
    5      C       1.8022266300     0.8506432276     0.0093859321
    6      H       0.3665074278    -0.0018736314    -1.3633175211
    7      H      -0.6373668595     0.7033756163     1.4436152934
    8      H      -0.7274544686     1.7874700393     0.0570472610
    9      H       1.7126117980     1.8743179766    -0.3719390031
   10      H       1.9934025424     0.9108650643     1.0865548327
   11      H       2.6677829140     0.3801550264    -0.4625374527
   12      H       1.0456525951    -1.4793973405     1.4924970267
   13      H      -2.1560925504    -1.0492988536     0.1993484517
 ----------------------------------------------------------------

    9    -915.5123539206      2.75e-07  Convergence criterion met
 Total energy in the final basis set =     -915.5123539206

                    Orbital Energies (a.u.)
 --------------------------------------------------------------

 Alpha MOs
 -- Occupied --
-88.880 -88.863 -10.239 -10.229 -10.197  -7.943  -7.930  -5.908
 -5.904  -5.897  -5.895  -5.891  -5.884  -0.839  -0.768  -0.714
 -0.668  -0.591  -0.485  -0.453  -0.431  -0.425  -0.399  -0.386
 -0.360  -0.329  -0.323  -0.247  -0.239

 Beta MOs
 -- Occupied --
-88.880 -88.863 -10.239 -10.229 -10.197  -7.943  -7.930  -5.908
 -5.904  -5.897  -5.895  -5.891  -5.884  -0.839  -0.768  -0.714
 -0.668  -0.591  -0.485  -0.453  -0.431  -0.425  -0.399  -0.386
 -0.360  -0.329  -0.323  -0.247  -0.239

          Ground-State Mulliken Net Atomic Charges

     Atom                 Charge (a.u.)    Spin (a.u.)
  --------------------------------------------------------
      1 S                    -0.047768      -0.000000
      2 S                    -0.042994      -0.000000
      3 C                    -0.210216       0.000000
      4 C                    -0.313835       0.000000
      5 C                    -0.311443      -0.000000
      6 H                     0.154975      -0.000000
      7 H                     0.136456      -0.000000
      8 H                     0.141609      -0.000000
      9 H                     0.113752      -0.000000
     10 H                     0.110300      -0.000000
     11 H                     0.132598       0.000000
     12 H                     0.057453      -0.000000
     13 H                     0.079114       0.000000
  --------------------------------------------------------
  Sum of atomic charges =    -0.000000

                    Cartesian Multipole Moments
 -----------------------------------------------------------------
    Charge (ESU x 10^10)
                -0.0000
    Dipole Moment (Debye)
         X       1.7662      Y       1.2604      Z       1.0385
       Tot       2.4055
    Quadrupole Moments (Debye-Ang)
        XX     -52.0975     XY       3.0736     YY     -47.6834
        XZ       0.1104     YZ      -1.5429     ZZ     -45.3230

 Final energy is   -915.512353920567
 **  OPTIMIZATION CONVERGED  **
 Total job time:  52.93s(wall), 603.67s(cpu)
        *  Thank you very much for using Q-Chem.  Have a nice day.  *
