 Q-Chem 5.1, Q-Chem, Inc., Pleasanton, CA (2018)
 Q-Chem 5.1.1 for Intel X86 EM64T Linux

User input:
--------------------------------------------------------------

$comment
potential surface scanner
$end

$rem
JOBTYPE  PES_SCAN
UNRESTRICTED TRUE
SYM_IGNORE  TRUE
GEOM_OPT_MAX_CYCLES 400
SCF_MAX_CYCLES 400
METHOD   B3LYP
BASIS   6-31G**
PDB_PRINT 2
SCF_CONVERGENCE 6
THRESH 14
SCF_PRINT 1
$end
$molecule
0 1
S 0.653000 -1.655100 0.136100
S -2.273700 -0.042700 -0.103500
C 0.513800 0.101500 -0.361300
C -0.697000 0.778900 0.292500
C 1.803900 0.817400 0.036300
H 0.414100 0.130900 -1.452400
H -0.592400 0.804400 1.383200
H -0.770600 1.816900 -0.049700
H 1.768400 1.866200 -0.278900
H 1.962400 0.805000 1.120700
H 2.677400 0.363600 -0.445400
H 0.755100 -1.437500 1.455700
H -1.974700 -1.224500 0.455700
$end
$scan
stre 2 13 1.000000 1.001000 0.100000
$end
--------------------------------------------------------------

    9    -915.5220086792      2.35e-07  Convergence criterion met
 Total energy in the final basis set =     -915.5220086792
    9    -915.5089448135      2.83e-07  Convergence criterion met
 Total energy in the final basis set =     -915.5089448135
    9    -915.4449262443      3.52e-07  Convergence criterion met
 Total energy in the final basis set =     -915.4449262443
    9    -915.4142610257      3.76e-07  Convergence criterion met
 Total energy in the final basis set =     -915.4142610257
    9    -915.4122653979      3.77e-07  Convergence criterion met
 Total energy in the final basis set =     -915.4122653979
    9    -915.4124565434      3.77e-07  Convergence criterion met
 Total energy in the final basis set =     -915.4124565434
    9    -915.4125386632      3.77e-07  Convergence criterion met
 Total energy in the final basis set =     -915.4125386632
    9    -915.4125790687      3.77e-07  Convergence criterion met
    9    -915.4126938580      3.69e-07  Convergence criterion met
 Total energy in the final basis set =     -915.4126938580
    9    -915.4126974021      3.67e-07  Convergence criterion met
 Total energy in the final basis set =     -915.4126974021
    9    -915.4127003303      3.66e-07  Convergence criterion met
 Total energy in the final basis set =     -915.4127003303
    9    -915.4127038004      3.65e-07  Convergence criterion met
 Total energy in the final basis set =     -915.4127038004
    9    -915.4127066638      3.66e-07  Convergence criterion met
 Total energy in the final basis set =     -915.4127066638
    9    -915.4127083079      3.67e-07  Convergence criterion met
 Total energy in the final basis set =     -915.4127083079

             Standard Nuclear Orientation (Angstroms)
    I     Atom           X                Y                Z
 ----------------------------------------------------------------
    1      S       0.7025986304    -1.7274311238     0.2093044243
    2      S      -2.3224313820     0.0131448304    -0.1687317014
    3      C       0.5259066590     0.0526379688    -0.2813901532
    4      C      -0.7068670632     0.7131151300     0.3515200441
    5      C       1.7996792119     0.8515251131     0.0125148676
    6      H       0.3717114916    -0.0089176276    -1.3634225669
    7      H      -0.6353221595     0.6914376997     1.4438318657
    8      H      -0.7479090435     1.7646459901     0.0504970533
    9      H       1.7007055916     1.8762453377    -0.3634616814
   10      H       1.9913382551     0.9073892918     1.0897836073
   11      H       2.6686438123     0.3907643124    -0.4627152470
   12      H       1.0586679209    -1.4893411106     1.4889269790
   13      H      -2.1670219246    -0.9102158119     0.1823425086
 ----------------------------------------------------------------

    9    -915.4127089625      3.68e-07  Convergence criterion met
 Total energy in the final basis set =     -915.4127089625

                    Orbital Energies (a.u.)
 --------------------------------------------------------------

 Alpha MOs
 -- Occupied --
-88.880 -88.846 -10.239 -10.229 -10.197  -7.942  -7.925  -5.907
 -5.904  -5.897  -5.890  -5.885  -5.878  -0.844  -0.789  -0.715
 -0.683  -0.593  -0.489  -0.455  -0.431  -0.428  -0.400  -0.389
 -0.361  -0.329  -0.324  -0.247  -0.242

 Beta MOs
 -- Occupied --
-88.880 -88.846 -10.239 -10.229 -10.197  -7.942  -7.925  -5.907
 -5.904  -5.897  -5.890  -5.885  -5.878  -0.844  -0.789  -0.715
 -0.683  -0.593  -0.489  -0.455  -0.431  -0.428  -0.400  -0.389
 -0.361  -0.329  -0.324  -0.247  -0.242

          Ground-State Mulliken Net Atomic Charges

     Atom                 Charge (a.u.)    Spin (a.u.)
  --------------------------------------------------------
      1 S                    -0.048550      -0.000000
      2 S                    -0.011623       0.000000
      3 C                    -0.211291       0.000000
      4 C                    -0.313364      -0.000000
      5 C                    -0.311472      -0.000000
      6 H                     0.154991      -0.000000
      7 H                     0.136147      -0.000000
      8 H                     0.142637       0.000000
      9 H                     0.113755       0.000000
     10 H                     0.110263      -0.000000
     11 H                     0.132713       0.000000
     12 H                     0.056823       0.000000
     13 H                     0.048970      -0.000000
  --------------------------------------------------------
  Sum of atomic charges =    -0.000000

                    Cartesian Multipole Moments
 -----------------------------------------------------------------
    Charge (ESU x 10^10)
                 0.0000
    Dipole Moment (Debye)
         X       1.7551      Y       1.2980      Z       1.0694
       Tot       2.4308
    Quadrupole Moments (Debye-Ang)
        XX     -51.9701     XY       3.0383     YY     -47.6408
        XZ       0.0112     YZ      -1.5834     ZZ     -45.0636

 Final energy is   -915.412708962521
 **  OPTIMIZATION CONVERGED  **
 Total job time:  72.96s(wall), 839.68s(cpu)
        *  Thank you very much for using Q-Chem.  Have a nice day.  *
