 Q-Chem 5.1, Q-Chem, Inc., Pleasanton, CA (2018)
 Q-Chem 5.1.1 for Intel X86 EM64T Linux

User input:
--------------------------------------------------------------

$comment
potential surface scanner
$end

$rem
JOBTYPE  PES_SCAN
UNRESTRICTED TRUE
SYM_IGNORE  TRUE
GEOM_OPT_MAX_CYCLES 400
SCF_MAX_CYCLES 400
METHOD   B3LYP
BASIS   6-31G**
PDB_PRINT 2
SCF_CONVERGENCE 6
THRESH 14
SCF_PRINT 1
$end
$molecule
0 3
S 0.309494 -1.488788 0.365122
S -2.245226 0.496758 0.350827
C 0.478355 0.271453 -0.208509
C -0.549607 1.150546 0.509464
C 1.907686 0.796788 -0.075756
H 0.199299 0.200137 -1.264591
H -0.284160 1.259027 1.567200
H -0.559633 2.159338 0.073127
H 1.980391 1.808414 -0.492019
H 2.218359 0.842995 0.973473
H 2.611761 0.154390 -0.610173
H 0.673055 -1.260618 1.645463
H -2.500077 -3.265438 -0.644629
$end
$scan
stre 2 13 3.800000 3.801000 0.100000
$end
--------------------------------------------------------------

   10    -915.3841054158      9.67e-07  Convergence criterion met
 Total energy in the final basis set =     -915.3841054158
   11    -915.3840603627      4.16e-07  Convergence criterion met
 Total energy in the final basis set =     -915.3840603627
   11    -915.3840667749      4.17e-07  Convergence criterion met
 Total energy in the final basis set =     -915.3840667749
   11    -915.3840904535      4.48e-07  Convergence criterion met
 Total energy in the final basis set =     -915.3840904535
   11    -915.3840917372      4.54e-07  Convergence criterion met
 Total energy in the final basis set =     -915.3840917372
   10    -915.3840948438      9.66e-07  Convergence criterion met
 Total energy in the final basis set =     -915.3840948438

             Standard Nuclear Orientation (Angstroms)
    I     Atom           X                Y                Z
 ----------------------------------------------------------------
    1      S       0.3274991484    -1.4978592383     0.3699205285
    2      S      -2.2459934540     0.4725913885     0.3545867728
    3      C       0.4799913792     0.2620427969    -0.2095810165
    4      C      -0.5537760504     1.1354029912     0.5054859715
    5      C       1.9047650151     0.7995131885    -0.0751531941
    6      H       0.2035611151     0.1852718219    -1.2659144823
    7      H      -0.2868062918     1.2527673496     1.5618749135
    8      H      -0.5713199645     2.1410270906     0.0622821162
    9      H       1.9715628700     1.8102945815    -0.4948084278
   10      H       2.2112164192     0.8520809179     0.9749569909
   11      H       2.6159409617     0.1609984493    -0.6047157905
   12      H       0.6848534919    -1.2633254212     1.6508212239
   13      H      -2.5017976399    -3.1858039164    -0.6407566061
 ----------------------------------------------------------------

   10    -915.3840954559      9.57e-07  Convergence criterion met
 Total energy in the final basis set =     -915.3840954559

                    Orbital Energies (a.u.)
 --------------------------------------------------------------

 Alpha MOs
 -- Occupied --
-88.889 -88.883 -10.243 -10.230 -10.199  -7.951  -7.943  -5.915
 -5.914  -5.912  -5.906  -5.905  -5.896  -0.842  -0.755  -0.720
 -0.644  -0.588  -0.481  -0.451  -0.435  -0.419  -0.401  -0.363
 -0.351  -0.331  -0.298  -0.279  -0.246  -0.238

 Beta MOs
 -- Occupied --
-88.888 -88.878 -10.243 -10.230 -10.199  -7.950  -7.938  -5.915
 -5.911  -5.905  -5.902  -5.897  -5.893  -0.839  -0.743  -0.718
 -0.625  -0.582  -0.477  -0.449  -0.431  -0.416  -0.399  -0.363
 -0.343  -0.326  -0.251  -0.225

          Ground-State Mulliken Net Atomic Charges

     Atom                 Charge (a.u.)    Spin (a.u.)
  --------------------------------------------------------
      1 S                    -0.006663       0.071429
      2 S                    -0.005320       0.932114
      3 C                    -0.211578       0.008441
      4 C                    -0.327052      -0.027855
      5 C                    -0.308212      -0.000216
      6 H                     0.155532      -0.000988
      7 H                     0.137596       0.004372
      8 H                     0.146265       0.020684
      9 H                     0.114420       0.000839
     10 H                     0.111907       0.000017
     11 H                     0.131993       0.000041
     12 H                     0.061888      -0.000959
     13 H                    -0.000777       0.992082
  --------------------------------------------------------
  Sum of atomic charges =     0.000000

                    Cartesian Multipole Moments
 -----------------------------------------------------------------
    Charge (ESU x 10^10)
                 0.0000
    Dipole Moment (Debye)
         X       2.4899      Y       1.7808      Z       0.3033
       Tot       3.0762
    Quadrupole Moments (Debye-Ang)
        XX     -52.3684     XY       0.8778     YY     -47.5536
        XZ       1.7426     YZ      -1.4490     ZZ     -45.6324

 Final energy is   -915.384095455873
 **  OPTIMIZATION CONVERGED  **
 Total job time:  31.35s(wall), 356.39s(cpu)
        *  Thank you very much for using Q-Chem.  Have a nice day.  *
