 Q-Chem 5.1, Q-Chem, Inc., Pleasanton, CA (2018)
 Q-Chem 5.1.1 for Intel X86 EM64T Linux

User input:
--------------------------------------------------------------

$comment
potential surface scanner
$end

$rem
JOBTYPE  PES_SCAN
UNRESTRICTED TRUE
SYM_IGNORE  TRUE
GEOM_OPT_MAX_CYCLES 400
SCF_MAX_CYCLES 400
METHOD   B3LYP
BASIS   6-31G**
PDB_PRINT 2
SCF_CONVERGENCE 6
THRESH 14
SCF_PRINT 1
$end
$molecule
0 3
S 0.562011 -1.529899 1.081415
S -2.133219 -0.154142 0.817442
C 0.475233 -0.050622 -0.045594
C -0.658840 0.859355 0.429465
C 1.814265 0.666543 -0.194175
H 0.170740 -0.504615 -0.993879
H -0.354904 1.422104 1.318660
H -0.930598 1.575387 -0.355228
H 1.720311 1.492557 -0.908723
H 2.151840 1.085260 0.759844
H 2.586101 -0.015225 -0.560319
H 0.872522 -0.848009 2.205020
H -2.035765 -0.873690 -1.364931
$end
$scan
stre 2 13 2.200000 2.201000 0.100000
$end
--------------------------------------------------------------

   11    -915.3865076920      5.21e-07  Convergence criterion met
 Total energy in the final basis set =     -915.3865076920
   11    -915.3859732256      5.06e-07  Convergence criterion met
 Total energy in the final basis set =     -915.3859732256
   11    -915.3860055883      5.09e-07  Convergence criterion met
 Total energy in the final basis set =     -915.3860055883
   11    -915.3860195311      5.10e-07  Convergence criterion met
 Total energy in the final basis set =     -915.3860195311
   11    -915.3860267844      5.08e-07  Convergence criterion met
 Total energy in the final basis set =     -915.3860267844
   11    -915.3860309025      5.07e-07  Convergence criterion met
 Total energy in the final basis set =     -915.3860309025
   11    -915.3860326256      5.06e-07  Convergence criterion met
 Total energy in the final basis set =     -915.3860326256
   11    -915.3860337798      5.05e-07  Convergence criterion met
 Total energy in the final basis set =     -915.3860337798

             Standard Nuclear Orientation (Angstroms)
    I     Atom           X                Y                Z
 ----------------------------------------------------------------
    1      S       0.5617267421    -1.5340327634     1.0735775852
    2      S      -2.1267981391    -0.1748739742     0.8075538392
    3      C       0.4786009851    -0.0531439767    -0.0522693620
    4      C      -0.6623722993     0.8518295882     0.4156500553
    5      C       1.8163278569     0.6675705062    -0.1920113718
    6      H       0.1788650368    -0.5073899311    -1.0019216373
    7      H      -0.3666098247     1.4228488313     1.3020853757
    8      H      -0.9397917213     1.5581088256    -0.3757223805
    9      H       1.7242139062     1.4940145226    -0.9062793201
   10      H       2.1471723499     1.0862406954     0.7643709576
   11      H       2.5920945940    -0.0116693377    -0.5545915936
   12      H       0.8598470970    -0.8537391183     2.2015195538
   13      H      -2.0235795837    -0.8207598679    -1.2929647014
 ----------------------------------------------------------------

   11    -915.3860345929      5.05e-07  Convergence criterion met
 Total energy in the final basis set =     -915.3860345929

                    Orbital Energies (a.u.)
 --------------------------------------------------------------

 Alpha MOs
 -- Occupied --
-88.904 -88.896 -10.248 -10.234 -10.203  -7.966  -7.956  -5.930
 -5.926  -5.924  -5.922  -5.917  -5.912  -0.851  -0.762  -0.730
 -0.653  -0.594  -0.487  -0.457  -0.442  -0.425  -0.409  -0.368
 -0.360  -0.337  -0.305  -0.295  -0.250  -0.182

 Beta MOs
 -- Occupied --
-88.903 -88.890 -10.248 -10.234 -10.203  -7.965  -7.949  -5.929
 -5.926  -5.919  -5.913  -5.907  -5.904  -0.847  -0.747  -0.727
 -0.631  -0.586  -0.484  -0.454  -0.437  -0.422  -0.406  -0.366
 -0.350  -0.332  -0.263  -0.248

          Ground-State Mulliken Net Atomic Charges

     Atom                 Charge (a.u.)    Spin (a.u.)
  --------------------------------------------------------
      1 S                     0.028671       0.150973
      2 S                     0.070502       1.026208
      3 C                    -0.220437       0.022404
      4 C                    -0.321867      -0.036393
      5 C                    -0.308213      -0.001454
      6 H                     0.166933       0.001541
      7 H                     0.136823      -0.000551
      8 H                     0.153853       0.015887
      9 H                     0.120871       0.001012
     10 H                     0.112281       0.001023
     11 H                     0.132908       0.000625
     12 H                     0.072356      -0.004778
     13 H                    -0.144682       0.823502
  --------------------------------------------------------
  Sum of atomic charges =    -0.000000

                    Cartesian Multipole Moments
 -----------------------------------------------------------------
    Charge (ESU x 10^10)
                -0.0000
    Dipole Moment (Debye)
         X       2.7829      Y       2.2814      Z       0.6503
       Tot       3.6568
    Quadrupole Moments (Debye-Ang)
        XX     -52.1222     XY      -1.2401     YY     -48.5801
        XZ       0.3275     YZ      -0.5857     ZZ     -46.8409

 Final energy is   -915.386034592925
 **  OPTIMIZATION CONVERGED  **
 Total job time:  41.46s(wall), 478.46s(cpu)
        *  Thank you very much for using Q-Chem.  Have a nice day.  *
