 Q-Chem 5.1, Q-Chem, Inc., Pleasanton, CA (2018)
 Q-Chem 5.1.1 for Intel X86 EM64T Linux

User input:
--------------------------------------------------------------

$comment
potential surface scanner
$end

$rem
JOBTYPE  PES_SCAN
UNRESTRICTED TRUE
SYM_IGNORE  TRUE
GEOM_OPT_MAX_CYCLES 400
SCF_MAX_CYCLES 400
METHOD   B3LYP
BASIS   6-31G**
PDB_PRINT 2
SCF_CONVERGENCE 6
THRESH 14
SCF_PRINT 1
$end
$molecule
0 3
S 0.565444 -1.547808 1.045375
S -2.103697 -0.234447 0.777769
C 0.493419 -0.058580 -0.073222
C -0.668179 0.830576 0.372647
C 1.826285 0.673838 -0.185632
H 0.211705 -0.512373 -1.028960
H -0.400983 1.421838 1.253718
H -0.959937 1.506900 -0.439241
H 1.738450 1.502358 -0.897972
H 2.136765 1.091674 0.777879
H 2.614543 0.003537 -0.538101
H 0.800627 -0.875033 2.192457
H -2.014743 -0.677474 -1.067716
$end
$scan
stre 2 13 1.800000 1.801000 0.100000
$end
--------------------------------------------------------------

   11    -915.3810923766      4.71e-07  Convergence criterion met
 Total energy in the final basis set =     -915.3810923766
   11    -915.3777651056      5.11e-07  Convergence criterion met
 Total energy in the final basis set =     -915.3777651056
   11    -915.3777158166      5.13e-07  Convergence criterion met
 Total energy in the final basis set =     -915.3777158166
   11    -915.3777209844      5.14e-07  Convergence criterion met
 Total energy in the final basis set =     -915.3777209844
   11    -915.3777232187      5.16e-07  Convergence criterion met
 Total energy in the final basis set =     -915.3777232187

             Standard Nuclear Orientation (Angstroms)
    I     Atom           X                Y                Z
 ----------------------------------------------------------------
    1      S       0.5616377479    -1.5510039861     1.0346209743
    2      S      -2.0995052867    -0.2509544499     0.7644293077
    3      C       0.4969852411    -0.0572998178    -0.0810081570
    4      C      -0.6692087619     0.8270929832     0.3593018616
    5      C       1.8297683935     0.6755505576    -0.1851832894
    6      H       0.2189376780    -0.5104176580    -1.0383383657
    7      H      -0.4131313867     1.4186445973     1.2431220361
    8      H      -0.9645723741     1.4983702125    -0.4555815544
    9      H       1.7443477524     1.5049592126    -0.8967545667
   10      H       2.1353984962     1.0924772723     0.7802165290
   11      H       2.6203229325     0.0064690927    -0.5351083902
   12      H       0.7764357892    -0.8820853978     2.1878381948
   13      H      -1.9977172212    -0.6467966184    -0.9885535803
 ----------------------------------------------------------------

   11    -915.3777241012      5.16e-07  Convergence criterion met
 Total energy in the final basis set =     -915.3777241012

                    Orbital Energies (a.u.)
 --------------------------------------------------------------

 Alpha MOs
 -- Occupied --
-88.908 -88.902 -10.249 -10.231 -10.203  -7.970  -7.960  -5.934
 -5.930  -5.929  -5.927  -5.921  -5.918  -0.853  -0.765  -0.733
 -0.657  -0.595  -0.488  -0.459  -0.443  -0.427  -0.411  -0.369
 -0.362  -0.339  -0.328  -0.301  -0.251  -0.124

 Beta MOs
 -- Occupied --
-88.907 -88.895 -10.248 -10.231 -10.203  -7.968  -7.954  -5.933
 -5.929  -5.923  -5.917  -5.912  -5.909  -0.848  -0.748  -0.729
 -0.634  -0.587  -0.484  -0.456  -0.437  -0.423  -0.407  -0.366
 -0.350  -0.332  -0.279  -0.266

          Ground-State Mulliken Net Atomic Charges

     Atom                 Charge (a.u.)    Spin (a.u.)
  --------------------------------------------------------
      1 S                     0.037431       0.185007
      2 S                     0.126182       1.085123
      3 C                    -0.221807       0.021107
      4 C                    -0.314059      -0.035078
      5 C                    -0.306893      -0.001868
      6 H                     0.166654       0.011142
      7 H                     0.135375      -0.002702
      8 H                     0.151532       0.022070
      9 H                     0.122485       0.001256
     10 H                     0.112764       0.000850
     11 H                     0.132030       0.001208
     12 H                     0.077687      -0.006166
     13 H                    -0.219383       0.718052
  --------------------------------------------------------
  Sum of atomic charges =    -0.000000

                    Cartesian Multipole Moments
 -----------------------------------------------------------------
    Charge (ESU x 10^10)
                -0.0000
    Dipole Moment (Debye)
         X       2.8374      Y       2.1200      Z       0.8043
       Tot       3.6321
    Quadrupole Moments (Debye-Ang)
        XX     -51.9888     XY      -1.1848     YY     -48.3161
        XZ       0.0313     YZ      -0.6443     ZZ     -46.8888

 Final energy is   -915.377724101233
 **  OPTIMIZATION CONVERGED  **
 Total job time:  27.73s(wall), 317.92s(cpu)
        *  Thank you very much for using Q-Chem.  Have a nice day.  *
