 Q-Chem 5.1, Q-Chem, Inc., Pleasanton, CA (2018)
 Q-Chem 5.1.1 for Intel X86 EM64T Linux

User input:
--------------------------------------------------------------

$comment
potential surface scanner
$end

$rem
JOBTYPE  PES_SCAN
UNRESTRICTED TRUE
SYM_IGNORE  TRUE
GEOM_OPT_MAX_CYCLES 400
SCF_MAX_CYCLES 400
METHOD   B3LYP
BASIS   6-31G**
PDB_PRINT 2
SCF_CONVERGENCE 6
THRESH 14
SCF_PRINT 1
$end
$molecule
0 3
S 0.373711 -1.519592 0.384346
S -2.241943 0.388280 0.342616
C 0.489880 0.238634 -0.210031
C -0.567525 1.093863 0.493190
C 1.901579 0.808872 -0.073055
H 0.220499 0.146654 -1.266914
H -0.307734 1.224805 1.549828
H -0.605869 2.095679 0.042850
H 1.948031 1.816255 -0.503290
H 2.200126 0.879783 0.978354
H 2.630677 0.181098 -0.591101
H 0.729203 -1.264956 1.661983
H -2.530936 -2.964374 -0.619775
$end
$scan
stre 2 13 3.400000 3.401000 0.100000
$end
--------------------------------------------------------------

   11    -915.3840292774      4.66e-07  Convergence criterion met
 Total energy in the final basis set =     -915.3840292774
   11    -915.3839469395      4.11e-07  Convergence criterion met
 Total energy in the final basis set =     -915.3839469395
   11    -915.3839619529      4.20e-07  Convergence criterion met
 Total energy in the final basis set =     -915.3839619529
   11    -915.3839813161      4.56e-07  Convergence criterion met
 Total energy in the final basis set =     -915.3839813161
   11    -915.3839831613      4.64e-07  Convergence criterion met
 Total energy in the final basis set =     -915.3839831613
   11    -915.3839884842      5.10e-07  Convergence criterion met
 Total energy in the final basis set =     -915.3839884842
   11    -915.3839896832      5.24e-07  Convergence criterion met
 Total energy in the final basis set =     -915.3839896832
   11    -915.3839915901      5.51e-07  Convergence criterion met
   11    -915.3847125354      4.14e-07  Convergence criterion met
 Total energy in the final basis set =     -915.3847125354
   11    -915.3847279569      4.24e-07  Convergence criterion met
 Total energy in the final basis set =     -915.3847279569
   11    -915.3847368307      4.54e-07  Convergence criterion met
 Total energy in the final basis set =     -915.3847368307
   11    -915.3847423057      4.40e-07  Convergence criterion met
 Total energy in the final basis set =     -915.3847423057
   11    -915.3847438727      4.41e-07  Convergence criterion met
 Total energy in the final basis set =     -915.3847438727
   11    -915.3847453025      4.38e-07  Convergence criterion met
 Total energy in the final basis set =     -915.3847453025

             Standard Nuclear Orientation (Angstroms)
    I     Atom           X                Y                Z
 ----------------------------------------------------------------
    1      S       0.5092461529    -1.4983072073     1.1142948257
    2      S      -2.2340243441     0.1817796368     0.8990348786
    3      C       0.4048939463    -0.0004682741     0.0195343895
    4      C      -0.6249092046     0.9813038817     0.5845883381
    5      C       1.7697159633     0.6444722086    -0.2227531543
    6      H       0.0141658991    -0.4188743867    -0.9139356889
    7      H      -0.2463561923     1.4405535688     1.5045902963
    8      H      -0.8101318205     1.7940529048    -0.1317887603
    9      H       1.6751603915     1.4793161105    -0.9270407214
   10      H       2.1934149707     1.0386915816     0.7073572814
   11      H       2.4763304886    -0.0778451769    -0.6389103237
   12      H       1.0274843562    -0.8589750597     2.1849912516
   13      H      -1.9152916072    -1.5806987882    -1.9909616127
 ----------------------------------------------------------------

   11    -915.3847458841      4.42e-07  Convergence criterion met
 Total energy in the final basis set =     -915.3847458841

                    Orbital Energies (a.u.)
 --------------------------------------------------------------

 Alpha MOs
 -- Occupied --
-88.889 -88.885 -10.243 -10.231 -10.199  -7.951  -7.945  -5.916
 -5.916  -5.912  -5.907  -5.907  -5.899  -0.843  -0.756  -0.720
 -0.645  -0.589  -0.481  -0.451  -0.436  -0.419  -0.401  -0.364
 -0.352  -0.331  -0.306  -0.282  -0.247  -0.237

 Beta MOs
 -- Occupied --
-88.889 -88.880 -10.243 -10.231 -10.199  -7.951  -7.940  -5.915
 -5.912  -5.905  -5.904  -5.899  -5.895  -0.840  -0.744  -0.718
 -0.625  -0.582  -0.477  -0.449  -0.431  -0.417  -0.399  -0.363
 -0.344  -0.327  -0.251  -0.227

          Ground-State Mulliken Net Atomic Charges

     Atom                 Charge (a.u.)    Spin (a.u.)
  --------------------------------------------------------
      1 S                    -0.004731       0.072915
      2 S                     0.000984       0.944255
      3 C                    -0.211231       0.018863
      4 C                    -0.326095      -0.029395
      5 C                    -0.308941      -0.000882
      6 H                     0.151988      -0.005418
      7 H                     0.137816       0.005174
      8 H                     0.146502       0.020067
      9 H                     0.115014       0.000565
     10 H                     0.111609       0.000612
     11 H                     0.132291       0.000180
     12 H                     0.061939      -0.002254
     13 H                    -0.007144       0.975318
  --------------------------------------------------------
  Sum of atomic charges =    -0.000000

                    Cartesian Multipole Moments
 -----------------------------------------------------------------
    Charge (ESU x 10^10)
                -0.0000
    Dipole Moment (Debye)
         X       2.3064      Y       1.9912      Z      -0.4953
       Tot       3.0870
    Quadrupole Moments (Debye-Ang)
        XX     -51.7769     XY       0.3479     YY     -48.8069
        XZ       3.1650     YZ       0.0736     ZZ     -46.2133

 Final energy is   -915.384745884104
 **  OPTIMIZATION CONVERGED  **
 Total job time:  242.08s(wall), 2762.93s(cpu)
        *  Thank you very much for using Q-Chem.  Have a nice day.  *
