 Q-Chem 5.0, Q-Chem, Inc., Pleasanton, CA (2017)
 Q-Chem 5.0.0 for Intel X86 Linux

User input:
--------------------------------------------------------------
$comment
A single point DFT calculation in with basis
Mo
lanl2dz
**** set projection
$end

$molecule
0  3
C        -1.1953317338    0.3601864683    0.8051401484
C         0.2299472922   -0.0566336127    0.6944972130
C        -2.0629775074   -0.0079950176   -0.4191207150
Cl        3.2933566627   -1.0970396659   -0.8032687989
Cl        1.2787804130    0.8481820136   -0.3747278147
H        -1.2525779020    1.4413771801    0.9811592180
H        -1.5999876838   -0.1280120244    1.7008811946
H         0.5861186738   -1.0654951231    0.8662465450
H        -2.0587699864   -1.0877555709   -0.5943968461
H        -3.0980434627    0.3090839298   -0.2580078413
H        -1.6926147658    0.4841014226   -1.3230023031

$end

$rem
JOBTYPE  PES_SCAN
UNRESTRICTED TRUE
SYM_IGNORE  TRUE
GEOM_OPT_MAX_CYCLES 400
SCF_MAX_CYCLES 400
METHOD   B3LYP
BASIS   6-31G**
PDB_PRINT 2
SCF_CONVERGENCE 6
THRESH 14
SCF_PRINT 1
$end

$scan
stre 2 5 1.2 2.2 0.1
$end
--------------------------------------------------------------

   13   -1038.2277997483      3.67E-07 Convergence criterion met
   12   -1038.2171789235      5.85E-07 Convergence criterion met
   13   -1038.1695859642      4.12E-07 Convergence criterion met
   13   -1038.0629225074      3.71E-07 Convergence criterion met
   13   -1037.9609770844      3.75E-07 Convergence criterion met
   12   -1037.8885716285      9.32E-07 Convergence criterion met
   12   -1037.8879031239      9.17E-07 Convergence criterion met
   11   -1037.8888701238      9.85E-07 Convergence criterion met
   12   -1037.8889115253      8.84E-07 Convergence criterion met
   12   -1037.8890198862      9.54E-07 Convergence criterion met
   13   -1037.8890908384      3.24E-07 Convergence criterion met
   13   -1037.8891179645      3.22E-07 Convergence criterion met
   13   -1037.8891262204      3.23E-07 Convergence criterion met
   13   -1037.8891334566      3.25E-07 Convergence criterion met
   13   -1037.8891423300      3.27E-07 Convergence criterion met
 **  OPTIMIZATION CONVERGED  **
 **  OPTIMIZATION CONVERGED  **
 **  OPTIMIZATION CONVERGED  **
   12   -1038.1963701154      9.26E-07 Convergence criterion met
   13   -1038.1964150293      4.59E-07 Convergence criterion met
   13   -1038.1963967525      4.99E-07 Convergence criterion met
   13   -1038.1964865939      4.83E-07 Convergence criterion met
   13   -1038.1965414816      4.92E-07 Convergence criterion met
   13   -1038.1966533734      5.29E-07 Convergence criterion met
   13   -1038.1966853357      5.37E-07 Convergence criterion met
   13   -1038.1967509792      5.46E-07 Convergence criterion met
   13   -1038.1967888081      5.46E-07 Convergence criterion met
   13   -1038.1968285092      5.42E-07 Convergence criterion met
   13   -1038.1968483155      5.38E-07 Convergence criterion met
   13   -1038.1968575799      5.36E-07 Convergence criterion met
   13   -1038.1968600975      5.36E-07 Convergence criterion met

             Standard Nuclear Orientation (Angstroms)
    I     Atom           X                Y                Z
 ----------------------------------------------------------------
    1      C      -1.2375574617     0.3671092792     0.8691161152
    2      C       0.1763155187     0.0185992484     1.0078309612
    3      C      -1.8900520556    -0.0714207229    -0.4608850953
    4      Cl      2.5334025151    -1.2903105552    -1.0986685619
    5      Cl      1.4591264066     1.1693501551    -0.3597098410
    6      H      -1.3824104170     1.4397347582     1.0380904930
    7      H      -1.7242747033    -0.1518323131     1.7132727674
    8      H       0.6546978156    -0.9533898281     0.9276817542
    9      H      -1.7770631326    -1.1468624484    -0.6202249879
   10      H      -2.9574556592     0.1665063196    -0.4417558571
   11      H      -1.4268288267     0.4525161068    -1.2993477481
 ----------------------------------------------------------------

   13   -1038.1968608930      5.36E-07 Convergence criterion met

                    Orbital Energies (a.u.)
 --------------------------------------------------------------

 Alpha MOs
 -- Occupied --
*******-101.531 -10.313 -10.242 -10.212  -9.475  -9.443  -7.236
 -7.234  -7.228  -7.215  -7.197  -7.196  -0.850  -0.809  -0.777
 -0.711  -0.621  -0.499  -0.478  -0.444  -0.405  -0.396  -0.378
 -0.362  -0.334  -0.301  -0.294  -0.290  -0.271

 Beta MOs
 -- Occupied --
*******-101.525 -10.298 -10.243 -10.210  -9.472  -9.438  -7.235
 -7.227  -7.226  -7.197  -7.193  -7.193  -0.835  -0.795  -0.738
 -0.696  -0.606  -0.495  -0.471  -0.425  -0.401  -0.393  -0.356
 -0.329  -0.322  -0.285  -0.280

          Ground-State Mulliken Net Atomic Charges

     Atom                 Charge (a.u.)    Spin (a.u.)
  --------------------------------------------------------
      1 C                    -0.231284      -0.046958
      2 C                    -0.032058       0.959282
      3 C                    -0.320246       0.059343
      4 Cl                   -0.210898       0.770837
      5 Cl                   -0.124280       0.249197
      6 H                     0.159035       0.016244
      7 H                     0.152670       0.001090
      8 H                     0.201588      -0.016454
      9 H                     0.129411      -0.001691
     10 H                     0.124453       0.011754
     11 H                     0.151609      -0.002645
  --------------------------------------------------------
  Sum of atomic charges =    -0.000000

                    Cartesian Multipole Moments
 -----------------------------------------------------------------
    Charge (ESU x 10^10)
                -0.0000
    Dipole Moment (Debye)
         X      -4.7171      Y       0.1296      Z       2.3551
       Tot       5.2739
    Quadrupole Moments (Debye-Ang)
        XX     -50.3334     XY       0.9125     YY     -45.5468
        XZ       1.6446     YZ      -1.7636     ZZ     -45.3842

 Final energy is   -1038.19686089300
 **  OPTIMIZATION CONVERGED  **
 Total job time:  475.49s(wall), 5685.17s(cpu)
        *  Thank you very much for using Q-Chem.  Have a nice day.  *
