 Q-Chem 5.1, Q-Chem, Inc., Pleasanton, CA (2018)
 Q-Chem 5.1.1 for Intel X86 EM64T Linux

User input:
--------------------------------------------------------------

$comment
potential surface scanner
$end

$rem
JOBTYPE  PES_SCAN
UNRESTRICTED TRUE
SYM_IGNORE  TRUE
GEOM_OPT_MAX_CYCLES 400
SCF_MAX_CYCLES 400
METHOD   B3LYP
BASIS   6-31G**
PDB_PRINT 2
SCF_CONVERGENCE 6
THRESH 14
SCF_PRINT 1
$end
$molecule
0 3
Br 2.391702 0.002360 -0.254862
C -0.505133 -0.000172 0.525100
C -0.865922 -1.296252 -0.124016
C -0.864540 1.296021 -0.124428
H -0.308708 -0.000027 1.594751
H -0.386150 -2.149873 0.367229
H -1.953831 -1.486743 -0.100125
H -0.577718 -1.308952 -1.183980
H -0.385869 2.149606 0.367948
H -1.952522 1.486537 -0.102779
H -0.574913 1.308894 -1.184134
$end
$scan
stre 1 2 2.900000 2.901000 0.100000
$end
--------------------------------------------------------------

   15   -2692.3208606415      9.32e-07  Convergence criterion met
 Total energy in the final basis set =    -2692.3208606415
   40   -2692.3183497286      3.40e-07  Convergence criterion met
 Total energy in the final basis set =    -2692.3183497286
   30   -2692.3184530440      5.31e-07  Convergence criterion met
 Total energy in the final basis set =    -2692.3184530440
   24   -2692.3184752889      6.57e-07  Convergence criterion met
 Total energy in the final basis set =    -2692.3184752889
   16   -2692.3184778987      9.57e-07  Convergence criterion met
 Total energy in the final basis set =    -2692.3184778987
   10   -2692.3184916995      5.36e-07  Convergence criterion met
 Total energy in the final basis set =    -2692.3184916995
   13   -2692.3184965354      9.95e-07  Convergence criterion met
 Total energy in the final basis set =    -2692.3184965354
   18   -2692.3184901116      9.38e-07  Convergence criterion met
 Total energy in the final basis set =    -2692.3184901116
   18   -2692.3184923317      7.45e-07  Convergence criterion met
 Total energy in the final basis set =    -2692.3184923317
   10   -2692.3184999176      8.97e-07  Convergence criterion met
 Total energy in the final basis set =    -2692.3184999176
   11   -2692.3185016257      9.90e-07  Convergence criterion met
 Total energy in the final basis set =    -2692.3185016257
   18   -2692.3184936593      9.41e-07  Convergence criterion met
 Total energy in the final basis set =    -2692.3184936593
   16   -2692.3184969783      9.76e-07  Convergence criterion met
 Total energy in the final basis set =    -2692.3184969783

             Standard Nuclear Orientation (Angstroms)
    I     Atom           X                Y                Z
 ----------------------------------------------------------------
    1      Br      2.3198616499    -0.0027628771    -0.2208535147
    2      C      -0.4849434127     0.0005273989     0.5160719596
    3      C      -0.8578958645    -1.2954709612    -0.1276138385
    4      C      -0.8588364286     1.2961855650    -0.1276150434
    5      H      -0.2904909078     0.0001523628     1.5860211512
    6      H      -0.3779254924    -2.1502664485     0.3615645414
    7      H      -1.9463519338    -1.4806802510    -0.0938911202
    8      H      -0.5794170543    -1.3122840645    -1.1902499660
    9      H      -0.3790270046     2.1519583812     0.3603532767
   10      H      -1.9473484552     1.4813541383    -0.0926172915
   11      H      -0.5812290960     1.3126857561    -1.1904661546
 ----------------------------------------------------------------

   14   -2692.3185001156      8.72e-07  Convergence criterion met
 Total energy in the final basis set =    -2692.3185001156

                    Orbital Energies (a.u.)
 --------------------------------------------------------------

 Alpha MOs
 -- Occupied --
******* -62.550 -56.374 -56.367 -56.366 -10.180 -10.175 -10.175
 -8.737  -6.574  -6.552  -6.552  -2.665  -2.659  -2.659  -2.643
 -2.643  -0.795  -0.772  -0.685  -0.565  -0.446  -0.427  -0.403
 -0.383  -0.363  -0.349  -0.342  -0.318  -0.316  -0.168

 Beta MOs
 -- Occupied --
******* -62.548 -56.368 -56.365 -56.365 -10.176 -10.176 -10.166
 -8.733  -6.563  -6.550  -6.549  -2.656  -2.653  -2.653  -2.642
 -2.641  -0.762  -0.743  -0.683  -0.544  -0.441  -0.410  -0.397
 -0.375  -0.345  -0.337  -0.303  -0.298

          Ground-State Mulliken Net Atomic Charges

     Atom                 Charge (a.u.)    Spin (a.u.)
  --------------------------------------------------------
      1 Br                    0.012718       1.025028
      2 C                    -0.077302       0.989926
      3 C                    -0.330603      -0.073097
      4 C                    -0.330152      -0.073193
      5 H                     0.088032      -0.042967
      6 H                     0.103777       0.007028
      7 H                     0.107829       0.058281
      8 H                     0.107090       0.021805
      9 H                     0.103263       0.007052
     10 H                     0.107647       0.058373
     11 H                     0.107702       0.021763
  --------------------------------------------------------
  Sum of atomic charges =     0.000000

                    Cartesian Multipole Moments
 -----------------------------------------------------------------
    Charge (ESU x 10^10)
                 0.0000
    Dipole Moment (Debye)
         X      -0.3432      Y      -0.0010      Z       0.0187
       Tot       0.3437
    Quadrupole Moments (Debye-Ang)
        XX     -40.6049     XY       0.0195     YY     -36.6702
        XZ       0.3139     YZ       0.1165     ZZ     -39.2558

 Final energy is   -2692.31850011558
 **  OPTIMIZATION CONVERGED  **
 Total job time:  78.46s(wall), 913.12s(cpu)
        *  Thank you very much for using Q-Chem.  Have a nice day.  *
