 Q-Chem 5.1, Q-Chem, Inc., Pleasanton, CA (2018)
 Q-Chem 5.1.1 for Intel X86 EM64T Linux

User input:
--------------------------------------------------------------

$comment
potential surface scanner
$end

$rem
JOBTYPE  PES_SCAN
UNRESTRICTED TRUE
SYM_IGNORE  TRUE
GEOM_OPT_MAX_CYCLES 400
SCF_MAX_CYCLES 400
METHOD   B3LYP
BASIS   6-31G**
PDB_PRINT 2
SCF_CONVERGENCE 6
THRESH 14
SCF_PRINT 1
$end
$molecule
0 3
Br 2.138727 0.003570 1.089450
C -0.276048 -0.000091 0.125682
C -0.891793 -1.310290 -0.225570
C -0.879695 1.308520 -0.251546
H 0.258291 0.007078 1.118021
H -0.223891 -2.146214 0.002643
H -1.841793 -1.487567 0.306791
H -1.123681 -1.340173 -1.298487
H -0.199155 2.141415 -0.051104
H -1.821205 1.510470 0.286981
H -1.123359 1.314683 -1.322159
$end
$scan
stre 1 2 2.500000 2.501000 0.100000
$end
--------------------------------------------------------------

   10   -2692.3165887568      4.38e-07  Convergence criterion met
 Total energy in the final basis set =    -2692.3165887568
   10   -2692.3100741242      4.60e-07  Convergence criterion met
 Total energy in the final basis set =    -2692.3100741242
   10   -2692.3101963563      4.42e-07  Convergence criterion met
 Total energy in the final basis set =    -2692.3101963563
   10   -2692.3102662035      4.35e-07  Convergence criterion met
 Total energy in the final basis set =    -2692.3102662035
   10   -2692.3102837500      4.36e-07  Convergence criterion met
 Total energy in the final basis set =    -2692.3102837500
   10   -2692.3102963437      4.38e-07  Convergence criterion met
 Total energy in the final basis set =    -2692.3102963437
   10   -2692.3102986748      4.40e-07  Convergence criterion met
 Total energy in the final basis set =    -2692.3102986748

             Standard Nuclear Orientation (Angstroms)
    I     Atom           X                Y                Z
 ----------------------------------------------------------------
    1      Br      2.0905519572     0.0015387234     0.9897608396
    2      C      -0.2609275220     0.0001795176     0.1409125112
    3      C      -0.8823813839    -1.3066004601    -0.2176841531
    4      C      -0.8703899060     1.3051378673    -0.2440142862
    5      H       0.2208910832     0.0079761650     1.1611434871
    6      H      -0.2259635871    -2.1475646725     0.0254480897
    7      H      -1.8451182687    -1.4748492932     0.2943263840
    8      H      -1.0921909765    -1.3363171387    -1.2950993914
    9      H      -0.2022986826     2.1439267549    -0.0263830557
   10      H      -1.8264597898     1.4965411660     0.2722288809
   11      H      -1.0893149238     1.3114323705    -1.3199373060
 ----------------------------------------------------------------

   10   -2692.3102992714      4.41e-07  Convergence criterion met
 Total energy in the final basis set =    -2692.3102992714

                    Orbital Energies (a.u.)
 --------------------------------------------------------------

 Alpha MOs
 -- Occupied --
******* -62.513 -56.336 -56.330 -56.330 -10.222 -10.196 -10.196
 -8.701  -6.534  -6.517  -6.517  -2.626  -2.622  -2.622  -2.609
 -2.609  -0.818  -0.763  -0.708  -0.600  -0.480  -0.448  -0.428
 -0.402  -0.392  -0.374  -0.304  -0.292  -0.279  -0.192

 Beta MOs
 -- Occupied --
******* -62.512 -56.331 -56.329 -56.329 -10.204 -10.196 -10.196
 -8.697  -6.525  -6.515  -6.515  -2.619  -2.617  -2.616  -2.608
 -2.608  -0.791  -0.732  -0.705  -0.566  -0.464  -0.428  -0.420
 -0.395  -0.372  -0.368  -0.284  -0.280

          Ground-State Mulliken Net Atomic Charges

     Atom                 Charge (a.u.)    Spin (a.u.)
  --------------------------------------------------------
      1 Br                   -0.128624       0.811410
      2 C                    -0.087441       1.096298
      3 C                    -0.337324      -0.059657
      4 C                    -0.337231      -0.059692
      5 H                     0.129323       0.006484
      6 H                     0.133286       0.012146
      7 H                     0.118992       0.061078
      8 H                     0.128348       0.029437
      9 H                     0.133448       0.012418
     10 H                     0.119074       0.061035
     11 H                     0.128149       0.029042
  --------------------------------------------------------
  Sum of atomic charges =    -0.000000

                    Cartesian Multipole Moments
 -----------------------------------------------------------------
    Charge (ESU x 10^10)
                -0.0000
    Dipole Moment (Debye)
         X      -2.3533      Y       0.0010      Z      -0.6830
       Tot       2.4504
    Quadrupole Moments (Debye-Ang)
        XX     -41.0072     XY       0.0006     YY     -38.1662
        XZ      -1.5043     YZ      -0.0100     ZZ     -39.7081

 Final energy is   -2692.31029927140
 **  OPTIMIZATION CONVERGED  **
 Total job time:  30.47s(wall), 349.49s(cpu)
        *  Thank you very much for using Q-Chem.  Have a nice day.  *
