 Q-Chem 5.1, Q-Chem, Inc., Pleasanton, CA (2018)
 Q-Chem 5.1.1 for Intel X86 EM64T Linux

User input:
--------------------------------------------------------------

$comment
potential surface scanner
$end

$rem
JOBTYPE  PES_SCAN
UNRESTRICTED TRUE
SYM_IGNORE  TRUE
GEOM_OPT_MAX_CYCLES 400
SCF_MAX_CYCLES 400
METHOD   B3LYP
BASIS   6-31G**
PDB_PRINT 2
SCF_CONVERGENCE 6
THRESH 14
SCF_PRINT 1
$end
$molecule
0 1
Br 1.744600 -0.000400 -0.101000
C -0.148200 0.000100 0.395200
C -0.798600 -1.260800 -0.147100
C -0.797900 1.261200 -0.147100
H -0.168300 0.000100 1.489400
H -0.311900 -2.158700 0.249400
H -1.855400 -1.302200 0.136700
H -0.741600 -1.308000 -1.240400
H -0.310700 2.158800 0.249400
H -1.854800 1.303000 0.136600
H -0.740800 1.308300 -1.240400
$end
$scan
stre 1 2 1.500000 1.501000 0.100000
$end
--------------------------------------------------------------

    9   -2692.4381940224      5.80e-07  Convergence criterion met
 Total energy in the final basis set =    -2692.4381940224
    9   -2692.4252909852      5.91e-07  Convergence criterion met
 Total energy in the final basis set =    -2692.4252909852
    9   -2692.3858476832      5.92e-07  Convergence criterion met
 Total energy in the final basis set =    -2692.3858476832
    9   -2692.3146205447      6.06e-07  Convergence criterion met
 Total energy in the final basis set =    -2692.3146205447
    9   -2692.2943841578      6.23e-07  Convergence criterion met
 Total energy in the final basis set =    -2692.2943841578
    9   -2692.2948793823      6.38e-07  Convergence criterion met
 Total energy in the final basis set =    -2692.2948793823
    9   -2692.2951007841      6.46e-07  Convergence criterion met
 Total energy in the final basis set =    -2692.2951007841
    9   -2692.2951231714      6.45e-07  Convergence criterion met
    9   -2692.2951355228      6.45e-07  Convergence criterion met
 Total energy in the final basis set =    -2692.2951355228
    9   -2692.2951378775      6.44e-07  Convergence criterion met
 Total energy in the final basis set =    -2692.2951378775
    9   -2692.2951440292      6.44e-07  Convergence criterion met
 Total energy in the final basis set =    -2692.2951440292
    9   -2692.2951474310      6.44e-07  Convergence criterion met
 Total energy in the final basis set =    -2692.2951474310
    9   -2692.2951520748      6.44e-07  Convergence criterion met
 Total energy in the final basis set =    -2692.2951520748
    9   -2692.2951548057      6.44e-07  Convergence criterion met
 Total energy in the final basis set =    -2692.2951548057

             Standard Nuclear Orientation (Angstroms)
    I     Atom           X                Y                Z
 ----------------------------------------------------------------
    1      Br      1.4904536808    -0.0004138122     0.0076450737
    2      C       0.0271351710    -0.0000120265     0.3373400451
    3      C      -0.7749119875    -1.2531782896    -0.1544629711
    4      C      -0.7742705133     1.2535511056    -0.1544867655
    5      H      -0.1779614278     0.0000543686     1.4246805616
    6      H      -0.3222454589    -2.1699463696     0.2369430171
    7      H      -1.8176251859    -1.2099277559     0.1721437273
    8      H      -0.7483404150    -1.3052250653    -1.2490566726
    9      H      -0.3211216680     2.1700989474     0.2368765001
   10      H      -1.8169941432     1.2108508569     0.1721602978
   11      H      -0.7477180521     1.3055480405    -1.2490828135
 ----------------------------------------------------------------

    9   -2692.2951559394      6.45e-07  Convergence criterion met
 Total energy in the final basis set =    -2692.2951559394

                    Orbital Energies (a.u.)
 --------------------------------------------------------------

 Alpha MOs
 -- Occupied --
******* -62.515 -56.334 -56.332 -56.332 -10.224 -10.184 -10.184
 -8.708  -6.538  -6.525  -6.525  -2.635  -2.628  -2.628  -2.618
 -2.618  -0.934  -0.735  -0.693  -0.575  -0.490  -0.448  -0.446
 -0.392  -0.387  -0.371  -0.358  -0.256  -0.255

 Beta MOs
 -- Occupied --
******* -62.515 -56.334 -56.332 -56.332 -10.224 -10.184 -10.184
 -8.708  -6.538  -6.525  -6.525  -2.635  -2.628  -2.628  -2.618
 -2.618  -0.934  -0.735  -0.693  -0.575  -0.490  -0.448  -0.446
 -0.392  -0.387  -0.371  -0.358  -0.256  -0.255

          Ground-State Mulliken Net Atomic Charges

     Atom                 Charge (a.u.)    Spin (a.u.)
  --------------------------------------------------------
      1 Br                   -0.034640      -0.000000
      2 C                    -0.094859       0.000000
      3 C                    -0.323278       0.000000
      4 C                    -0.323276       0.000000
      5 H                     0.113305       0.000000
      6 H                     0.112826      -0.000000
      7 H                     0.104251      -0.000000
      8 H                     0.114297      -0.000000
      9 H                     0.112826      -0.000000
     10 H                     0.104252       0.000000
     11 H                     0.114296      -0.000000
  --------------------------------------------------------
  Sum of atomic charges =     0.000000

                    Cartesian Multipole Moments
 -----------------------------------------------------------------
    Charge (ESU x 10^10)
                 0.0000
    Dipole Moment (Debye)
         X      -1.3513      Y       0.0004      Z       0.3328
       Tot       1.3916
    Quadrupole Moments (Debye-Ang)
        XX     -39.7454     XY       0.0003     YY     -38.5048
        XZ      -0.1593     YZ       0.0001     ZZ     -38.2562

 Final energy is   -2692.29515593943
 **  OPTIMIZATION CONVERGED  **
 Total job time:  56.25s(wall), 652.01s(cpu)
        *  Thank you very much for using Q-Chem.  Have a nice day.  *
