 Q-Chem 5.1, Q-Chem, Inc., Pleasanton, CA (2018)
 Q-Chem 5.1.1 for Intel X86 EM64T Linux

User input:
--------------------------------------------------------------

$comment
potential surface scanner
$end

$rem
JOBTYPE  PES_SCAN
UNRESTRICTED TRUE
SYM_IGNORE  TRUE
GEOM_OPT_MAX_CYCLES 400
SCF_MAX_CYCLES 400
METHOD   B3LYP
BASIS   6-31G**
PDB_PRINT 2
SCF_CONVERGENCE 6
THRESH 14
SCF_PRINT 1
$end
$molecule
0 1
Br 1.744600 -0.000400 -0.101000
C -0.148200 0.000100 0.395200
C -0.798600 -1.260800 -0.147100
C -0.797900 1.261200 -0.147100
H -0.168300 0.000100 1.489400
H -0.311900 -2.158700 0.249400
H -1.855400 -1.302200 0.136700
H -0.741600 -1.308000 -1.240400
H -0.310700 2.158800 0.249400
H -1.854800 1.303000 0.136600
H -0.740800 1.308300 -1.240400
$end
$scan
stre 1 2 1.800000 1.801000 0.100000
$end
--------------------------------------------------------------

    9   -2692.4381940224      5.80e-07  Convergence criterion met
 Total energy in the final basis set =    -2692.4381940224
    9   -2692.4255652957      5.91e-07  Convergence criterion met
 Total energy in the final basis set =    -2692.4255652957
    9   -2692.4249246310      5.83e-07  Convergence criterion met
 Total energy in the final basis set =    -2692.4249246310
    9   -2692.4255773758      5.68e-07  Convergence criterion met
 Total energy in the final basis set =    -2692.4255773758
    9   -2692.4256001025      5.68e-07  Convergence criterion met
 Total energy in the final basis set =    -2692.4256001025
    9   -2692.4256202741      5.69e-07  Convergence criterion met
 Total energy in the final basis set =    -2692.4256202741
    9   -2692.4256216758      5.69e-07  Convergence criterion met
 Total energy in the final basis set =    -2692.4256216758
    9   -2692.4256290770      5.70e-07  Convergence criterion met
 Total energy in the final basis set =    -2692.4256290770
    9   -2692.4256311508      5.70e-07  Convergence criterion met
 Total energy in the final basis set =    -2692.4256311508
    9   -2692.4256337855      5.70e-07  Convergence criterion met
 Total energy in the final basis set =    -2692.4256337855

             Standard Nuclear Orientation (Angstroms)
    I     Atom           X                Y                Z
 ----------------------------------------------------------------
    1      Br      1.6653787156    -0.0004059393    -0.0291731455
    2      C      -0.0912021948     0.0000095730     0.3637942515
    3      C      -0.7890067234    -1.2663101364    -0.1536286360
    4      C      -0.7883613204     1.2666785517    -0.1536487836
    5      H      -0.1686863193     0.0000378624     1.4561321533
    6      H      -0.3117448049    -2.1696619797     0.2355105694
    7      H      -1.8387030507    -1.2680242247     0.1602896209
    8      H      -0.7566347104    -1.3077505471    -1.2471478436
    9      H      -0.3105903418     2.1697883798     0.2354299734
   10      H      -1.8380431986     1.2689819710     0.1603130420
   11      H      -0.7560060511     1.3080564893    -1.2471712018
 ----------------------------------------------------------------

    9   -2692.4256343933      5.70e-07  Convergence criterion met
 Total energy in the final basis set =    -2692.4256343933

                    Orbital Energies (a.u.)
 --------------------------------------------------------------

 Alpha MOs
 -- Occupied --
******* -62.507 -56.328 -56.325 -56.325 -10.239 -10.188 -10.188
 -8.696  -6.525  -6.513  -6.513  -2.619  -2.616  -2.616  -2.606
 -2.606  -0.857  -0.738  -0.697  -0.582  -0.475  -0.449  -0.428
 -0.396  -0.368  -0.360  -0.356  -0.271  -0.271

 Beta MOs
 -- Occupied --
******* -62.507 -56.328 -56.325 -56.325 -10.239 -10.188 -10.188
 -8.696  -6.525  -6.513  -6.513  -2.619  -2.616  -2.616  -2.606
 -2.606  -0.857  -0.738  -0.697  -0.582  -0.475  -0.449  -0.428
 -0.396  -0.368  -0.360  -0.356  -0.271  -0.271

          Ground-State Mulliken Net Atomic Charges

     Atom                 Charge (a.u.)    Spin (a.u.)
  --------------------------------------------------------
      1 Br                   -0.086790      -0.000000
      2 C                    -0.129443      -0.000000
      3 C                    -0.309936       0.000000
      4 C                    -0.309938       0.000000
      5 H                     0.136289       0.000000
      6 H                     0.121616      -0.000000
      7 H                     0.107473      -0.000000
      8 H                     0.120820      -0.000000
      9 H                     0.121617       0.000000
     10 H                     0.107471       0.000000
     11 H                     0.120820      -0.000000
  --------------------------------------------------------
  Sum of atomic charges =     0.000000

                    Cartesian Multipole Moments
 -----------------------------------------------------------------
    Charge (ESU x 10^10)
                -0.0000
    Dipole Moment (Debye)
         X      -1.8279      Y       0.0004      Z       0.3464
       Tot       1.8605
    Quadrupole Moments (Debye-Ang)
        XX     -40.1129     XY       0.0005     YY     -38.4018
        XZ      -0.2805     YZ       0.0001     ZZ     -38.3702

 Final energy is   -2692.42563439329
 **  OPTIMIZATION CONVERGED  **
 Total job time:  41.65s(wall), 470.16s(cpu)
        *  Thank you very much for using Q-Chem.  Have a nice day.  *
