 Q-Chem 5.1, Q-Chem, Inc., Pleasanton, CA (2018)
 Q-Chem 5.1.1 for Intel X86 EM64T Linux

User input:
--------------------------------------------------------------

$comment
potential surface scanner
$end

$rem
JOBTYPE  PES_SCAN
UNRESTRICTED TRUE
SYM_IGNORE  TRUE
GEOM_OPT_MAX_CYCLES 400
SCF_MAX_CYCLES 400
METHOD   B3LYP
BASIS   6-31G**
PDB_PRINT 2
SCF_CONVERGENCE 6
THRESH 14
SCF_PRINT 1
$end
$molecule
0 3
Br 3.986500 -0.000198 0.202493
C -0.608417 0.000039 0.418680
C -1.053110 -1.300874 -0.160899
C -1.052165 1.301220 -0.161016
H -0.159947 -0.000074 1.408912
H -0.435778 -2.135952 0.186938
H -2.096893 -1.544903 0.107822
H -1.017373 -1.285815 -1.258277
H -0.434125 2.135852 0.186636
H -2.095720 1.546115 0.107807
H -1.016574 1.285989 -1.258395
$end
$scan
stre 1 2 4.500000 4.501000 0.100000
$end
--------------------------------------------------------------

   10   -2692.3278433077      3.35e-07  Convergence criterion met
 Total energy in the final basis set =    -2692.3278433077
   10   -2692.3277601994      3.37e-07  Convergence criterion met
 Total energy in the final basis set =    -2692.3277601994
   10   -2692.3278288663      3.35e-07  Convergence criterion met
 Total energy in the final basis set =    -2692.3278288663
   10   -2692.3278534909      3.35e-07  Convergence criterion met
 Total energy in the final basis set =    -2692.3278534909

             Standard Nuclear Orientation (Angstroms)
    I     Atom           X                Y                Z
 ----------------------------------------------------------------
    1      Br      3.8866613810    -0.0001245940     0.1685442250
    2      C      -0.6058881283     0.0000292042     0.4273875550
    3      C      -1.0403423250    -1.3012422962    -0.1590609113
    4      C      -1.0393621533     1.3015736248    -0.1591735189
    5      H      -0.1827693171    -0.0000832915     1.4291778360
    6      H      -0.4252701898    -2.1350181131     0.1959899215
    7      H      -2.0866332591    -1.5483782304     0.0969357625
    8      H      -0.9909258941    -1.2854095557    -1.2558033863
    9      H      -0.4235582600     2.1348886440     0.1956918389
   10      H      -2.0854167342     1.5496048408     0.0969306195
   11      H      -0.9900971202     1.2855587672    -1.2559189418
 ----------------------------------------------------------------

   10   -2692.3278539790      3.35e-07  Convergence criterion met
 Total energy in the final basis set =    -2692.3278539790

                    Orbital Energies (a.u.)
 --------------------------------------------------------------

 Alpha MOs
 -- Occupied --
******* -62.555 -56.380 -56.372 -56.372 -10.184 -10.175 -10.175
 -8.743  -6.579  -6.557  -6.557  -2.670  -2.665  -2.665  -2.648
 -2.648  -0.795  -0.775  -0.686  -0.565  -0.446  -0.423  -0.403
 -0.381  -0.370  -0.350  -0.343  -0.321  -0.321  -0.177

 Beta MOs
 -- Occupied --
******* -62.554 -56.374 -56.371 -56.371 -10.176 -10.176 -10.170
 -8.739  -6.569  -6.555  -6.555  -2.662  -2.659  -2.658  -2.647
 -2.647  -0.758  -0.751  -0.683  -0.544  -0.441  -0.405  -0.397
 -0.375  -0.346  -0.337  -0.307  -0.306

          Ground-State Mulliken Net Atomic Charges

     Atom                 Charge (a.u.)    Spin (a.u.)
  --------------------------------------------------------
      1 Br                   -0.001387       1.001732
      2 C                    -0.067113       1.017373
      3 C                    -0.334029      -0.079759
      4 C                    -0.334030      -0.079759
      5 H                     0.087628      -0.046100
      6 H                     0.108626       0.009360
      7 H                     0.108714       0.064150
      8 H                     0.107122       0.019747
      9 H                     0.108640       0.009366
     10 H                     0.108710       0.064150
     11 H                     0.107119       0.019740
  --------------------------------------------------------
  Sum of atomic charges =     0.000000

                    Cartesian Multipole Moments
 -----------------------------------------------------------------
    Charge (ESU x 10^10)
                -0.0000
    Dipole Moment (Debye)
         X      -0.2328      Y       0.0002      Z       0.0047
       Tot       0.2328
    Quadrupole Moments (Debye-Ang)
        XX     -39.9000     XY       0.0042     YY     -36.4094
        XZ       0.3110     YZ      -0.0019     ZZ     -39.2685

 Final energy is   -2692.32785397898
 **  OPTIMIZATION CONVERGED  **
 Total job time:  19.82s(wall), 212.53s(cpu)
        *  Thank you very much for using Q-Chem.  Have a nice day.  *
