 Q-Chem 5.1, Q-Chem, Inc., Pleasanton, CA (2018)
 Q-Chem 5.1.1 for Intel X86 EM64T Linux

User input:
--------------------------------------------------------------

$comment
potential surface scanner
$end

$rem
JOBTYPE  PES_SCAN
UNRESTRICTED TRUE
SYM_IGNORE  TRUE
GEOM_OPT_MAX_CYCLES 400
SCF_MAX_CYCLES 400
METHOD   B3LYP
BASIS   6-31G**
PDB_PRINT 2
SCF_CONVERGENCE 6
THRESH 14
SCF_PRINT 1
$end
$molecule
0 3
Br 4.295716 -0.000723 0.304676
C -0.603697 0.000119 0.380480
C -1.091345 -1.299527 -0.166709
C -1.090651 1.299972 -0.166832
H -0.091417 0.000033 1.339375
H -0.477571 -2.141745 0.169018
H -2.129614 -1.518990 0.141186
H -1.095249 -1.298346 -1.265118
H -0.476348 2.141874 0.168722
H -2.128761 1.520083 0.141141
H -1.094665 1.298648 -1.265239
$end
$scan
stre 1 2 4.800000 4.801000 0.100000
$end
--------------------------------------------------------------

   10   -2692.3278765962      3.37e-07  Convergence criterion met
 Total energy in the final basis set =    -2692.3278765962
   10   -2692.3276554186      3.45e-07  Convergence criterion met
 Total energy in the final basis set =    -2692.3276554186
   10   -2692.3278057995      3.40e-07  Convergence criterion met
 Total energy in the final basis set =    -2692.3278057995
   10   -2692.3278546446      3.37e-07  Convergence criterion met
 Total energy in the final basis set =    -2692.3278546446

             Standard Nuclear Orientation (Angstroms)
    I     Atom           X                Y                Z
 ----------------------------------------------------------------
    1      Br      4.1965933709    -0.0006492999     0.2720777731
    2      C      -0.6019361235     0.0001092868     0.3908891662
    3      C      -1.0788100665    -1.2998043866    -0.1650939171
    4      C      -1.0780849002     1.3002344756    -0.1652154177
    5      H      -0.1134270338     0.0000235829     1.3621917350
    6      H      -0.4655826576    -2.1405538855     0.1755792686
    7      H      -2.1195145986    -1.5242654735     0.1309252358
    8      H      -1.0702622061    -1.2958799673    -1.2633505505
    9      H      -0.4643066146     2.1406519110     0.1752869893
   10      H      -2.1186230485     1.5253696041     0.1308812571
   11      H      -1.0696481214     1.2961621524    -1.2634715399
 ----------------------------------------------------------------

   10   -2692.3278553789      3.37e-07  Convergence criterion met
 Total energy in the final basis set =    -2692.3278553789

                    Orbital Energies (a.u.)
 --------------------------------------------------------------

 Alpha MOs
 -- Occupied --
******* -62.556 -56.380 -56.373 -56.373 -10.184 -10.175 -10.175
 -8.743  -6.580  -6.558  -6.558  -2.671  -2.665  -2.665  -2.649
 -2.649  -0.796  -0.775  -0.686  -0.565  -0.446  -0.423  -0.403
 -0.381  -0.370  -0.350  -0.343  -0.322  -0.321  -0.177

 Beta MOs
 -- Occupied --
******* -62.554 -56.375 -56.372 -56.372 -10.176 -10.176 -10.170
 -8.739  -6.569  -6.556  -6.556  -2.663  -2.659  -2.659  -2.648
 -2.648  -0.758  -0.752  -0.683  -0.544  -0.441  -0.406  -0.397
 -0.374  -0.346  -0.337  -0.307  -0.307

          Ground-State Mulliken Net Atomic Charges

     Atom                 Charge (a.u.)    Spin (a.u.)
  --------------------------------------------------------
      1 Br                   -0.000605       1.000781
      2 C                    -0.068879       1.018196
      3 C                    -0.333676      -0.079695
      4 C                    -0.333678      -0.079695
      5 H                     0.088063      -0.046199
      6 H                     0.108483       0.007985
      7 H                     0.108596       0.063678
      8 H                     0.107303       0.021644
      9 H                     0.108499       0.007989
     10 H                     0.108594       0.063678
     11 H                     0.107300       0.021638
  --------------------------------------------------------
  Sum of atomic charges =     0.000000

                    Cartesian Multipole Moments
 -----------------------------------------------------------------
    Charge (ESU x 10^10)
                -0.0000
    Dipole Moment (Debye)
         X      -0.2209      Y       0.0002      Z       0.0179
       Tot       0.2216
    Quadrupole Moments (Debye-Ang)
        XX     -39.7992     XY       0.0064     YY     -36.4088
        XZ       0.3503     YZ      -0.0019     ZZ     -39.3144

 Final energy is   -2692.32785537888
 **  OPTIMIZATION CONVERGED  **
 Total job time:  17.10s(wall), 190.88s(cpu)
        *  Thank you very much for using Q-Chem.  Have a nice day.  *
