 Q-Chem 5.1, Q-Chem, Inc., Pleasanton, CA (2018)
 Q-Chem 5.1.1 for Intel X86 EM64T Linux

User input:
--------------------------------------------------------------

$comment
potential surface scanner
$end

$rem
JOBTYPE  PES_SCAN
UNRESTRICTED TRUE
SYM_IGNORE  TRUE
GEOM_OPT_MAX_CYCLES 400
SCF_MAX_CYCLES 400
METHOD   B3LYP
BASIS   6-31G**
PDB_PRINT 2
SCF_CONVERGENCE 6
THRESH 14
SCF_PRINT 1
$end
$molecule
0 1
Br 1.971955 -0.000523 -0.102397
C -0.271237 0.000065 0.405627
C -0.820097 -1.284396 -0.150252
C -0.819445 1.284791 -0.150276
H -0.154212 0.000049 1.487196
H -0.304875 -2.157197 0.253852
H -1.881342 -1.351169 0.132691
H -0.760283 -1.308361 -1.241105
H -0.303741 2.157332 0.253772
H -1.880639 1.352125 0.132725
H -0.759684 1.308685 -1.241134
$end
$scan
stre 1 2 2.400000 2.401000 0.100000
$end
--------------------------------------------------------------

    9   -2692.4283064461      6.40e-07  Convergence criterion met
 Total energy in the final basis set =    -2692.4283064461
   10   -2692.4218182471      2.26e-07  Convergence criterion met
 Total energy in the final basis set =    -2692.4218182471
   10   -2692.4218350344      2.32e-07  Convergence criterion met
 Total energy in the final basis set =    -2692.4218350344
   10   -2692.4219445580      2.40e-07  Convergence criterion met
 Total energy in the final basis set =    -2692.4219445580
   10   -2692.4219484978      2.41e-07  Convergence criterion met
 Total energy in the final basis set =    -2692.4219484978

             Standard Nuclear Orientation (Angstroms)
    I     Atom           X                Y                Z
 ----------------------------------------------------------------
    1      Br      2.0367201476    -0.0005229270    -0.1066673510
    2      C      -0.3064225107     0.0000715061     0.4126412681
    3      C      -0.8265866988    -1.2870608085    -0.1504284480
    4      C      -0.8259312959     1.2874554170    -0.1504524394
    5      H      -0.1566184850     0.0000460146     1.4894866258
    6      H      -0.2986835049    -2.1522253695     0.2528709326
    7      H      -1.8879493054    -1.3717751822     0.1313720230
    8      H      -0.7669774589    -1.3050081491    -1.2411451867
    9      H      -0.2975412560     2.1523484803     0.2527887639
   10      H      -1.8872323624     1.3727404094     0.1314061048
   11      H      -0.7663772699     1.3053316089    -1.2411732930
 ----------------------------------------------------------------

   10   -2692.4219492334      2.41e-07  Convergence criterion met
 Total energy in the final basis set =    -2692.4219492334

                    Orbital Energies (a.u.)
 --------------------------------------------------------------

 Alpha MOs
 -- Occupied --
******* -62.477 -56.298 -56.295 -56.295 -10.280 -10.208 -10.208
 -8.663  -6.492  -6.481  -6.481  -2.585  -2.582  -2.582  -2.574
 -2.574  -0.825  -0.721  -0.712  -0.600  -0.486  -0.460  -0.439
 -0.415  -0.385  -0.381  -0.296  -0.256  -0.255

 Beta MOs
 -- Occupied --
******* -62.477 -56.298 -56.295 -56.295 -10.280 -10.208 -10.208
 -8.663  -6.492  -6.481  -6.481  -2.585  -2.582  -2.582  -2.574
 -2.574  -0.825  -0.721  -0.712  -0.600  -0.486  -0.460  -0.439
 -0.415  -0.385  -0.381  -0.296  -0.256  -0.255

          Ground-State Mulliken Net Atomic Charges

     Atom                 Charge (a.u.)    Spin (a.u.)
  --------------------------------------------------------
      1 Br                   -0.303813       0.000000
      2 C                    -0.058352       0.000000
      3 C                    -0.317851      -0.000000
      4 C                    -0.317849       0.000000
      5 H                     0.164131       0.000000
      6 H                     0.149287       0.000000
      7 H                     0.123778      -0.000000
      8 H                     0.143802       0.000000
      9 H                     0.149290      -0.000000
     10 H                     0.123778      -0.000000
     11 H                     0.143799      -0.000000
  --------------------------------------------------------
  Sum of atomic charges =     0.000000

                    Cartesian Multipole Moments
 -----------------------------------------------------------------
    Charge (ESU x 10^10)
                 0.0000
    Dipole Moment (Debye)
         X      -4.2304      Y       0.0011      Z       0.5794
       Tot       4.2699
    Quadrupole Moments (Debye-Ang)
        XX     -43.7252     XY       0.0017     YY     -37.4245
        XZ      -0.0352     YZ       0.0000     ZZ     -38.2568

 Final energy is   -2692.42194923344
 **  OPTIMIZATION CONVERGED  **
 Total job time:  23.01s(wall), 264.47s(cpu)
        *  Thank you very much for using Q-Chem.  Have a nice day.  *
