 Q-Chem 5.1, Q-Chem, Inc., Pleasanton, CA (2018)
 Q-Chem 5.1.1 for Intel X86 EM64T Linux

User input:
--------------------------------------------------------------

$comment
potential surface scanner
$end

$rem
JOBTYPE  PES_SCAN
UNRESTRICTED TRUE
SYM_IGNORE  TRUE
GEOM_OPT_MAX_CYCLES 400
SCF_MAX_CYCLES 400
METHOD   B3LYP
BASIS   6-31G**
PDB_PRINT 2
SCF_CONVERGENCE 6
THRESH 14
SCF_PRINT 1
$end
$molecule
0 3
Br 3.375735 0.000563 -0.062907
C -0.587049 -0.000080 0.481469
C -0.976146 -1.299387 -0.140822
C -0.974861 1.299583 -0.140877
H -0.277308 -0.000203 1.523927
H -0.421213 -2.140682 0.287528
H -2.049465 -1.523231 -0.002369
H -0.803767 -1.295636 -1.225114
H -0.418801 2.140293 0.287162
H -2.047868 1.524707 -0.002072
H -0.802859 1.295471 -1.225224
$end
$scan
stre 1 2 3.900000 3.901000 0.100000
$end
--------------------------------------------------------------

   10   -2692.3277745927      3.37e-07  Convergence criterion met
 Total energy in the final basis set =    -2692.3277745927
   10   -2692.3272251212      3.42e-07  Convergence criterion met
 Total energy in the final basis set =    -2692.3272251212
   10   -2692.3274974269      3.40e-07  Convergence criterion met
 Total energy in the final basis set =    -2692.3274974269
   10   -2692.3276119539      3.39e-07  Convergence criterion met
 Total energy in the final basis set =    -2692.3276119539
   10   -2692.3276243157      3.39e-07  Convergence criterion met
 Total energy in the final basis set =    -2692.3276243157
   10   -2692.3276393308      3.38e-07  Convergence criterion met
 Total energy in the final basis set =    -2692.3276393308
   10   -2692.3276430657      3.38e-07  Convergence criterion met
 Total energy in the final basis set =    -2692.3276430657
   10   -2692.3276515550      3.37e-07  Convergence criterion met
 Total energy in the final basis set =    -2692.3276515550
   10   -2692.3276548373      3.37e-07  Convergence criterion met
 Total energy in the final basis set =    -2692.3276548373
   10   -2692.3276561641      3.36e-07  Convergence criterion met
 Total energy in the final basis set =    -2692.3276561641

             Standard Nuclear Orientation (Angstroms)
    I     Atom           X                Y                Z
 ----------------------------------------------------------------
    1      Br      3.2624499716     0.0006694001    -0.1030995934
    2      C      -0.5915913050    -0.0000909104     0.4938662802
    3      C      -0.9630784242    -1.3000491615    -0.1373571550
    4      C      -0.9617316852     1.3002249909    -0.1374089431
    5      H      -0.2938745432    -0.0002202637     1.5396917955
    6      H      -0.4128729205    -2.1394504765     0.3007872926
    7      H      -2.0378205875    -1.5291629981    -0.0200879924
    8      H      -0.7697704968    -1.2941667004    -1.2181101115
    9      H      -0.4103934585     2.1390254808     0.3004647380
   10      H      -2.0361608008     1.5306446947    -0.0198288463
   11      H      -0.7687577499     1.2939739442    -1.2182164646
 ----------------------------------------------------------------

   10   -2692.3276566381      3.36e-07  Convergence criterion met
 Total energy in the final basis set =    -2692.3276566381

                    Orbital Energies (a.u.)
 --------------------------------------------------------------

 Alpha MOs
 -- Occupied --
******* -62.553 -56.378 -56.370 -56.370 -10.184 -10.175 -10.175
 -8.741  -6.577  -6.555  -6.555  -2.668  -2.663  -2.663  -2.646
 -2.646  -0.793  -0.775  -0.686  -0.565  -0.446  -0.423  -0.403
 -0.381  -0.368  -0.350  -0.343  -0.319  -0.319  -0.176

 Beta MOs
 -- Occupied --
******* -62.552 -56.372 -56.369 -56.369 -10.176 -10.176 -10.170
 -8.737  -6.567  -6.553  -6.553  -2.660  -2.657  -2.657  -2.645
 -2.645  -0.758  -0.750  -0.683  -0.544  -0.441  -0.406  -0.397
 -0.374  -0.346  -0.337  -0.305  -0.304

          Ground-State Mulliken Net Atomic Charges

     Atom                 Charge (a.u.)    Spin (a.u.)
  --------------------------------------------------------
      1 Br                   -0.003735       1.005360
      2 C                    -0.061852       1.012608
      3 C                    -0.334801      -0.079150
      4 C                    -0.334794      -0.079147
      5 H                     0.087277      -0.045726
      6 H                     0.107633       0.008448
      7 H                     0.108064       0.063944
      8 H                     0.108258       0.020639
      9 H                     0.107638       0.008460
     10 H                     0.108061       0.063943
     11 H                     0.108252       0.020621
  --------------------------------------------------------
  Sum of atomic charges =     0.000000

                    Cartesian Multipole Moments
 -----------------------------------------------------------------
    Charge (ESU x 10^10)
                -0.0000
    Dipole Moment (Debye)
         X      -0.2774      Y       0.0001      Z      -0.0066
       Tot       0.2774
    Quadrupole Moments (Debye-Ang)
        XX     -40.1151     XY       0.0003     YY     -36.4496
        XZ       0.2472     YZ      -0.0027     ZZ     -39.1900

 Final energy is   -2692.32765663809
 **  OPTIMIZATION CONVERGED  **
 Total job time:  39.05s(wall), 439.74s(cpu)
        *  Thank you very much for using Q-Chem.  Have a nice day.  *
