 Q-Chem 5.1, Q-Chem, Inc., Pleasanton, CA (2018)
 Q-Chem 5.1.1 for Intel X86 EM64T Linux

User input:
--------------------------------------------------------------

$comment
potential surface scanner
$end

$rem
JOBTYPE  PES_SCAN
UNRESTRICTED TRUE
SYM_IGNORE  TRUE
GEOM_OPT_MAX_CYCLES 400
SCF_MAX_CYCLES 400
METHOD   B3LYP
BASIS   6-31G**
PDB_PRINT 2
SCF_CONVERGENCE 6
THRESH 14
SCF_PRINT 1
$end
$molecule
0 1
Br 2.101499 -0.000544 -0.114460
C -0.340523 0.000080 0.420820
C -0.833191 -1.289072 -0.149991
C -0.832537 1.289470 -0.150014
H -0.160811 0.000047 1.492632
H -0.293278 -2.146868 0.252491
H -1.894726 -1.392011 0.128927
H -0.772244 -1.300350 -1.240524
H -0.292142 2.146988 0.252409
H -1.894000 1.392982 0.128961
H -0.771648 1.300677 -1.240551
$end
$scan
stre 1 2 2.600000 2.601000 0.100000
$end
--------------------------------------------------------------

   10   -2692.4152859977      3.54e-07  Convergence criterion met
 Total energy in the final basis set =    -2692.4152859977
   10   -2692.4084052029      3.40e-07  Convergence criterion met
 Total energy in the final basis set =    -2692.4084052029
   10   -2692.4083550448      3.41e-07  Convergence criterion met
 Total energy in the final basis set =    -2692.4083550448
   10   -2692.4084448842      3.45e-07  Convergence criterion met
 Total energy in the final basis set =    -2692.4084448842
   10   -2692.4084486203      3.45e-07  Convergence criterion met
 Total energy in the final basis set =    -2692.4084486203
   10   -2692.4084496935      3.44e-07  Convergence criterion met
 Total energy in the final basis set =    -2692.4084496935

             Standard Nuclear Orientation (Angstroms)
    I     Atom           X                Y                Z
 ----------------------------------------------------------------
    1      Br      2.1695724152    -0.0005536772    -0.1180786853
    2      C      -0.3725073709     0.0000861312     0.4276572551
    3      C      -0.8404557746    -1.2906009945    -0.1497457549
    4      C      -0.8397989613     1.2910005201    -0.1497696031
    5      H      -0.1631465059     0.0000451005     1.4937250632
    6      H      -0.2888618028    -2.1413967811     0.2513105659
    7      H      -1.9015457047    -1.4109423761     0.1273838262
    8      H      -0.7794624742    -1.2954620096    -1.2401986362
    9      H      -0.2877302541     2.1415123472     0.2512338484
   10      H      -1.9008103083     1.4119184557     0.1274074272
   11      H      -0.7788542585     1.2957922838    -1.2402253065
 ----------------------------------------------------------------

   10   -2692.4084499314      3.44e-07  Convergence criterion met
 Total energy in the final basis set =    -2692.4084499314

                    Orbital Energies (a.u.)
 --------------------------------------------------------------

 Alpha MOs
 -- Occupied --
******* -62.466 -56.286 -56.283 -56.283 -10.291 -10.216 -10.216
 -8.651  -6.479  -6.470  -6.470  -2.573  -2.570  -2.570  -2.563
 -2.563  -0.832  -0.730  -0.699  -0.608  -0.494  -0.465  -0.448
 -0.422  -0.394  -0.389  -0.277  -0.246  -0.245

 Beta MOs
 -- Occupied --
******* -62.466 -56.286 -56.283 -56.283 -10.291 -10.216 -10.216
 -8.651  -6.479  -6.470  -6.470  -2.573  -2.570  -2.570  -2.563
 -2.563  -0.832  -0.730  -0.699  -0.608  -0.494  -0.465  -0.448
 -0.422  -0.394  -0.389  -0.277  -0.246  -0.245

          Ground-State Mulliken Net Atomic Charges

     Atom                 Charge (a.u.)    Spin (a.u.)
  --------------------------------------------------------
      1 Br                   -0.383310      -0.000000
      2 C                    -0.014670      -0.000000
      3 C                    -0.327701      -0.000000
      4 C                    -0.327700       0.000000
      5 H                     0.170937      -0.000000
      6 H                     0.159420       0.000000
      7 H                     0.130464       0.000000
      8 H                     0.151339      -0.000000
      9 H                     0.159423      -0.000000
     10 H                     0.130464       0.000000
     11 H                     0.151336      -0.000000
  --------------------------------------------------------
  Sum of atomic charges =    -0.000000

                    Cartesian Multipole Moments
 -----------------------------------------------------------------
    Charge (ESU x 10^10)
                 0.0000
    Dipole Moment (Debye)
         X      -5.2448      Y       0.0013      Z       0.6700
       Tot       5.2874
    Quadrupole Moments (Debye-Ang)
        XX     -45.5890     XY       0.0022     YY     -37.0251
        XZ       0.1010     YZ      -0.0000     ZZ     -38.1874

 Final energy is   -2692.40844993145
 **  OPTIMIZATION CONVERGED  **
 Total job time:  26.65s(wall), 306.92s(cpu)
        *  Thank you very much for using Q-Chem.  Have a nice day.  *
