 Q-Chem 5.1, Q-Chem, Inc., Pleasanton, CA (2018)
 Q-Chem 5.1.1 for Intel X86 EM64T Linux

User input:
--------------------------------------------------------------

$comment
potential surface scanner
$end

$rem
JOBTYPE  PES_SCAN
UNRESTRICTED TRUE
SYM_IGNORE  TRUE
GEOM_OPT_MAX_CYCLES 400
SCF_MAX_CYCLES 400
METHOD   B3LYP
BASIS   6-31G**
PDB_PRINT 2
SCF_CONVERGENCE 6
THRESH 14
SCF_PRINT 1
$end
$molecule
0 3
Br 1.932777 -0.001813 0.746198
C -0.192056 0.000417 0.176039
C -0.849413 -1.292726 -0.199929
C -0.837465 1.291566 -0.226660
H 0.079572 0.010423 1.279031
H -0.222064 -2.153491 0.055332
H -1.831340 -1.440050 0.281065
H -1.027743 -1.309693 -1.283050
H -0.200236 2.151146 0.007216
H -1.815844 1.459466 0.254664
H -1.019794 1.286154 -1.309203
$end
$scan
stre 1 2 2.100000 2.101000 0.100000
$end
--------------------------------------------------------------

   10   -2692.2787223198      5.08e-07  Convergence criterion met
 Total energy in the final basis set =    -2692.2787223198
   10   -2692.2624729109      5.52e-07  Convergence criterion met
 Total energy in the final basis set =    -2692.2624729109
   10   -2692.2621952521      5.65e-07  Convergence criterion met
 Total energy in the final basis set =    -2692.2621952521
   10   -2692.2623794766      5.87e-07  Convergence criterion met
 Total energy in the final basis set =    -2692.2623794766
   10   -2692.2624251527      5.96e-07  Convergence criterion met
 Total energy in the final basis set =    -2692.2624251527
   10   -2692.2624560643      6.08e-07  Convergence criterion met
 Total energy in the final basis set =    -2692.2624560643
   10   -2692.2624641605      6.16e-07  Convergence criterion met
 Total energy in the final basis set =    -2692.2624641605
   10   -2692.2624700511      6.26e-07  Convergence criterion met
 Total energy in the final basis set =    -2692.2624700511
   10   -2692.2624760022      6.40e-07  Convergence criterion met
 Total energy in the final basis set =    -2692.2624760022
   10   -2692.2624794829      6.53e-07  Convergence criterion met
 Total energy in the final basis set =    -2692.2624794829

             Standard Nuclear Orientation (Angstroms)
    I     Atom           X                Y                Z
 ----------------------------------------------------------------
    1      Br      1.8892415129    -0.0078673158     0.6380655146
    2      C      -0.1639739768     0.0010316653     0.1973516634
    3      C      -0.8367587994    -1.2870634338    -0.1907876380
    4      C      -0.8259110002     1.2865614696    -0.2178555401
    5      H       0.0054748511     0.0139845240     1.3240547729
    6      H      -0.2218581713    -2.1564508931     0.0690255692
    7      H      -1.8271244294    -1.4281996924     0.2736641780
    8      H      -0.9973591062    -1.2976547191    -1.2768668888
    9      H      -0.2028127343     2.1557004250     0.0224723370
   10      H      -1.8140888261     1.4462083704     0.2452015059
   11      H      -0.9884353204     1.2751486000    -1.3036224741
 ----------------------------------------------------------------

   10   -2692.2624803288      6.57e-07  Convergence criterion met
 Total energy in the final basis set =    -2692.2624803288

                    Orbital Energies (a.u.)
 --------------------------------------------------------------

 Alpha MOs
 -- Occupied --
******* -62.523 -56.345 -56.341 -56.339 -10.210 -10.188 -10.188
 -8.711  -6.543  -6.530  -6.526  -2.636  -2.633  -2.630  -2.620
 -2.620  -0.833  -0.761  -0.698  -0.596  -0.473  -0.447  -0.424
 -0.394  -0.386  -0.361  -0.336  -0.297  -0.291  -0.123

 Beta MOs
 -- Occupied --
******* -62.521 -56.340 -56.338 -56.338 -10.193 -10.189 -10.188
 -8.707  -6.534  -6.526  -6.524  -2.629  -2.627  -2.625  -2.618
 -2.618  -0.802  -0.733  -0.695  -0.565  -0.457  -0.428  -0.416
 -0.388  -0.364  -0.355  -0.302  -0.282

          Ground-State Mulliken Net Atomic Charges

     Atom                 Charge (a.u.)    Spin (a.u.)
  --------------------------------------------------------
      1 Br                   -0.042337       0.995404
      2 C                    -0.166593       0.834990
      3 C                    -0.318174      -0.031983
      4 C                    -0.318305      -0.031576
      5 H                     0.141002       0.070391
      6 H                     0.118889       0.012226
      7 H                     0.109123       0.045747
      8 H                     0.124183       0.023335
      9 H                     0.118867       0.012232
     10 H                     0.109156       0.045825
     11 H                     0.124189       0.023408
  --------------------------------------------------------
  Sum of atomic charges =     0.000000

                    Cartesian Multipole Moments
 -----------------------------------------------------------------
    Charge (ESU x 10^10)
                -0.0000
    Dipole Moment (Debye)
         X      -1.9507      Y       0.0087      Z      -0.3322
       Tot       1.9788
    Quadrupole Moments (Debye-Ang)
        XX     -42.3006     XY       0.0032     YY     -38.9256
        XZ      -1.9252     YZ       0.0253     ZZ     -38.1238

 Final energy is   -2692.26248032883
 **  OPTIMIZATION CONVERGED  **
 Total job time:  42.78s(wall), 492.97s(cpu)
        *  Thank you very much for using Q-Chem.  Have a nice day.  *
