 Q-Chem 5.1, Q-Chem, Inc., Pleasanton, CA (2018)
 Q-Chem 5.1.1 for Intel X86 EM64T Linux

User input:
--------------------------------------------------------------

$comment
potential surface scanner
$end

$rem
JOBTYPE  PES_SCAN
UNRESTRICTED TRUE
SYM_IGNORE  TRUE
GEOM_OPT_MAX_CYCLES 400
SCF_MAX_CYCLES 400
METHOD   B3LYP
BASIS   6-31G**
PDB_PRINT 2
SCF_CONVERGENCE 6
THRESH 14
SCF_PRINT 1
$end
$molecule
0 3
Br 2.482809 0.002204 -0.243997
C -0.520674 -0.000133 0.523524
C -0.876204 -1.297304 -0.124926
C -0.874874 1.297106 -0.125373
H -0.310072 -0.000056 1.590314
H -0.386408 -2.147576 0.362018
H -1.962523 -1.496100 -0.093593
H -0.595420 -1.306601 -1.186815
H -0.386346 2.147443 0.362720
H -1.961318 1.495859 -0.096235
H -0.592574 1.306557 -1.186933
$end
$scan
stre 1 2 3.000000 3.001000 0.100000
$end
--------------------------------------------------------------

   10   -2692.3226673405      7.21e-07  Convergence criterion met
 Total energy in the final basis set =    -2692.3226673405
   16   -2692.3207465723      9.21e-07  Convergence criterion met
 Total energy in the final basis set =    -2692.3207465723
   16   -2692.3208351257      8.88e-07  Convergence criterion met
 Total energy in the final basis set =    -2692.3208351257
   16   -2692.3208538544      7.39e-07  Convergence criterion met
 Total energy in the final basis set =    -2692.3208538544
   16   -2692.3208555924      7.21e-07  Convergence criterion met
 Total energy in the final basis set =    -2692.3208555924
   13   -2692.3208614864      9.89e-07  Convergence criterion met
 Total energy in the final basis set =    -2692.3208614864
   14   -2692.3208597025      9.20e-07  Convergence criterion met
 Total energy in the final basis set =    -2692.3208597025
   14   -2692.3208611050      9.48e-07  Convergence criterion met
 Total energy in the final basis set =    -2692.3208611050

             Standard Nuclear Orientation (Angstroms)
    I     Atom           X                Y                Z
 ----------------------------------------------------------------
    1      Br      2.3917017117     0.0023602865    -0.2548622611
    2      C      -0.5051333896    -0.0001722636     0.5251001641
    3      C      -0.8659220423    -1.2962517827    -0.1240159609
    4      C      -0.8645398573     1.2960210677    -0.1244281363
    5      H      -0.3087084869    -0.0000268002     1.5947514770
    6      H      -0.3861495609    -2.1498734622     0.3672288406
    7      H      -1.9538306002    -1.4867434586    -0.1001251686
    8      H      -0.5777182037    -1.3089519745    -1.1839795412
    9      H      -0.3858690765     2.1496057817     0.3679479604
   10      H      -1.9525219010     1.4865374872    -0.1027794906
   11      H      -0.5749125932     1.3088941186    -1.1841338833
 ----------------------------------------------------------------

   15   -2692.3208606453      9.33e-07  Convergence criterion met
 Total energy in the final basis set =    -2692.3208606453

                    Orbital Energies (a.u.)
 --------------------------------------------------------------

 Alpha MOs
 -- Occupied --
******* -62.550 -56.374 -56.367 -56.367 -10.181 -10.175 -10.175
 -8.737  -6.574  -6.552  -6.552  -2.665  -2.659  -2.659  -2.643
 -2.643  -0.794  -0.773  -0.685  -0.565  -0.446  -0.426  -0.403
 -0.383  -0.363  -0.349  -0.342  -0.318  -0.316  -0.170

 Beta MOs
 -- Occupied --
******* -62.548 -56.369 -56.366 -56.365 -10.176 -10.176 -10.167
 -8.733  -6.563  -6.550  -6.550  -2.657  -2.653  -2.653  -2.642
 -2.642  -0.761  -0.744  -0.683  -0.544  -0.441  -0.409  -0.397
 -0.375  -0.345  -0.337  -0.303  -0.299

          Ground-State Mulliken Net Atomic Charges

     Atom                 Charge (a.u.)    Spin (a.u.)
  --------------------------------------------------------
      1 Br                    0.007389       1.019603
      2 C                    -0.070928       0.996590
      3 C                    -0.331226      -0.074804
      4 C                    -0.331794      -0.074724
      5 H                     0.087466      -0.043788
      6 H                     0.103857       0.007104
      7 H                     0.107488       0.059259
      8 H                     0.108169       0.022125
      9 H                     0.104398       0.007061
     10 H                     0.107735       0.059335
     11 H                     0.107446       0.022239
  --------------------------------------------------------
  Sum of atomic charges =     0.000000

                    Cartesian Multipole Moments
 -----------------------------------------------------------------
    Charge (ESU x 10^10)
                -0.0000
    Dipole Moment (Debye)
         X      -0.3385      Y       0.0006      Z       0.0137
       Tot       0.3388
    Quadrupole Moments (Debye-Ang)
        XX     -40.5435     XY      -0.0402     YY     -36.6388
        XZ       0.3012     YZ      -0.1424     ZZ     -39.2383

 Final energy is   -2692.32086064527
 **  OPTIMIZATION CONVERGED  **
 Total job time:  51.46s(wall), 546.01s(cpu)
        *  Thank you very much for using Q-Chem.  Have a nice day.  *
