 Q-Chem 5.1, Q-Chem, Inc., Pleasanton, CA (2018)
 Q-Chem 5.1.1 for Intel X86 EM64T Linux

User input:
--------------------------------------------------------------

$comment
potential surface scanner
$end

$rem
JOBTYPE  PES_SCAN
UNRESTRICTED TRUE
SYM_IGNORE  TRUE
GEOM_OPT_MAX_CYCLES 400
SCF_MAX_CYCLES 400
METHOD   B3LYP
BASIS   6-31G**
PDB_PRINT 2
SCF_CONVERGENCE 6
THRESH 14
SCF_PRINT 1
$end
$molecule
0 3
Br 4.803822 -0.001161 0.640061
C -0.583221 0.000177 0.266210
C -1.162006 -1.298554 -0.186349
C -1.161509 1.299089 -0.186465
H 0.100161 0.000089 1.111561
H -0.505527 -2.143627 0.044207
H -2.135097 -1.509573 0.292437
H -1.350750 -1.299874 -1.268588
H -0.504628 2.143909 0.043872
H -2.134439 1.510597 0.292433
H -1.350405 1.300327 -1.268677
$end
$scan
stre 1 2 5.300000 5.301000 0.100000
$end
--------------------------------------------------------------

   10   -2692.3279663215      3.39e-07  Convergence criterion met
 Total energy in the final basis set =    -2692.3279663215
   10   -2692.3277351287      3.59e-07  Convergence criterion met
 Total energy in the final basis set =    -2692.3277351287
   10   -2692.3278981722      3.47e-07  Convergence criterion met
 Total energy in the final basis set =    -2692.3278981722
   10   -2692.3279493970      3.39e-07  Convergence criterion met
 Total energy in the final basis set =    -2692.3279493970

             Standard Nuclear Orientation (Angstroms)
    I     Atom           X                Y                Z
 ----------------------------------------------------------------
    1      Br      4.7053367656    -0.0011457255     0.5618125241
    2      C      -0.5878929442     0.0001799804     0.2940069756
    3      C      -1.1478260700    -1.2985026021    -0.1819610463
    4      C      -1.1473317522     1.2990317696    -0.1820803993
    5      H       0.0585106108     0.0001027600     1.1680428760
    6      H      -0.5016735143    -2.1437719085     0.0755717809
    7      H      -2.1399120477    -1.5091002212     0.2561903992
    8      H      -1.2915596360    -1.2998461467    -1.2710999692
    9      H      -0.5007767801     2.1440571225     0.0752438950
   10      H      -2.1392677750     1.5101174052     0.2561747191
   11      H      -1.2912058569     1.3002765662    -1.2711997553
 ----------------------------------------------------------------

   10   -2692.3279497684      3.39e-07  Convergence criterion met
 Total energy in the final basis set =    -2692.3279497684

                    Orbital Energies (a.u.)
 --------------------------------------------------------------

 Alpha MOs
 -- Occupied --
******* -62.557 -56.381 -56.374 -56.374 -10.184 -10.175 -10.175
 -8.744  -6.581  -6.558  -6.558  -2.672  -2.666  -2.666  -2.650
 -2.650  -0.797  -0.775  -0.685  -0.565  -0.446  -0.423  -0.403
 -0.380  -0.371  -0.349  -0.343  -0.322  -0.322  -0.177

 Beta MOs
 -- Occupied --
******* -62.555 -56.376 -56.373 -56.373 -10.176 -10.176 -10.170
 -8.740  -6.570  -6.557  -6.557  -2.664  -2.660  -2.660  -2.649
 -2.649  -0.758  -0.753  -0.683  -0.544  -0.441  -0.406  -0.397
 -0.374  -0.346  -0.338  -0.308  -0.308

          Ground-State Mulliken Net Atomic Charges

     Atom                 Charge (a.u.)    Spin (a.u.)
  --------------------------------------------------------
      1 Br                   -0.000053       1.000125
      2 C                    -0.071181       1.019411
      3 C                    -0.333343      -0.079983
      4 C                    -0.333345      -0.079982
      5 H                     0.088937      -0.046524
      6 H                     0.108472       0.007103
      7 H                     0.108670       0.062990
      8 H                     0.107344       0.023385
      9 H                     0.108490       0.007107
     10 H                     0.108668       0.062990
     11 H                     0.107341       0.023377
  --------------------------------------------------------
  Sum of atomic charges =     0.000000

                    Cartesian Multipole Moments
 -----------------------------------------------------------------
    Charge (ESU x 10^10)
                 0.0000
    Dipole Moment (Debye)
         X      -0.1920      Y       0.0002      Z       0.0470
       Tot       0.1977
    Quadrupole Moments (Debye-Ang)
        XX     -39.5750     XY       0.0099     YY     -36.4062
        XZ       0.4306     YZ       0.0026     ZZ     -39.4718

 Final energy is   -2692.32794976842
 **  OPTIMIZATION CONVERGED  **
 Total job time:  16.49s(wall), 187.49s(cpu)
        *  Thank you very much for using Q-Chem.  Have a nice day.  *
