 Q-Chem 5.1, Q-Chem, Inc., Pleasanton, CA (2018)
 Q-Chem 5.1.1 for Intel X86 EM64T Linux

User input:
--------------------------------------------------------------

$comment
potential surface scanner
$end

$rem
JOBTYPE  PES_SCAN
UNRESTRICTED TRUE
SYM_IGNORE  TRUE
GEOM_OPT_MAX_CYCLES 400
SCF_MAX_CYCLES 400
METHOD   B3LYP
BASIS   6-31G**
PDB_PRINT 2
SCF_CONVERGENCE 6
THRESH 14
SCF_PRINT 1
$end
$molecule
0 3
Br 4.992444 -0.001293 0.791333
C -0.577451 0.000194 0.211444
C -1.188984 -1.298887 -0.194017
C -1.188545 1.299447 -0.194130
H 0.175656 0.000111 0.995160
H -0.514876 -2.143004 -0.017079
H -2.120643 -1.512465 0.360427
H -1.463687 -1.300177 -1.257684
H -0.514081 2.143327 -0.017415
H -2.120038 1.513465 0.360420
H -1.463394 1.300681 -1.257758
$end
$scan
stre 1 2 5.500000 5.501000 0.100000
$end
--------------------------------------------------------------

   10   -2692.3280171584      3.38e-07  Convergence criterion met
 Total energy in the final basis set =    -2692.3280171584
   10   -2692.3276503612      3.66e-07  Convergence criterion met
 Total energy in the final basis set =    -2692.3276503612
   10   -2692.3279087018      3.49e-07  Convergence criterion met
 Total energy in the final basis set =    -2692.3279087018
   10   -2692.3279878155      3.39e-07  Convergence criterion met
 Total energy in the final basis set =    -2692.3279878155

             Standard Nuclear Orientation (Angstroms)
    I     Atom           X                Y                Z
 ----------------------------------------------------------------
    1      Br      4.8993963713    -0.0011921145     0.7169386025
    2      C      -0.5797574460     0.0001777191     0.2385295604
    3      C      -1.1757335689    -1.2987047925    -0.1903903379
    4      C      -1.1752447029     1.2992474274    -0.1905038823
    5      H       0.1393797013     0.0000841238     1.0535981539
    6      H      -0.5098136567    -2.1433354247     0.0130821349
    7      H      -2.1284771345    -1.5108786392     0.3274088771
    8      H      -1.4084670347    -1.2999806917    -1.2640179956
    9      H      -0.5089319244     2.1436221238     0.0127451950
   10      H      -2.1278194879     1.5119006499     0.3274077145
   11      H      -1.4081301164     1.3004586185    -1.2640970224
 ----------------------------------------------------------------

   10   -2692.3279886219      3.38e-07  Convergence criterion met
 Total energy in the final basis set =    -2692.3279886219

                    Orbital Energies (a.u.)
 --------------------------------------------------------------

 Alpha MOs
 -- Occupied --
******* -62.557 -56.381 -56.374 -56.374 -10.184 -10.175 -10.175
 -8.744  -6.581  -6.559  -6.559  -2.672  -2.666  -2.666  -2.650
 -2.650  -0.797  -0.775  -0.685  -0.565  -0.446  -0.423  -0.403
 -0.380  -0.371  -0.350  -0.343  -0.323  -0.322  -0.177

 Beta MOs
 -- Occupied --
******* -62.556 -56.376 -56.373 -56.373 -10.176 -10.176 -10.170
 -8.740  -6.570  -6.557  -6.557  -2.664  -2.660  -2.660  -2.649
 -2.649  -0.758  -0.753  -0.683  -0.544  -0.441  -0.406  -0.397
 -0.374  -0.346  -0.338  -0.309  -0.308

          Ground-State Mulliken Net Atomic Charges

     Atom                 Charge (a.u.)    Spin (a.u.)
  --------------------------------------------------------
      1 Br                    0.000017       1.000049
      2 C                    -0.071671       1.019471
      3 C                    -0.333286      -0.080132
      4 C                    -0.333287      -0.080131
      5 H                     0.089154      -0.046588
      6 H                     0.108531       0.007105
      7 H                     0.108719       0.063003
      8 H                     0.107281       0.023559
      9 H                     0.108548       0.007110
     10 H                     0.108716       0.063003
     11 H                     0.107278       0.023550
  --------------------------------------------------------
  Sum of atomic charges =     0.000000

                    Cartesian Multipole Moments
 -----------------------------------------------------------------
    Charge (ESU x 10^10)
                -0.0000
    Dipole Moment (Debye)
         X      -0.1808      Y       0.0002      Z       0.0613
       Tot       0.1909
    Quadrupole Moments (Debye-Ang)
        XX     -39.4668     XY       0.0099     YY     -36.4026
        XZ       0.4515     YZ       0.0087     ZZ     -39.5675

 Final energy is   -2692.32798862189
 **  OPTIMIZATION CONVERGED  **
 Total job time:  16.98s(wall), 188.11s(cpu)
        *  Thank you very much for using Q-Chem.  Have a nice day.  *
