 Q-Chem 5.1, Q-Chem, Inc., Pleasanton, CA (2018)
 Q-Chem 5.1.1 for Intel X86 EM64T Linux

User input:
--------------------------------------------------------------

$comment
potential surface scanner
$end

$rem
JOBTYPE  PES_SCAN
UNRESTRICTED TRUE
SYM_IGNORE  TRUE
GEOM_OPT_MAX_CYCLES 400
SCF_MAX_CYCLES 400
METHOD   B3LYP
BASIS   6-31G**
PDB_PRINT 2
SCF_CONVERGENCE 6
THRESH 14
SCF_PRINT 1
$end
$molecule
0 3
Br 4.705337 -0.001146 0.561813
C -0.587893 0.000180 0.294007
C -1.147826 -1.298503 -0.181961
C -1.147332 1.299032 -0.182080
H 0.058511 0.000103 1.168043
H -0.501674 -2.143772 0.075572
H -2.139912 -1.509100 0.256190
H -1.291560 -1.299846 -1.271100
H -0.500777 2.144057 0.075244
H -2.139268 1.510117 0.256175
H -1.291206 1.300277 -1.271200
$end
$scan
stre 1 2 5.200000 5.201000 0.100000
$end
--------------------------------------------------------------

   10   -2692.3279497684      3.39e-07  Convergence criterion met
 Total energy in the final basis set =    -2692.3279497684
   10   -2692.3277655747      3.55e-07  Convergence criterion met
 Total energy in the final basis set =    -2692.3277655747
   10   -2692.3278929252      3.46e-07  Convergence criterion met
 Total energy in the final basis set =    -2692.3278929252
   10   -2692.3279330434      3.39e-07  Convergence criterion met
 Total energy in the final basis set =    -2692.3279330434

             Standard Nuclear Orientation (Angstroms)
    I     Atom           X                Y                Z
 ----------------------------------------------------------------
    1      Br      4.6040535316    -0.0010984736     0.4848482502
    2      C      -0.5933601072     0.0001763268     0.3208614172
    3      C      -1.1333506838    -1.2985816695    -0.1774261775
    4      C      -1.1328395335     1.2990994701    -0.1775483076
    5      H       0.0159892949     0.0001055567     1.2212120183
    6      H      -0.4977509219    -2.1436866473     0.1057740502
    7      H      -2.1422010611    -1.5098170453     0.2202962923
    8      H      -1.2330741672    -1.2998091741    -1.2714636086
    9      H      -0.4968283418     2.1439603878     0.1054575825
   10      H      -2.1415491769     1.5108345150     0.2202650420
   11      H      -1.2326888330     1.3002157534    -1.2715735589
 ----------------------------------------------------------------

   10   -2692.3279335743      3.39e-07  Convergence criterion met
 Total energy in the final basis set =    -2692.3279335743

                    Orbital Energies (a.u.)
 --------------------------------------------------------------

 Alpha MOs
 -- Occupied --
******* -62.557 -56.381 -56.373 -56.373 -10.184 -10.175 -10.175
 -8.744  -6.581  -6.558  -6.558  -2.671  -2.666  -2.666  -2.649
 -2.649  -0.796  -0.775  -0.685  -0.565  -0.446  -0.423  -0.403
 -0.380  -0.371  -0.349  -0.343  -0.322  -0.322  -0.177

 Beta MOs
 -- Occupied --
******* -62.555 -56.375 -56.372 -56.372 -10.176 -10.176 -10.170
 -8.740  -6.570  -6.557  -6.557  -2.664  -2.660  -2.660  -2.648
 -2.648  -0.758  -0.753  -0.683  -0.544  -0.441  -0.406  -0.397
 -0.374  -0.346  -0.338  -0.308  -0.308

          Ground-State Mulliken Net Atomic Charges

     Atom                 Charge (a.u.)    Spin (a.u.)
  --------------------------------------------------------
      1 Br                   -0.000112       1.000192
      2 C                    -0.070825       1.019310
      3 C                    -0.333400      -0.079958
      4 C                    -0.333402      -0.079958
      5 H                     0.088808      -0.046509
      6 H                     0.108446       0.007134
      7 H                     0.108647       0.063020
      8 H                     0.107367       0.023309
      9 H                     0.108464       0.007138
     10 H                     0.108645       0.063020
     11 H                     0.107364       0.023302
  --------------------------------------------------------
  Sum of atomic charges =    -0.000000

                    Cartesian Multipole Moments
 -----------------------------------------------------------------
    Charge (ESU x 10^10)
                -0.0000
    Dipole Moment (Debye)
         X      -0.1967      Y       0.0002      Z       0.0389
       Tot       0.2006
    Quadrupole Moments (Debye-Ang)
        XX     -39.6291     XY       0.0095     YY     -36.4069
        XZ       0.4164     YZ       0.0008     ZZ     -39.4290

 Final energy is   -2692.32793357430
 **  OPTIMIZATION CONVERGED  **
 Total job time:  16.55s(wall), 188.78s(cpu)
        *  Thank you very much for using Q-Chem.  Have a nice day.  *
