 Q-Chem 5.1, Q-Chem, Inc., Pleasanton, CA (2018)
 Q-Chem 5.1.1 for Intel X86 EM64T Linux

User input:
--------------------------------------------------------------

$comment
potential surface scanner
$end

$rem
JOBTYPE  PES_SCAN
UNRESTRICTED TRUE
SYM_IGNORE  TRUE
GEOM_OPT_MAX_CYCLES 400
SCF_MAX_CYCLES 400
METHOD   B3LYP
BASIS   6-31G**
PDB_PRINT 2
SCF_CONVERGENCE 6
THRESH 14
SCF_PRINT 1
$end
$molecule
0 1
Br 1.744600 -0.000400 -0.101000
C -0.148200 0.000100 0.395200
C -0.798600 -1.260800 -0.147100
C -0.797900 1.261200 -0.147100
H -0.168300 0.000100 1.489400
H -0.311900 -2.158700 0.249400
H -1.855400 -1.302200 0.136700
H -0.741600 -1.308000 -1.240400
H -0.310700 2.158800 0.249400
H -1.854800 1.303000 0.136600
H -0.740800 1.308300 -1.240400
$end
$scan
stre 1 2 1.300000 1.301000 0.100000
$end
--------------------------------------------------------------

    9   -2692.4381940224      5.80e-07  Convergence criterion met
 Total energy in the final basis set =    -2692.4381940224
    9   -2692.4252909852      5.91e-07  Convergence criterion met
 Total energy in the final basis set =    -2692.4252909852
    9   -2692.3858476832      5.92e-07  Convergence criterion met
 Total energy in the final basis set =    -2692.3858476832
    9   -2692.3143334345      6.06e-07  Convergence criterion met
 Total energy in the final basis set =    -2692.3143334345
    9   -2692.2100183684      6.56e-07  Convergence criterion met
 Total energy in the final basis set =    -2692.2100183684
    9   -2692.0501613939      7.41e-07  Convergence criterion met
 Total energy in the final basis set =    -2692.0501613939
    9   -2692.0093510589      7.71e-07  Convergence criterion met
 Total energy in the final basis set =    -2692.0093510589
    9   -2692.0065000397      7.82e-07  Convergence criterion met
    9   -2692.0072511748      8.27e-07  Convergence criterion met
 Total energy in the final basis set =    -2692.0072511748
    9   -2692.0072564086      8.28e-07  Convergence criterion met
 Total energy in the final basis set =    -2692.0072564086
    9   -2692.0072613073      8.28e-07  Convergence criterion met
 Total energy in the final basis set =    -2692.0072613073
    9   -2692.0072642256      8.27e-07  Convergence criterion met
 Total energy in the final basis set =    -2692.0072642256
    9   -2692.0072656996      8.26e-07  Convergence criterion met
 Total energy in the final basis set =    -2692.0072656996
    9   -2692.0072667001      8.26e-07  Convergence criterion met
 Total energy in the final basis set =    -2692.0072667001

             Standard Nuclear Orientation (Angstroms)
    I     Atom           X                Y                Z
 ----------------------------------------------------------------
    1      Br      1.3840076911    -0.0003744890     0.0362148177
    2      C       0.1157794216    -0.0000376456     0.3218668106
    3      C      -0.7696705801    -1.2497124465    -0.1565656868
    4      C      -0.7690313444     1.2500820911    -0.1565890162
    5      H      -0.1929819905     0.0000553428     1.4020431470
    6      H      -0.3237501634    -2.1705631622     0.2357530909
    7      H      -1.8055249131    -1.1786818019     0.1835343526
    8      H      -0.7477644803    -1.3014712760    -1.2523821225
    9      H      -0.3226248715     2.1707140812     0.2356904774
   10      H      -1.8049112226     1.1795953705     0.1835415319
   11      H      -0.7471275469     1.3017939356    -1.2524074027
 ----------------------------------------------------------------

    9   -2692.0072673200      8.27e-07  Convergence criterion met
 Total energy in the final basis set =    -2692.0072673200

                    Orbital Energies (a.u.)
 --------------------------------------------------------------

 Alpha MOs
 -- Occupied --
******* -62.524 -56.342 -56.340 -56.340 -10.229 -10.182 -10.182
 -8.725  -6.559  -6.542  -6.541  -2.659  -2.647  -2.647  -2.634
 -2.634  -1.001  -0.732  -0.692  -0.572  -0.506  -0.473  -0.448
 -0.400  -0.390  -0.382  -0.361  -0.235  -0.235

 Beta MOs
 -- Occupied --
******* -62.524 -56.342 -56.340 -56.340 -10.229 -10.182 -10.182
 -8.725  -6.559  -6.542  -6.541  -2.659  -2.647  -2.647  -2.634
 -2.634  -1.001  -0.732  -0.692  -0.572  -0.506  -0.473  -0.448
 -0.400  -0.390  -0.382  -0.361  -0.235  -0.235

          Ground-State Mulliken Net Atomic Charges

     Atom                 Charge (a.u.)    Spin (a.u.)
  --------------------------------------------------------
      1 Br                    0.075046       0.000000
      2 C                    -0.124195      -0.000000
      3 C                    -0.339880       0.000000
      4 C                    -0.339878       0.000000
      5 H                     0.084266       0.000000
      6 H                     0.107496       0.000000
      7 H                     0.104422       0.000000
      8 H                     0.110403      -0.000000
      9 H                     0.107495       0.000000
     10 H                     0.104422       0.000000
     11 H                     0.110403      -0.000000
  --------------------------------------------------------
  Sum of atomic charges =     0.000000

                    Cartesian Multipole Moments
 -----------------------------------------------------------------
    Charge (ESU x 10^10)
                 0.0000
    Dipole Moment (Debye)
         X      -1.1505      Y       0.0003      Z       0.3286
       Tot       1.1965
    Quadrupole Moments (Debye-Ang)
        XX     -39.8380     XY       0.0004     YY     -38.4881
        XZ       0.0241     YZ      -0.0000     ZZ     -38.1648

 Final energy is   -2692.00726732002
 **  OPTIMIZATION CONVERGED  **
 Total job time:  95.46s(wall), 1065.26s(cpu)
        *  Thank you very much for using Q-Chem.  Have a nice day.  *
