 Q-Chem 5.1, Q-Chem, Inc., Pleasanton, CA (2018)
 Q-Chem 5.1.1 for Intel X86 EM64T Linux

User input:
--------------------------------------------------------------

$comment
potential surface scanner
$end

$rem
JOBTYPE  PES_SCAN
UNRESTRICTED TRUE
SYM_IGNORE  TRUE
GEOM_OPT_MAX_CYCLES 400
SCF_MAX_CYCLES 400
METHOD   B3LYP
BASIS   6-31G**
PDB_PRINT 2
SCF_CONVERGENCE 6
THRESH 14
SCF_PRINT 1
$end
$molecule
0 3
Br 2.560998 0.006637 -0.251046
C -0.542608 -0.000737 0.528426
C -0.882998 -1.299015 -0.124975
C -0.879879 1.297977 -0.125738
H -0.345695 -0.000604 1.597817
H -0.374983 -2.143833 0.352906
H -1.965509 -1.516704 -0.084031
H -0.611926 -1.297481 -1.189057
H -0.373548 2.142442 0.354529
H -1.962481 1.516022 -0.089192
H -0.604975 1.296695 -1.188936
$end
$scan
stre 1 2 3.100000 3.101000 0.100000
$end
--------------------------------------------------------------

   13   -2692.3240626597      1.00e-06  Convergence criterion met
 Total energy in the final basis set =    -2692.3240626597
   17   -2692.3225199260      7.98e-07  Convergence criterion met
 Total energy in the final basis set =    -2692.3225199260
   17   -2692.3226153720      7.86e-07  Convergence criterion met
 Total energy in the final basis set =    -2692.3226153720
   17   -2692.3226381519      7.23e-07  Convergence criterion met
 Total energy in the final basis set =    -2692.3226381519
   17   -2692.3226405609      6.76e-07  Convergence criterion met
 Total energy in the final basis set =    -2692.3226405609
   15   -2692.3226514345      9.13e-07  Convergence criterion met
 Total energy in the final basis set =    -2692.3226514345
   10   -2692.3226586205      9.58e-07  Convergence criterion met
 Total energy in the final basis set =    -2692.3226586205
   10   -2692.3226644083      7.36e-07  Convergence criterion met
 Total energy in the final basis set =    -2692.3226644083
   10   -2692.3226664637      6.63e-07  Convergence criterion met
 Total energy in the final basis set =    -2692.3226664637

             Standard Nuclear Orientation (Angstroms)
    I     Atom           X                Y                Z
 ----------------------------------------------------------------
    1      Br      2.4828085761     0.0022039678    -0.2439973161
    2      C      -0.5206738258    -0.0001329166     0.5235243045
    3      C      -0.8762040623    -1.2973043155    -0.1249262961
    4      C      -0.8748739518     1.2971062230    -0.1253728105
    5      H      -0.3100720347    -0.0000564022     1.5903137746
    6      H      -0.3864084795    -2.1475762805     0.3620181420
    7      H      -1.9625225329    -1.4960996360    -0.0935934506
    8      H      -0.5954199319    -1.3066013890    -1.1868154986
    9      H      -0.3863459090     2.1474433348     0.3627204297
   10      H      -1.9613175837     1.4958591047    -0.0962352467
   11      H      -0.5925742645     1.3065573094    -1.1869330323
 ----------------------------------------------------------------

   10   -2692.3226673338      7.21e-07  Convergence criterion met
 Total energy in the final basis set =    -2692.3226673338

                    Orbital Energies (a.u.)
 --------------------------------------------------------------

 Alpha MOs
 -- Occupied --
******* -62.550 -56.375 -56.367 -56.367 -10.182 -10.175 -10.175
 -8.738  -6.574  -6.552  -6.552  -2.665  -2.660  -2.660  -2.643
 -2.643  -0.793  -0.774  -0.685  -0.565  -0.446  -0.425  -0.403
 -0.382  -0.364  -0.349  -0.342  -0.318  -0.316  -0.172

 Beta MOs
 -- Occupied --
******* -62.549 -56.369 -56.366 -56.366 -10.176 -10.176 -10.168
 -8.734  -6.563  -6.550  -6.550  -2.657  -2.654  -2.653  -2.642
 -2.642  -0.760  -0.745  -0.683  -0.544  -0.441  -0.408  -0.397
 -0.375  -0.345  -0.337  -0.303  -0.300

          Ground-State Mulliken Net Atomic Charges

     Atom                 Charge (a.u.)    Spin (a.u.)
  --------------------------------------------------------
      1 Br                    0.003639       1.016170
      2 C                    -0.066565       1.000811
      3 C                    -0.331969      -0.076175
      4 C                    -0.332792      -0.076058
      5 H                     0.087276      -0.044325
      6 H                     0.104477       0.007358
      7 H                     0.107332       0.060148
      8 H                     0.108197       0.022058
      9 H                     0.104592       0.007292
     10 H                     0.107789       0.060511
     11 H                     0.108023       0.022210
  --------------------------------------------------------
  Sum of atomic charges =    -0.000000

                    Cartesian Multipole Moments
 -----------------------------------------------------------------
    Charge (ESU x 10^10)
                -0.0000
    Dipole Moment (Debye)
         X      -0.3271      Y      -0.0019      Z       0.0089
       Tot       0.3272
    Quadrupole Moments (Debye-Ang)
        XX     -40.4790     XY      -0.0809     YY     -36.6026
        XZ       0.2867     YZ      -0.0518     ZZ     -39.2293

 Final energy is   -2692.32266733384
 **  OPTIMIZATION CONVERGED  **
 Total job time:  45.71s(wall), 527.37s(cpu)
        *  Thank you very much for using Q-Chem.  Have a nice day.  *
