 Q-Chem 5.1, Q-Chem, Inc., Pleasanton, CA (2018)
 Q-Chem 5.1.1 for Intel X86 EM64T Linux

User input:
--------------------------------------------------------------

$comment
potential surface scanner
$end

$rem
JOBTYPE  PES_SCAN
UNRESTRICTED TRUE
SYM_IGNORE  TRUE
GEOM_OPT_MAX_CYCLES 400
SCF_MAX_CYCLES 400
METHOD   B3LYP
BASIS   6-31G**
PDB_PRINT 2
SCF_CONVERGENCE 6
THRESH 14
SCF_PRINT 1
$end
$molecule
0 3
Br 2.664848 0.007137 -0.229958
C -0.548147 -0.000733 0.522771
C -0.895591 -1.299055 -0.126389
C -0.892515 1.297994 -0.127254
H -0.330386 -0.000641 1.588213
H -0.385285 -2.144154 0.348219
H -1.978294 -1.514343 -0.077048
H -0.633390 -1.299236 -1.192735
H -0.383649 2.142510 0.349790
H -1.975330 1.513478 -0.082390
H -0.625864 1.298443 -1.192516
$end
$scan
stre 1 2 3.200000 3.201000 0.100000
$end
--------------------------------------------------------------

   10   -2692.3251420632      6.42e-07  Convergence criterion met
 Total energy in the final basis set =    -2692.3251420632
   13   -2692.3239714651      9.98e-07  Convergence criterion met
 Total energy in the final basis set =    -2692.3239714651
   14   -2692.3240438976      8.35e-07  Convergence criterion met
 Total energy in the final basis set =    -2692.3240438976
   13   -2692.3240618880      9.95e-07  Convergence criterion met
 Total energy in the final basis set =    -2692.3240618880

             Standard Nuclear Orientation (Angstroms)
    I     Atom           X                Y                Z
 ----------------------------------------------------------------
    1      Br      2.5609982012     0.0066373694    -0.2510459096
    2      C      -0.5426078640    -0.0007371397     0.5284258376
    3      C      -0.8829979158    -1.2990151772    -0.1249753203
    4      C      -0.8798792143     1.2979765784    -0.1257376009
    5      H      -0.3456954986    -0.0006041321     1.5978167618
    6      H      -0.3749826973    -2.1438328125     0.3529058920
    7      H      -1.9655094380    -1.5167036607    -0.0840313103
    8      H      -0.6119257793    -1.2974806139    -1.1890569547
    9      H      -0.3735475481     2.1424423709     0.3545290626
   10      H      -1.9624806935     1.5160224305    -0.0891915474
   11      H      -0.6049745523     1.2966947870    -1.1889359108
 ----------------------------------------------------------------

   13   -2692.3240626596      1.00e-06  Convergence criterion met
 Total energy in the final basis set =    -2692.3240626596

                    Orbital Energies (a.u.)
 --------------------------------------------------------------

 Alpha MOs
 -- Occupied --
******* -62.551 -56.375 -56.367 -56.367 -10.182 -10.175 -10.175
 -8.738  -6.575  -6.552  -6.552  -2.666  -2.660  -2.660  -2.644
 -2.644  -0.793  -0.774  -0.686  -0.565  -0.446  -0.425  -0.403
 -0.382  -0.365  -0.349  -0.342  -0.318  -0.316  -0.173

 Beta MOs
 -- Occupied --
******* -62.549 -56.369 -56.366 -56.366 -10.176 -10.176 -10.168
 -8.734  -6.564  -6.551  -6.550  -2.658  -2.654  -2.654  -2.642
 -2.642  -0.759  -0.746  -0.683  -0.544  -0.441  -0.407  -0.397
 -0.375  -0.345  -0.337  -0.303  -0.300

          Ground-State Mulliken Net Atomic Charges

     Atom                 Charge (a.u.)    Spin (a.u.)
  --------------------------------------------------------
      1 Br                    0.000807       1.013280
      2 C                    -0.063107       1.004359
      3 C                    -0.332725      -0.076895
      4 C                    -0.333237      -0.076830
      5 H                     0.086501      -0.044623
      6 H                     0.104990       0.008446
      7 H                     0.107466       0.061345
      8 H                     0.108378       0.020460
      9 H                     0.105191       0.008307
     10 H                     0.107715       0.061451
     11 H                     0.108020       0.020701
  --------------------------------------------------------
  Sum of atomic charges =     0.000000

                    Cartesian Multipole Moments
 -----------------------------------------------------------------
    Charge (ESU x 10^10)
                 0.0000
    Dipole Moment (Debye)
         X      -0.3248      Y      -0.0011      Z       0.0017
       Tot       0.3248
    Quadrupole Moments (Debye-Ang)
        XX     -40.4226     XY      -0.0631     YY     -36.5756
        XZ       0.2573     YZ      -0.1015     ZZ     -39.2103

 Final energy is   -2692.32406265957
 **  OPTIMIZATION CONVERGED  **
 Total job time:  26.75s(wall), 288.67s(cpu)
        *  Thank you very much for using Q-Chem.  Have a nice day.  *
