 Q-Chem 5.1, Q-Chem, Inc., Pleasanton, CA (2018)
 Q-Chem 5.1.1 for Intel X86 EM64T Linux

User input:
--------------------------------------------------------------

$comment
potential surface scanner
$end

$rem
JOBTYPE  PES_SCAN
UNRESTRICTED TRUE
SYM_IGNORE  TRUE
GEOM_OPT_MAX_CYCLES 400
SCF_MAX_CYCLES 400
METHOD   B3LYP
BASIS   6-31G**
PDB_PRINT 2
SCF_CONVERGENCE 6
THRESH 14
SCF_PRINT 1
$end
$molecule
0 1
Br 1.744600 -0.000400 -0.101000
C -0.148200 0.000100 0.395200
C -0.798600 -1.260800 -0.147100
C -0.797900 1.261200 -0.147100
H -0.168300 0.000100 1.489400
H -0.311900 -2.158700 0.249400
H -1.855400 -1.302200 0.136700
H -0.741600 -1.308000 -1.240400
H -0.310700 2.158800 0.249400
H -1.854800 1.303000 0.136600
H -0.740800 1.308300 -1.240400
$end
$scan
stre 1 2 1.700000 1.701000 0.100000
$end
--------------------------------------------------------------

    9   -2692.4381940224      5.80e-07  Convergence criterion met
 Total energy in the final basis set =    -2692.4381940224
    9   -2692.4252909852      5.91e-07  Convergence criterion met
 Total energy in the final basis set =    -2692.4252909852
    9   -2692.4021683827      5.89e-07  Convergence criterion met
 Total energy in the final basis set =    -2692.4021683827
    9   -2692.4025127942      5.86e-07  Convergence criterion met
 Total energy in the final basis set =    -2692.4025127942
    9   -2692.4034268343      5.82e-07  Convergence criterion met
 Total energy in the final basis set =    -2692.4034268343
    9   -2692.4034490796      5.82e-07  Convergence criterion met
 Total energy in the final basis set =    -2692.4034490796
    9   -2692.4034658624      5.82e-07  Convergence criterion met
 Total energy in the final basis set =    -2692.4034658624
    9   -2692.4034671398      5.82e-07  Convergence criterion met
 Total energy in the final basis set =    -2692.4034671398
    9   -2692.4034734275      5.82e-07  Convergence criterion met
 Total energy in the final basis set =    -2692.4034734275
    9   -2692.4034757354      5.82e-07  Convergence criterion met
 Total energy in the final basis set =    -2692.4034757354
    9   -2692.4034786278      5.82e-07  Convergence criterion met
 Total energy in the final basis set =    -2692.4034786278

             Standard Nuclear Orientation (Angstroms)
    I     Atom           X                Y                Z
 ----------------------------------------------------------------
    1      Br      1.6048174016    -0.0004203619    -0.0196409582
    2      C      -0.0534088570     0.0000052432     0.3549061123
    3      C      -0.7839102013    -1.2619278799    -0.1535442535
    4      C      -0.7832681956     1.2622998874    -0.1535658966
    5      H      -0.1701324801     0.0000449300     1.4464968133
    6      H      -0.3158539149    -2.1698540716     0.2375360136
    7      H      -1.8319725328    -1.2486733297     0.1628178498
    8      H      -0.7522252232    -1.3089659724    -1.2472928546
    9      H      -0.3147122349     2.1699928879     0.2374577046
   10      H      -1.8313236639     1.2496206613     0.1628469902
   11      H      -0.7516100978     1.3092780058    -1.2473175210
 ----------------------------------------------------------------

    9   -2692.4034794153      5.82e-07  Convergence criterion met
 Total energy in the final basis set =    -2692.4034794153

                    Orbital Energies (a.u.)
 --------------------------------------------------------------

 Alpha MOs
 -- Occupied --
******* -62.510 -56.331 -56.327 -56.327 -10.233 -10.186 -10.186
 -8.699  -6.529  -6.517  -6.517  -2.624  -2.620  -2.619  -2.610
 -2.610  -0.878  -0.737  -0.695  -0.580  -0.479  -0.448  -0.431
 -0.394  -0.373  -0.362  -0.358  -0.268  -0.268

 Beta MOs
 -- Occupied --
******* -62.510 -56.331 -56.327 -56.327 -10.233 -10.186 -10.186
 -8.699  -6.529  -6.517  -6.517  -2.624  -2.620  -2.619  -2.610
 -2.610  -0.878  -0.737  -0.695  -0.580  -0.479  -0.448  -0.431
 -0.394  -0.373  -0.362  -0.358  -0.268  -0.268

          Ground-State Mulliken Net Atomic Charges

     Atom                 Charge (a.u.)    Spin (a.u.)
  --------------------------------------------------------
      1 Br                   -0.069699       0.000000
      2 C                    -0.119472      -0.000000
      3 C                    -0.313090       0.000000
      4 C                    -0.313091      -0.000000
      5 H                     0.130225      -0.000000
      6 H                     0.118297      -0.000000
      7 H                     0.105910      -0.000000
      8 H                     0.118356      -0.000000
      9 H                     0.118298       0.000000
     10 H                     0.105910       0.000000
     11 H                     0.118355       0.000000
  --------------------------------------------------------
  Sum of atomic charges =     0.000000

                    Cartesian Multipole Moments
 -----------------------------------------------------------------
    Charge (ESU x 10^10)
                 0.0000
    Dipole Moment (Debye)
         X      -1.6177      Y       0.0004      Z       0.3375
       Tot       1.6525
    Quadrupole Moments (Debye-Ang)
        XX     -39.8948     XY       0.0004     YY     -38.4687
        XZ      -0.2585     YZ       0.0001     ZZ     -38.3414

 Final energy is   -2692.40347941531
 **  OPTIMIZATION CONVERGED  **
 Total job time:  45.24s(wall), 516.70s(cpu)
        *  Thank you very much for using Q-Chem.  Have a nice day.  *
