 Q-Chem 5.1, Q-Chem, Inc., Pleasanton, CA (2018)
 Q-Chem 5.1.1 for Intel X86 EM64T Linux

User input:
--------------------------------------------------------------

$comment
potential surface scanner
$end

$rem
JOBTYPE  PES_SCAN
UNRESTRICTED TRUE
SYM_IGNORE  TRUE
GEOM_OPT_MAX_CYCLES 400
SCF_MAX_CYCLES 400
METHOD   B3LYP
BASIS   6-31G**
PDB_PRINT 2
SCF_CONVERGENCE 6
THRESH 14
SCF_PRINT 1
$end
$molecule
0 3
Br 4.500175 -0.000985 0.409933
C -0.599430 0.000160 0.346501
C -1.118655 -1.298780 -0.172835
C -1.118089 1.299275 -0.172959
H -0.026841 0.000087 1.270734
H -0.493584 -2.143371 0.134467
H -2.141941 -1.511624 0.185324
H -1.175939 -1.299708 -1.269894
H -0.492574 2.143603 0.134161
H -2.141235 1.512661 0.185281
H -1.175487 1.300080 -1.270011
$end
$scan
stre 1 2 5.000000 5.001000 0.100000
$end
--------------------------------------------------------------

   10   -2692.3279152468      3.38e-07  Convergence criterion met
 Total energy in the final basis set =    -2692.3279152468
   10   -2692.3277917524      3.48e-07  Convergence criterion met
 Total energy in the final basis set =    -2692.3277917524
   10   -2692.3278675267      3.42e-07  Convergence criterion met
 Total energy in the final basis set =    -2692.3278675267
   10   -2692.3278923396      3.38e-07  Convergence criterion met
 Total energy in the final basis set =    -2692.3278923396

             Standard Nuclear Orientation (Angstroms)
    I     Atom           X                Y                Z
 ----------------------------------------------------------------
    1      Br      4.3938490761    -0.0007868456     0.3362311757
    2      C      -0.6060295515     0.0001271681     0.3710737183
    3      C      -1.1037036588    -1.2990712311    -0.1681723745
    4      C      -1.1030365059     1.2995287571    -0.1682956228
    5      H      -0.0704155668     0.0000429693     1.3172184293
    6      H      -0.4894147667    -2.1429109533     0.1622172916
    7      H      -2.1394739458    -1.5139928015     0.1509244393
    8      H      -1.1195218415    -1.2996878544    -1.2665863293
    9      H      -0.4882338430     2.1430642882     0.1619171511
   10      H      -2.1386526252     1.5150772484     0.1508813918
   11      H      -1.1189667709     1.3000072547    -1.2667072704
 ----------------------------------------------------------------

   10   -2692.3278932286      3.38e-07  Convergence criterion met
 Total energy in the final basis set =    -2692.3278932286

                    Orbital Energies (a.u.)
 --------------------------------------------------------------

 Alpha MOs
 -- Occupied --
******* -62.556 -56.381 -56.373 -56.373 -10.184 -10.175 -10.175
 -8.744  -6.580  -6.558  -6.558  -2.671  -2.666  -2.666  -2.649
 -2.649  -0.796  -0.775  -0.685  -0.565  -0.446  -0.423  -0.403
 -0.380  -0.371  -0.349  -0.343  -0.322  -0.322  -0.177

 Beta MOs
 -- Occupied --
******* -62.555 -56.375 -56.372 -56.372 -10.176 -10.176 -10.170
 -8.740  -6.569  -6.556  -6.556  -2.663  -2.659  -2.659  -2.648
 -2.648  -0.758  -0.752  -0.683  -0.544  -0.441  -0.406  -0.397
 -0.374  -0.346  -0.338  -0.308  -0.308

          Ground-State Mulliken Net Atomic Charges

     Atom                 Charge (a.u.)    Spin (a.u.)
  --------------------------------------------------------
      1 Br                   -0.000306       1.000417
      2 C                    -0.070019       1.018970
      3 C                    -0.333501      -0.079971
      4 C                    -0.333503      -0.079971
      5 H                     0.088541      -0.046506
      6 H                     0.108394       0.007278
      7 H                     0.108604       0.063149
      8 H                     0.107391       0.023105
      9 H                     0.108409       0.007282
     10 H                     0.108601       0.063150
     11 H                     0.107389       0.023099
  --------------------------------------------------------
  Sum of atomic charges =    -0.000000

                    Cartesian Multipole Moments
 -----------------------------------------------------------------
    Charge (ESU x 10^10)
                -0.0000
    Dipole Moment (Debye)
         X      -0.2051      Y       0.0002      Z       0.0224
       Tot       0.2063
    Quadrupole Moments (Debye-Ang)
        XX     -39.7362     XY       0.0069     YY     -36.4080
        XZ       0.3835     YZ      -0.0014     ZZ     -39.3545

 Final energy is   -2692.32789322857
 **  OPTIMIZATION CONVERGED  **
 Total job time:  16.82s(wall), 189.00s(cpu)
        *  Thank you very much for using Q-Chem.  Have a nice day.  *
