 Q-Chem 5.1, Q-Chem, Inc., Pleasanton, CA (2018)
 Q-Chem 5.1.1 for Intel X86 EM64T Linux

User input:
--------------------------------------------------------------

$comment
potential surface scanner
$end

$rem
JOBTYPE  PES_SCAN
UNRESTRICTED TRUE
SYM_IGNORE  TRUE
GEOM_OPT_MAX_CYCLES 400
SCF_MAX_CYCLES 400
METHOD   B3LYP
BASIS   6-31G**
PDB_PRINT 2
SCF_CONVERGENCE 6
THRESH 14
SCF_PRINT 1
$end
$molecule
0 3
Br 5.083471 -0.001555 0.863462
C -0.575959 0.000245 0.184603
C -1.201735 -1.299087 -0.197248
C -1.201444 1.299686 -0.197365
H 0.208933 0.000213 0.936532
H -0.520661 -2.142646 -0.046254
H -2.111800 -1.513750 0.391630
H -1.516540 -1.300667 -1.249799
H -0.520113 2.143079 -0.046595
H -2.111366 1.514688 0.391608
H -1.516386 1.301192 -1.249874
$end
$scan
stre 1 2 5.600000 5.601000 0.100000
$end
--------------------------------------------------------------

   10   -2692.3280424416      3.37e-07  Convergence criterion met
 Total energy in the final basis set =    -2692.3280424416
   10   -2692.3276073743      3.69e-07  Convergence criterion met
 Total energy in the final basis set =    -2692.3276073743
   10   -2692.3279243965      3.49e-07  Convergence criterion met
 Total energy in the final basis set =    -2692.3279243965
   10   -2692.3280161826      3.39e-07  Convergence criterion met
 Total energy in the final basis set =    -2692.3280161826

             Standard Nuclear Orientation (Angstroms)
    I     Atom           X                Y                Z
 ----------------------------------------------------------------
    1      Br      4.9924440829    -0.0012933370     0.7913325365
    2      C      -0.5774509851     0.0001935415     0.2114435836
    3      C      -1.1889841067    -1.2988870432    -0.1940173470
    4      C      -1.1885445530     1.2994467055    -0.1941303737
    5      H       0.1756557892     0.0001111768     0.9951603207
    6      H      -0.5148761159    -2.1430042597    -0.0170785771
    7      H      -2.1206434016    -1.5124651524     0.3604268793
    8      H      -1.4636874882    -1.3001766214    -1.2576844700
    9      H      -0.5140807233     2.1433266336    -0.0174147721
   10      H      -2.1200383575     1.5134651373     0.3604203802
   11      H      -1.4633941408     1.3006812189    -1.2577581603
 ----------------------------------------------------------------

   10   -2692.3280171584      3.38e-07  Convergence criterion met
 Total energy in the final basis set =    -2692.3280171584

                    Orbital Energies (a.u.)
 --------------------------------------------------------------

 Alpha MOs
 -- Occupied --
******* -62.557 -56.382 -56.374 -56.374 -10.184 -10.175 -10.175
 -8.745  -6.581  -6.559  -6.559  -2.672  -2.667  -2.667  -2.650
 -2.650  -0.797  -0.775  -0.685  -0.565  -0.446  -0.423  -0.403
 -0.380  -0.372  -0.350  -0.343  -0.323  -0.323  -0.177

 Beta MOs
 -- Occupied --
******* -62.556 -56.376 -56.373 -56.373 -10.176 -10.176 -10.170
 -8.741  -6.570  -6.557  -6.557  -2.664  -2.661  -2.660  -2.649
 -2.649  -0.758  -0.753  -0.683  -0.544  -0.441  -0.406  -0.397
 -0.374  -0.346  -0.338  -0.309  -0.309

          Ground-State Mulliken Net Atomic Charges

     Atom                 Charge (a.u.)    Spin (a.u.)
  --------------------------------------------------------
      1 Br                    0.000034       1.000030
      2 C                    -0.071806       1.019493
      3 C                    -0.333312      -0.080237
      4 C                    -0.333314      -0.080236
      5 H                     0.089241      -0.046644
      6 H                     0.108559       0.007100
      7 H                     0.108754       0.062994
      8 H                     0.107258       0.023706
      9 H                     0.108577       0.007104
     10 H                     0.108751       0.062994
     11 H                     0.107255       0.023697
  --------------------------------------------------------
  Sum of atomic charges =     0.000000

                    Cartesian Multipole Moments
 -----------------------------------------------------------------
    Charge (ESU x 10^10)
                -0.0000
    Dipole Moment (Debye)
         X      -0.1745      Y       0.0002      Z       0.0671
       Tot       0.1870
    Quadrupole Moments (Debye-Ang)
        XX     -39.4144     XY       0.0099     YY     -36.4002
        XZ       0.4569     YZ       0.0147     ZZ     -39.6172

 Final energy is   -2692.32801715843
 **  OPTIMIZATION CONVERGED  **
 Total job time:  15.68s(wall), 180.12s(cpu)
        *  Thank you very much for using Q-Chem.  Have a nice day.  *
