 Q-Chem 5.1, Q-Chem, Inc., Pleasanton, CA (2018)
 Q-Chem 5.1.1 for Intel X86 EM64T Linux

User input:
--------------------------------------------------------------

$comment
potential surface scanner
$end

$rem
JOBTYPE  PES_SCAN
UNRESTRICTED TRUE
SYM_IGNORE  TRUE
GEOM_OPT_MAX_CYCLES 400
SCF_MAX_CYCLES 400
METHOD   B3LYP
BASIS   6-31G**
PDB_PRINT 2
SCF_CONVERGENCE 6
THRESH 14
SCF_PRINT 1
$end
$molecule
0 3
Br 1.984431 -0.000130 0.822740
C -0.220316 0.000314 0.167689
C -0.860391 -1.297927 -0.205957
C -0.848247 1.296584 -0.232573
H 0.126366 0.009390 1.245709
H -0.220880 -2.150535 0.044449
H -1.836046 -1.456186 0.284479
H -1.048790 -1.317129 -1.287320
H -0.198236 2.147560 -0.004619
H -1.819425 1.476261 0.259205
H -1.042070 1.293199 -1.313099
$end
$scan
stre 1 2 2.200000 2.201000 0.100000
$end
--------------------------------------------------------------

   10   -2692.2917823609      4.71e-07  Convergence criterion met
 Total energy in the final basis set =    -2692.2917823609
   10   -2692.2785675853      4.91e-07  Convergence criterion met
 Total energy in the final basis set =    -2692.2785675853
   10   -2692.2784713910      4.89e-07  Convergence criterion met
 Total energy in the final basis set =    -2692.2784713910
   10   -2692.2786376809      4.94e-07  Convergence criterion met
 Total energy in the final basis set =    -2692.2786376809
   10   -2692.2786861245      4.99e-07  Convergence criterion met
 Total energy in the final basis set =    -2692.2786861245
   10   -2692.2787153901      5.03e-07  Convergence criterion met
 Total energy in the final basis set =    -2692.2787153901
   10   -2692.2787202217      5.05e-07  Convergence criterion met
 Total energy in the final basis set =    -2692.2787202217
   10   -2692.2787213621      5.06e-07  Convergence criterion met
 Total energy in the final basis set =    -2692.2787213621

             Standard Nuclear Orientation (Angstroms)
    I     Atom           X                Y                Z
 ----------------------------------------------------------------
    1      Br      1.9327773033    -0.0018132448     0.7461979633
    2      C      -0.1920556931     0.0004172834     0.1760393742
    3      C      -0.8494125779    -1.2927255445    -0.1999286448
    4      C      -0.8374653690     1.2915664057    -0.2266599864
    5      H       0.0795721299     0.0104225992     1.2790305153
    6      H      -0.2220638354    -2.1534909343     0.0553322484
    7      H      -1.8313399998    -1.4400499174     0.2810653713
    8      H      -1.0277425436    -1.3096926011    -1.2830500156
    9      H      -0.2002355864     2.1511461228     0.0072161012
   10      H      -1.8158442581     1.4594664875     0.2546635551
   11      H      -1.0197935698     1.2861543436    -1.3092034820
 ----------------------------------------------------------------

   10   -2692.2787223037      5.08e-07  Convergence criterion met
 Total energy in the final basis set =    -2692.2787223037

                    Orbital Energies (a.u.)
 --------------------------------------------------------------

 Alpha MOs
 -- Occupied --
******* -62.516 -56.339 -56.334 -56.333 -10.215 -10.191 -10.191
 -8.705  -6.537  -6.522  -6.520  -2.629  -2.626  -2.624  -2.613
 -2.613  -0.828  -0.761  -0.703  -0.599  -0.477  -0.448  -0.426
 -0.397  -0.389  -0.366  -0.325  -0.294  -0.282  -0.147

 Beta MOs
 -- Occupied --
******* -62.515 -56.334 -56.332 -56.332 -10.198 -10.192 -10.192
 -8.700  -6.528  -6.519  -6.518  -2.622  -2.620  -2.619  -2.611
 -2.611  -0.799  -0.733  -0.699  -0.566  -0.460  -0.428  -0.418
 -0.391  -0.369  -0.360  -0.294  -0.280

          Ground-State Mulliken Net Atomic Charges

     Atom                 Charge (a.u.)    Spin (a.u.)
  --------------------------------------------------------
      1 Br                   -0.081871       0.915762
      2 C                    -0.137286       0.937695
      3 C                    -0.325104      -0.042718
      4 C                    -0.325018      -0.042758
      5 H                     0.140828       0.051900
      6 H                     0.124841       0.012268
      7 H                     0.112794       0.052374
      8 H                     0.126588       0.025470
      9 H                     0.124902       0.012391
     10 H                     0.112840       0.052311
     11 H                     0.126488       0.025303
  --------------------------------------------------------
  Sum of atomic charges =     0.000000

                    Cartesian Multipole Moments
 -----------------------------------------------------------------
    Charge (ESU x 10^10)
                 0.0000
    Dipole Moment (Debye)
         X      -2.1649      Y       0.0037      Z      -0.4603
       Tot       2.2133
    Quadrupole Moments (Debye-Ang)
        XX     -41.8152     XY      -0.0022     YY     -38.6214
        XZ      -1.9164     YZ       0.0076     ZZ     -38.7140

 Final energy is   -2692.27872230368
 **  OPTIMIZATION CONVERGED  **
 Total job time:  34.47s(wall), 399.52s(cpu)
        *  Thank you very much for using Q-Chem.  Have a nice day.  *
