 Q-Chem 5.1, Q-Chem, Inc., Pleasanton, CA (2018)
 Q-Chem 5.1.1 for Intel X86 EM64T Linux

User input:
--------------------------------------------------------------

$comment
potential surface scanner
$end

$rem
JOBTYPE  PES_SCAN
UNRESTRICTED TRUE
SYM_IGNORE  TRUE
GEOM_OPT_MAX_CYCLES 400
SCF_MAX_CYCLES 400
METHOD   B3LYP
BASIS   6-31G**
PDB_PRINT 2
SCF_CONVERGENCE 6
THRESH 14
SCF_PRINT 1
$end
$molecule
0 1
Br 1.848270 -0.000463 -0.072526
C -0.200263 0.000040 0.389548
C -0.807176 -1.278061 -0.152034
C -0.806522 1.278443 -0.152057
H -0.158743 0.000042 1.478603
H -0.307382 -2.164438 0.243827
H -1.863790 -1.317938 0.144844
H -0.759640 -1.308025 -1.244046
H -0.306237 2.164568 0.243750
H -1.863102 1.318894 0.144864
H -0.759015 1.308341 -1.244073
$end
$scan
stre 1 2 2.200000 2.201000 0.100000
$end
--------------------------------------------------------------

    9   -2692.4380681187      5.13e-07  Convergence criterion met
 Total energy in the final basis set =    -2692.4380681187
    9   -2692.4338081131      5.13e-07  Convergence criterion met
 Total energy in the final basis set =    -2692.4338081131
    9   -2692.4339488948      5.19e-07  Convergence criterion met
 Total energy in the final basis set =    -2692.4339488948
    9   -2692.4340476624      5.27e-07  Convergence criterion met
 Total energy in the final basis set =    -2692.4340476624
    9   -2692.4340512400      5.28e-07  Convergence criterion met
 Total energy in the final basis set =    -2692.4340512400
    9   -2692.4340523518      5.28e-07  Convergence criterion met
 Total energy in the final basis set =    -2692.4340523518
    9   -2692.4340534792      5.27e-07  Convergence criterion met
 Total energy in the final basis set =    -2692.4340534792
    9   -2692.4340548486      5.27e-07  Convergence criterion met
 Total energy in the final basis set =    -2692.4340548486

             Standard Nuclear Orientation (Angstroms)
    I     Atom           X                Y                Z
 ----------------------------------------------------------------
    1      Br      1.9090909403    -0.0005053515    -0.0949691842
    2      C      -0.2348860323     0.0000547779     0.3983479439
    3      C      -0.8141033766    -1.2811071162    -0.1500376435
    4      C      -0.8134515675     1.2814987295    -0.1500615438
    5      H      -0.1514437492     0.0000463785     1.4838541210
    6      H      -0.3107443005    -2.1615829696     0.2533330757
    7      H      -1.8746321749    -1.3305736530     0.1346767885
    8      H      -0.7552429726    -1.3100667478    -1.2411879628
    9      H      -0.3096111882     2.1617237680     0.2532549605
   10      H      -1.8739401208     1.3315277980     0.1347057089
   11      H      -0.7546354577     1.3103873863    -1.2412162642
 ----------------------------------------------------------------

    9   -2692.4340557367      5.27e-07  Convergence criterion met
 Total energy in the final basis set =    -2692.4340557367

                    Orbital Energies (a.u.)
 --------------------------------------------------------------

 Alpha MOs
 -- Occupied --
******* -62.489 -56.310 -56.307 -56.307 -10.267 -10.200 -10.200
 -8.675  -6.504  -6.493  -6.493  -2.598  -2.595  -2.595  -2.586
 -2.586  -0.822  -0.726  -0.712  -0.593  -0.478  -0.455  -0.431
 -0.407  -0.375  -0.373  -0.317  -0.265  -0.265

 Beta MOs
 -- Occupied --
******* -62.489 -56.310 -56.307 -56.307 -10.267 -10.200 -10.200
 -8.675  -6.504  -6.493  -6.493  -2.598  -2.595  -2.595  -2.586
 -2.586  -0.822  -0.726  -0.712  -0.593  -0.478  -0.455  -0.431
 -0.407  -0.375  -0.373  -0.317  -0.265  -0.265

          Ground-State Mulliken Net Atomic Charges

     Atom                 Charge (a.u.)    Spin (a.u.)
  --------------------------------------------------------
      1 Br                   -0.217677       0.000000
      2 C                    -0.100782       0.000000
      3 C                    -0.310492      -0.000000
      4 C                    -0.310492       0.000000
      5 H                     0.155921       0.000000
      6 H                     0.138758      -0.000000
      7 H                     0.117327      -0.000000
      8 H                     0.135677       0.000000
      9 H                     0.138759       0.000000
     10 H                     0.117328       0.000000
     11 H                     0.135675      -0.000000
  --------------------------------------------------------
  Sum of atomic charges =    -0.000000

                    Cartesian Multipole Moments
 -----------------------------------------------------------------
    Charge (ESU x 10^10)
                -0.0000
    Dipole Moment (Debye)
         X      -3.2565      Y       0.0009      Z       0.4913
       Tot       3.2933
    Quadrupole Moments (Debye-Ang)
        XX     -42.1233     XY       0.0011     YY     -37.8324
        XZ      -0.1540     YZ       0.0000     ZZ     -38.3225

 Final energy is   -2692.43405573666
 **  OPTIMIZATION CONVERGED  **
 Total job time:  32.87s(wall), 374.69s(cpu)
        *  Thank you very much for using Q-Chem.  Have a nice day.  *
