 Q-Chem 5.1, Q-Chem, Inc., Pleasanton, CA (2018)
 Q-Chem 5.1.1 for Intel X86 EM64T Linux

User input:
--------------------------------------------------------------

$comment
potential surface scanner
$end

$rem
JOBTYPE  PES_SCAN
UNRESTRICTED TRUE
SYM_IGNORE  TRUE
GEOM_OPT_MAX_CYCLES 400
SCF_MAX_CYCLES 400
METHOD   B3LYP
BASIS   6-31G**
PDB_PRINT 2
SCF_CONVERGENCE 6
THRESH 14
SCF_PRINT 1
$end
$molecule
0 3
Br 3.262450 0.000669 -0.103100
C -0.591591 -0.000091 0.493866
C -0.963078 -1.300049 -0.137357
C -0.961732 1.300225 -0.137409
H -0.293875 -0.000220 1.539692
H -0.412873 -2.139450 0.300787
H -2.037821 -1.529163 -0.020088
H -0.769770 -1.294167 -1.218110
H -0.410393 2.139025 0.300465
H -2.036161 1.530645 -0.019829
H -0.768758 1.293974 -1.218216
$end
$scan
stre 1 2 3.800000 3.801000 0.100000
$end
--------------------------------------------------------------

   10   -2692.3276566459      3.36e-07  Convergence criterion met
 Total energy in the final basis set =    -2692.3276566459
   10   -2692.3270768360      3.40e-07  Convergence criterion met
 Total energy in the final basis set =    -2692.3270768360
   10   -2692.3273459164      3.39e-07  Convergence criterion met
 Total energy in the final basis set =    -2692.3273459164
   10   -2692.3274533439      3.39e-07  Convergence criterion met
 Total energy in the final basis set =    -2692.3274533439
   10   -2692.3274628429      3.39e-07  Convergence criterion met
 Total energy in the final basis set =    -2692.3274628429
   10   -2692.3274726710      3.38e-07  Convergence criterion met
 Total energy in the final basis set =    -2692.3274726710
   10   -2692.3274747356      3.38e-07  Convergence criterion met
 Total energy in the final basis set =    -2692.3274747356
   10   -2692.3274801546      3.38e-07  Convergence criterion met
 Total energy in the final basis set =    -2692.3274801546
   10   -2692.3274821486      3.37e-07  Convergence criterion met
 Total energy in the final basis set =    -2692.3274821486

             Standard Nuclear Orientation (Angstroms)
    I     Atom           X                Y                Z
 ----------------------------------------------------------------
    1      Br      3.1576212898     0.0007061107    -0.1353667855
    2      C      -0.5886557241    -0.0000949118     0.5013520422
    3      C      -0.9507980928    -1.3003589634    -0.1348868063
    4      C      -0.9494211235     1.3005271517    -0.1349353387
    5      H      -0.3070877309    -0.0002213247     1.5516612171
    6      H      -0.4075439707    -2.1392848513     0.3127419484
    7      H      -2.0271809408    -1.5292856337    -0.0337593781
    8      H      -0.7405392679    -1.2953528416    -1.2124651321
    9      H      -0.4050502827     2.1388505521     0.3124666819
   10      H      -2.0255000494     1.5307605979    -0.0335428113
   11      H      -0.7394461071     1.2951521140    -1.2125646376
 ----------------------------------------------------------------

   10   -2692.3274830930      3.37e-07  Convergence criterion met
 Total energy in the final basis set =    -2692.3274830930

                    Orbital Energies (a.u.)
 --------------------------------------------------------------

 Alpha MOs
 -- Occupied --
******* -62.553 -56.377 -56.370 -56.370 -10.184 -10.175 -10.175
 -8.740  -6.577  -6.555  -6.555  -2.668  -2.662  -2.662  -2.646
 -2.646  -0.793  -0.775  -0.686  -0.565  -0.446  -0.423  -0.403
 -0.381  -0.368  -0.350  -0.343  -0.319  -0.318  -0.176

 Beta MOs
 -- Occupied --
******* -62.552 -56.372 -56.369 -56.369 -10.176 -10.176 -10.170
 -8.736  -6.566  -6.553  -6.553  -2.660  -2.656  -2.656  -2.645
 -2.645  -0.758  -0.749  -0.683  -0.544  -0.441  -0.406  -0.397
 -0.375  -0.346  -0.337  -0.305  -0.304

          Ground-State Mulliken Net Atomic Charges

     Atom                 Charge (a.u.)    Spin (a.u.)
  --------------------------------------------------------
      1 Br                   -0.003945       1.006116
      2 C                    -0.061116       1.011880
      3 C                    -0.334843      -0.079061
      4 C                    -0.334838      -0.079058
      5 H                     0.087167      -0.045672
      6 H                     0.107400       0.008439
      7 H                     0.107995       0.063786
      8 H                     0.108395       0.020676
      9 H                     0.107401       0.008448
     10 H                     0.107994       0.063784
     11 H                     0.108389       0.020661
  --------------------------------------------------------
  Sum of atomic charges =    -0.000000

                    Cartesian Multipole Moments
 -----------------------------------------------------------------
    Charge (ESU x 10^10)
                -0.0000
    Dipole Moment (Debye)
         X      -0.2824      Y       0.0001      Z      -0.0069
       Tot       0.2825
    Quadrupole Moments (Debye-Ang)
        XX     -40.1521     XY      -0.0008     YY     -36.4605
        XZ       0.2419     YZ      -0.0029     ZZ     -39.1851

 Final energy is   -2692.32748309301
 **  OPTIMIZATION CONVERGED  **
 Total job time:  35.09s(wall), 403.40s(cpu)
        *  Thank you very much for using Q-Chem.  Have a nice day.  *
