 Q-Chem 5.1, Q-Chem, Inc., Pleasanton, CA (2018)
 Q-Chem 5.1.1 for Intel X86 EM64T Linux

User input:
--------------------------------------------------------------

$comment
potential surface scanner
$end

$rem
JOBTYPE  PES_SCAN
UNRESTRICTED TRUE
SYM_IGNORE  TRUE
GEOM_OPT_MAX_CYCLES 400
SCF_MAX_CYCLES 400
METHOD   B3LYP
BASIS   6-31G**
PDB_PRINT 2
SCF_CONVERGENCE 6
THRESH 14
SCF_PRINT 1
$end
$molecule
0 3
Br 3.703374 0.000239 0.108210
C -0.584189 -0.000035 0.435025
C -1.024152 -1.299647 -0.150992
C -1.023038 1.299913 -0.151075
H -0.138638 -0.000186 1.426600
H -0.450516 -2.143224 0.246357
H -2.088775 -1.511821 0.055027
H -0.921318 -1.304923 -1.244780
H -0.448365 2.142969 0.245887
H -2.087353 1.513252 0.055342
H -0.920633 1.304863 -1.244900
$end
$scan
stre 1 2 4.200000 4.201000 0.100000
$end
--------------------------------------------------------------

   10   -2692.3279245751      3.35e-07  Convergence criterion met
 Total energy in the final basis set =    -2692.3279245751
   10   -2692.3278430669      3.35e-07  Convergence criterion met
 Total energy in the final basis set =    -2692.3278430669
   10   -2692.3278905459      3.35e-07  Convergence criterion met
 Total energy in the final basis set =    -2692.3278905459
   10   -2692.3279018426      3.35e-07  Convergence criterion met
 Total energy in the final basis set =    -2692.3279018426

             Standard Nuclear Orientation (Angstroms)
    I     Atom           X                Y                Z
 ----------------------------------------------------------------
    1      Br      3.6026776929     0.0002352577     0.0724999000
    2      C      -0.5808189097    -0.0000332918     0.4444633816
    3      C      -1.0108145943    -1.2996198008    -0.1490847270
    4      C      -1.0097003082     1.2998842342    -0.1491602628
    5      H      -0.1636378661    -0.0001741257     1.4483570128
    6      H      -0.4410515655    -2.1427933178     0.2547682886
    7      H      -2.0776085697    -1.5138685651     0.0434929343
    8      H      -0.8941228965    -1.3032862485    -1.2413234220
    9      H      -0.4388992636     2.1425381835     0.2543150436
   10      H      -2.0761903770     1.5152977444     0.0438143207
   11      H      -0.8934363425     1.3032199298    -1.2414414699
 ----------------------------------------------------------------

   10   -2692.3279025107      3.35e-07  Convergence criterion met
 Total energy in the final basis set =    -2692.3279025107

                    Orbital Energies (a.u.)
 --------------------------------------------------------------

 Alpha MOs
 -- Occupied --
******* -62.555 -56.379 -56.371 -56.371 -10.184 -10.175 -10.175
 -8.742  -6.579  -6.556  -6.556  -2.669  -2.664  -2.664  -2.647
 -2.647  -0.794  -0.775  -0.686  -0.565  -0.446  -0.423  -0.403
 -0.380  -0.369  -0.350  -0.343  -0.320  -0.320  -0.177

 Beta MOs
 -- Occupied --
******* -62.553 -56.373 -56.370 -56.370 -10.176 -10.176 -10.170
 -8.738  -6.568  -6.555  -6.554  -2.661  -2.658  -2.658  -2.646
 -2.646  -0.758  -0.751  -0.683  -0.544  -0.441  -0.406  -0.397
 -0.374  -0.346  -0.337  -0.306  -0.306

          Ground-State Mulliken Net Atomic Charges

     Atom                 Charge (a.u.)    Spin (a.u.)
  --------------------------------------------------------
      1 Br                   -0.002569       1.003310
      2 C                    -0.066072       1.015219
      3 C                    -0.334297      -0.079689
      4 C                    -0.334295      -0.079687
      5 H                     0.088861      -0.046319
      6 H                     0.107918       0.007183
      7 H                     0.108300       0.063311
      8 H                     0.107967       0.023092
      9 H                     0.107929       0.007197
     10 H                     0.108298       0.063314
     11 H                     0.107959       0.023069
  --------------------------------------------------------
  Sum of atomic charges =    -0.000000

                    Cartesian Multipole Moments
 -----------------------------------------------------------------
    Charge (ESU x 10^10)
                 0.0000
    Dipole Moment (Debye)
         X      -0.2449      Y       0.0001      Z       0.0026
       Tot       0.2449
    Quadrupole Moments (Debye-Ang)
        XX     -39.9835     XY       0.0022     YY     -36.4297
        XZ       0.3158     YZ      -0.0024     ZZ     -39.2527

 Final energy is   -2692.32790251073
 **  OPTIMIZATION CONVERGED  **
 Total job time:  18.07s(wall), 200.36s(cpu)
        *  Thank you very much for using Q-Chem.  Have a nice day.  *
