 Q-Chem 5.1, Q-Chem, Inc., Pleasanton, CA (2018)
 Q-Chem 5.1.1 for Intel X86 EM64T Linux

User input:
--------------------------------------------------------------

$comment
potential surface scanner
$end

$rem
JOBTYPE  PES_SCAN
UNRESTRICTED TRUE
SYM_IGNORE  TRUE
GEOM_OPT_MAX_CYCLES 400
SCF_MAX_CYCLES 400
METHOD   B3LYP
BASIS   6-31G**
PDB_PRINT 2
SCF_CONVERGENCE 6
THRESH 14
SCF_PRINT 1
$end
$molecule
0 3
Br 4.196593 -0.000649 0.272078
C -0.601936 0.000109 0.390889
C -1.078810 -1.299804 -0.165094
C -1.078085 1.300234 -0.165215
H -0.113427 0.000024 1.362192
H -0.465583 -2.140554 0.175579
H -2.119515 -1.524265 0.130925
H -1.070262 -1.295880 -1.263351
H -0.464307 2.140652 0.175287
H -2.118623 1.525370 0.130881
H -1.069648 1.296162 -1.263472
$end
$scan
stre 1 2 4.700000 4.701000 0.100000
$end
--------------------------------------------------------------

   10   -2692.3278553786      3.37e-07  Convergence criterion met
 Total energy in the final basis set =    -2692.3278553786
   10   -2692.3276796522      3.42e-07  Convergence criterion met
 Total energy in the final basis set =    -2692.3276796522
   10   -2692.3277978492      3.39e-07  Convergence criterion met
 Total energy in the final basis set =    -2692.3277978492
   10   -2692.3278393654      3.37e-07  Convergence criterion met
 Total energy in the final basis set =    -2692.3278393654

             Standard Nuclear Orientation (Angstroms)
    I     Atom           X                Y                Z
 ----------------------------------------------------------------
    1      Br      4.0961303287    -0.0005651634     0.2383499322
    2      C      -0.6010244544     0.0000980155     0.4018678920
    3      C      -1.0661067588    -1.3001129973    -0.1633173936
    4      C      -1.0653450171     1.3005264803    -0.1634372046
    5      H      -0.1365201439     0.0000121979     1.3850306618
    6      H      -0.4532559316    -2.1391783850     0.1824447785
    7      H      -2.1091259509    -1.5301835181     0.1201446591
    8      H      -1.0444483402    -1.2931416954    -1.2612619956
    9      H      -0.4519174514     2.1392410399     0.1821550509
   10      H      -2.1081880199     1.5313024808     0.1201047830
   11      H      -1.0438012604     1.2934005446    -1.2613821638
 ----------------------------------------------------------------

   10   -2692.3278402424      3.37e-07  Convergence criterion met
 Total energy in the final basis set =    -2692.3278402424

                    Orbital Energies (a.u.)
 --------------------------------------------------------------

 Alpha MOs
 -- Occupied --
******* -62.556 -56.380 -56.372 -56.372 -10.184 -10.175 -10.175
 -8.743  -6.580  -6.557  -6.557  -2.670  -2.665  -2.665  -2.649
 -2.649  -0.795  -0.775  -0.686  -0.565  -0.446  -0.423  -0.403
 -0.381  -0.370  -0.350  -0.343  -0.321  -0.321  -0.177

 Beta MOs
 -- Occupied --
******* -62.554 -56.374 -56.371 -56.371 -10.176 -10.176 -10.170
 -8.739  -6.569  -6.556  -6.556  -2.663  -2.659  -2.659  -2.648
 -2.648  -0.758  -0.752  -0.683  -0.544  -0.441  -0.406  -0.397
 -0.374  -0.346  -0.337  -0.307  -0.307

          Ground-State Mulliken Net Atomic Charges

     Atom                 Charge (a.u.)    Spin (a.u.)
  --------------------------------------------------------
      1 Br                   -0.000819       1.001040
      2 C                    -0.068279       1.017801
      3 C                    -0.333771      -0.079592
      4 C                    -0.333772      -0.079592
      5 H                     0.087845      -0.046070
      6 H                     0.108525       0.008383
      7 H                     0.108609       0.063897
      8 H                     0.107259       0.020928
      9 H                     0.108541       0.008387
     10 H                     0.108606       0.063897
     11 H                     0.107256       0.020922
  --------------------------------------------------------
  Sum of atomic charges =     0.000000

                    Cartesian Multipole Moments
 -----------------------------------------------------------------
    Charge (ESU x 10^10)
                 0.0000
    Dipole Moment (Debye)
         X      -0.2285      Y       0.0002      Z       0.0147
       Tot       0.2289
    Quadrupole Moments (Debye-Ang)
        XX     -39.8323     XY       0.0061     YY     -36.4096
        XZ       0.3337     YZ      -0.0020     ZZ     -39.2960

 Final energy is   -2692.32784024240
 **  OPTIMIZATION CONVERGED  **
 Total job time:  17.20s(wall), 192.80s(cpu)
        *  Thank you very much for using Q-Chem.  Have a nice day.  *
