 Q-Chem 5.1, Q-Chem, Inc., Pleasanton, CA (2018)
 Q-Chem 5.1.1 for Intel X86 EM64T Linux

User input:
--------------------------------------------------------------

$comment
potential surface scanner
$end

$rem
JOBTYPE  PES_SCAN
UNRESTRICTED TRUE
SYM_IGNORE  TRUE
GEOM_OPT_MAX_CYCLES 400
SCF_MAX_CYCLES 400
METHOD   B3LYP
BASIS   6-31G**
PDB_PRINT 2
SCF_CONVERGENCE 6
THRESH 14
SCF_PRINT 1
$end
$molecule
0 3
Br 2.264324 -0.004312 -0.139342
C -0.462008 0.000826 0.498694
C -0.851725 -1.295288 -0.136429
C -0.853794 1.296399 -0.136229
H -0.275666 0.000674 1.570112
H -0.352926 -2.150178 0.334490
H -1.937518 -1.485598 -0.065571
H -0.608419 -1.309049 -1.207493
H -0.353579 2.151725 0.332454
H -1.939352 1.486811 -0.062246
H -0.612939 1.309389 -1.207737
$end
$scan
stre 1 2 2.700000 2.701000 0.100000
$end
--------------------------------------------------------------

   17   -2692.3154207453      7.22e-07  Convergence criterion met
 Total energy in the final basis set =    -2692.3154207453
   17   -2692.3113628632      8.99e-07  Convergence criterion met
 Total energy in the final basis set =    -2692.3113628632
   10   -2692.3114365952      8.80e-07  Convergence criterion met
 Total energy in the final basis set =    -2692.3114365952
   24   -2692.3114581561      8.78e-07  Convergence criterion met
 Total energy in the final basis set =    -2692.3114581561
   10   -2692.3114684470      5.46e-07  Convergence criterion met
 Total energy in the final basis set =    -2692.3114684470
   10   -2692.3114805814      5.28e-07  Convergence criterion met
 Total energy in the final basis set =    -2692.3114805814
   11   -2692.3114900739      9.22e-07  Convergence criterion met
 Total energy in the final basis set =    -2692.3114900739
   33   -2692.3114849722      4.72e-07  Convergence criterion met
   10   -2692.3212239462      4.37e-07  Convergence criterion met
 Total energy in the final basis set =    -2692.3212239462
   10   -2692.3212607157      4.40e-07  Convergence criterion met
 Total energy in the final basis set =    -2692.3212607157
   10   -2692.3212451334      4.56e-07  Convergence criterion met
 Total energy in the final basis set =    -2692.3212451334
   10   -2692.3212813166      4.43e-07  Convergence criterion met
 Total energy in the final basis set =    -2692.3212813166
   10   -2692.3212836560      4.43e-07  Convergence criterion met
 Total energy in the final basis set =    -2692.3212836560
   10   -2692.3212850200      4.41e-07  Convergence criterion met
 Total energy in the final basis set =    -2692.3212850200

             Standard Nuclear Orientation (Angstroms)
    I     Atom           X                Y                Z
 ----------------------------------------------------------------
    1      Br      2.1780571980     0.0054210438     1.2024748727
    2      C      -0.2906669439    -0.0002983605     0.1091452506
    3      C      -0.9011184397    -1.3139593434    -0.2340675282
    4      C      -0.8889556969     1.3119767532    -0.2597176042
    5      H       0.3018666930     0.0059867641     1.0688035026
    6      H      -0.2194499099    -2.1442101622    -0.0271953096
    7      H      -1.8343958236    -1.5037510672     0.3229198988
    8      H      -1.1602995374    -1.3415726113    -1.3008085597
    9      H      -0.1939283872     2.1382991121    -0.0832755240
   10      H      -1.8115818693     1.5280036658     0.3054019380
   11      H      -1.1631292832     1.3155032057    -1.3229779371
 ----------------------------------------------------------------

   10   -2692.3212852899      4.39e-07  Convergence criterion met
 Total energy in the final basis set =    -2692.3212852899

                    Orbital Energies (a.u.)
 --------------------------------------------------------------

 Alpha MOs
 -- Occupied --
******* -62.515 -56.338 -56.333 -56.332 -10.223 -10.197 -10.197
 -8.703  -6.537  -6.519  -6.519  -2.628  -2.624  -2.624  -2.611
 -2.611  -0.813  -0.765  -0.710  -0.599  -0.481  -0.448  -0.429
 -0.404  -0.393  -0.377  -0.299  -0.293  -0.284  -0.204

 Beta MOs
 -- Occupied --
******* -62.514 -56.334 -56.331 -56.331 -10.205 -10.198 -10.198
 -8.700  -6.528  -6.517  -6.517  -2.622  -2.619  -2.619  -2.610
 -2.610  -0.788  -0.733  -0.707  -0.565  -0.464  -0.428  -0.420
 -0.397  -0.371  -0.371  -0.283  -0.282

          Ground-State Mulliken Net Atomic Charges

     Atom                 Charge (a.u.)    Spin (a.u.)
  --------------------------------------------------------
      1 Br                   -0.135896       0.787476
      2 C                    -0.063506       1.146989
      3 C                    -0.341160      -0.063889
      4 C                    -0.341100      -0.063937
      5 H                     0.111935      -0.019539
      6 H                     0.135690       0.012601
      7 H                     0.121588       0.063196
      8 H                     0.127541       0.030763
      9 H                     0.135938       0.013040
     10 H                     0.121699       0.063155
     11 H                     0.127271       0.030146
  --------------------------------------------------------
  Sum of atomic charges =    -0.000000

                    Cartesian Multipole Moments
 -----------------------------------------------------------------
    Charge (ESU x 10^10)
                 0.0000
    Dipole Moment (Debye)
         X      -2.3365      Y      -0.0021      Z      -0.8326
       Tot       2.4804
    Quadrupole Moments (Debye-Ang)
        XX     -40.7231     XY       0.0026     YY     -38.0128
        XZ      -1.2312     YZ      -0.0183     ZZ     -40.1760

 Final energy is   -2692.32128528991
 **  OPTIMIZATION CONVERGED  **
 Total job time:  214.70s(wall), 2511.80s(cpu)
        *  Thank you very much for using Q-Chem.  Have a nice day.  *
