 Q-Chem 5.1, Q-Chem, Inc., Pleasanton, CA (2018)
 Q-Chem 5.1.1 for Intel X86 EM64T Linux

User input:
--------------------------------------------------------------

$comment
potential surface scanner
$end

$rem
JOBTYPE  PES_SCAN
UNRESTRICTED TRUE
SYM_IGNORE  TRUE
GEOM_OPT_MAX_CYCLES 400
SCF_MAX_CYCLES 400
METHOD   B3LYP
BASIS   6-31G**
PDB_PRINT 2
SCF_CONVERGENCE 6
THRESH 14
SCF_PRINT 1
$end
$molecule
0 1
Br 1.744600 -0.000400 -0.101000
C -0.148200 0.000100 0.395200
C -0.798600 -1.260800 -0.147100
C -0.797900 1.261200 -0.147100
H -0.168300 0.000100 1.489400
H -0.311900 -2.158700 0.249400
H -1.855400 -1.302200 0.136700
H -0.741600 -1.308000 -1.240400
H -0.310700 2.158800 0.249400
H -1.854800 1.303000 0.136600
H -0.740800 1.308300 -1.240400
$end
$scan
stre 1 2 1.000000 1.001000 0.100000
$end
--------------------------------------------------------------

    9   -2692.4381940224      5.80e-07  Convergence criterion met
 Total energy in the final basis set =    -2692.4381940224
    9   -2692.4252909852      5.91e-07  Convergence criterion met
 Total energy in the final basis set =    -2692.4252909852
    9   -2692.3858476832      5.92e-07  Convergence criterion met
 Total energy in the final basis set =    -2692.3858476832
    9   -2692.3143334345      6.06e-07  Convergence criterion met
 Total energy in the final basis set =    -2692.3143334345
    9   -2692.2100183684      6.56e-07  Convergence criterion met
 Total energy in the final basis set =    -2692.2100183684
    9   -2692.0467343321      7.41e-07  Convergence criterion met
 Total energy in the final basis set =    -2692.0467343321
    9   -2691.8236390173      9.11e-07  Convergence criterion met
 Total energy in the final basis set =    -2691.8236390173
   10   -2691.5361486973      3.92e-07  Convergence criterion met
   10   -2690.6157860675      4.83e-07  Convergence criterion met
 Total energy in the final basis set =    -2690.6157860675
   10   -2690.6157886106      4.84e-07  Convergence criterion met
 Total energy in the final basis set =    -2690.6157886106
   10   -2690.6157907540      4.84e-07  Convergence criterion met
 Total energy in the final basis set =    -2690.6157907540
   10   -2690.6157927045      4.84e-07  Convergence criterion met
 Total energy in the final basis set =    -2690.6157927045
   10   -2690.6157945149      4.84e-07  Convergence criterion met
 Total energy in the final basis set =    -2690.6157945149
   10   -2690.6157956711      4.84e-07  Convergence criterion met
 Total energy in the final basis set =    -2690.6157956711

             Standard Nuclear Orientation (Angstroms)
    I     Atom           X                Y                Z
 ----------------------------------------------------------------
    1      Br      1.2627572676    -0.0003250172     0.0893384918
    2      C       0.2906550194    -0.0000837530     0.3238959888
    3      C      -0.7842949598    -1.2814470732    -0.1637777784
    4      C      -0.7836421160     1.2818206254    -0.1638013329
    5      H      -0.2105834557     0.0000511958     1.3647380083
    6      H      -0.3205618032    -2.1964695332     0.2274450032
    7      H      -1.8082295086    -1.1819937464     0.1991044318
    8      H      -0.7516547499    -1.3005262024    -1.2613535227
    9      H      -0.3194140093     2.1966087922     0.2273829192
   10      H      -1.8076208163     1.1829197122     0.1991058174
   11      H      -0.7510108682     1.3008449997    -1.2613780265
 ----------------------------------------------------------------

   10   -2690.6157960611      4.84e-07  Convergence criterion met
 Total energy in the final basis set =    -2690.6157960611

                    Orbital Energies (a.u.)
 --------------------------------------------------------------

 Alpha MOs
 -- Occupied --
******* -62.592 -56.408 -56.405 -56.405 -10.366 -10.174 -10.174
 -8.829  -6.687  -6.631  -6.630  -2.795  -2.757  -2.757  -2.718
 -2.718  -1.056  -0.712  -0.692  -0.608  -0.548  -0.526  -0.428
 -0.404  -0.390  -0.386  -0.368  -0.197  -0.195

 Beta MOs
 -- Occupied --
******* -62.592 -56.408 -56.405 -56.405 -10.366 -10.174 -10.174
 -8.829  -6.687  -6.631  -6.630  -2.795  -2.757  -2.757  -2.718
 -2.718  -1.056  -0.712  -0.692  -0.608  -0.548  -0.526  -0.428
 -0.404  -0.390  -0.386  -0.368  -0.197  -0.195

          Ground-State Mulliken Net Atomic Charges

     Atom                 Charge (a.u.)    Spin (a.u.)
  --------------------------------------------------------
      1 Br                    0.630155      -0.000000
      2 C                    -0.477993       0.000000
      3 C                    -0.394272       0.000000
      4 C                    -0.394272       0.000000
      5 H                     0.032331       0.000000
      6 H                     0.092906      -0.000000
      7 H                     0.106949       0.000000
      8 H                     0.102171       0.000000
      9 H                     0.092905       0.000000
     10 H                     0.106949      -0.000000
     11 H                     0.102172      -0.000000
  --------------------------------------------------------
  Sum of atomic charges =    -0.000000

                    Cartesian Multipole Moments
 -----------------------------------------------------------------
    Charge (ESU x 10^10)
                 0.0000
    Dipole Moment (Debye)
         X      -0.4846      Y       0.0001      Z       0.4074
       Tot       0.6331
    Quadrupole Moments (Debye-Ang)
        XX     -40.2623     XY       0.0004     YY     -38.8171
        XZ       0.3950     YZ      -0.0001     ZZ     -37.9018

 Final energy is   -2690.61579606107
 **  OPTIMIZATION CONVERGED  **
 Total job time:  144.26s(wall), 1553.61s(cpu)
        *  Thank you very much for using Q-Chem.  Have a nice day.  *
