 Q-Chem 5.1, Q-Chem, Inc., Pleasanton, CA (2018)
 Q-Chem 5.1.1 for Intel X86 EM64T Linux

User input:
--------------------------------------------------------------

$comment
potential surface scanner
$end

$rem
JOBTYPE  PES_SCAN
UNRESTRICTED TRUE
SYM_IGNORE  TRUE
GEOM_OPT_MAX_CYCLES 400
SCF_MAX_CYCLES 400
METHOD   B3LYP
BASIS   6-31G**
PDB_PRINT 2
SCF_CONVERGENCE 6
THRESH 14
SCF_PRINT 1
$end
$molecule
0 3
Br 2.319862 -0.002763 -0.220854
C -0.484943 0.000527 0.516072
C -0.857896 -1.295471 -0.127614
C -0.858836 1.296186 -0.127615
H -0.290491 0.000152 1.586021
H -0.377925 -2.150266 0.361565
H -1.946352 -1.480680 -0.093891
H -0.579417 -1.312284 -1.190250
H -0.379027 2.151958 0.360353
H -1.947348 1.481354 -0.092617
H -0.581229 1.312686 -1.190466
$end
$scan
stre 1 2 2.800000 2.801000 0.100000
$end
--------------------------------------------------------------

   14   -2692.3185001185      8.72e-07  Convergence criterion met
 Total energy in the final basis set =    -2692.3185001185
   26   -2692.3152395416      4.58e-07  Convergence criterion met
 Total energy in the final basis set =    -2692.3152395416
   18   -2692.3153322459      9.31e-07  Convergence criterion met
 Total energy in the final basis set =    -2692.3153322459
   10   -2692.3153677459      9.18e-07  Convergence criterion met
 Total energy in the final basis set =    -2692.3153677459
   20   -2692.3153739472      9.01e-07  Convergence criterion met
 Total energy in the final basis set =    -2692.3153739472
   11   -2692.3154025628      9.41e-07  Convergence criterion met
 Total energy in the final basis set =    -2692.3154025628
   19   -2692.3154015955      9.60e-07  Convergence criterion met
 Total energy in the final basis set =    -2692.3154015955
   18   -2692.3154062738      7.89e-07  Convergence criterion met
 Total energy in the final basis set =    -2692.3154062738
   11   -2692.3154155961      9.52e-07  Convergence criterion met
 Total energy in the final basis set =    -2692.3154155961
   14   -2692.3154168442      9.77e-07  Convergence criterion met
 Total energy in the final basis set =    -2692.3154168442
   10   -2692.3154216521      8.92e-07  Convergence criterion met
 Total energy in the final basis set =    -2692.3154216521
   10   -2692.3154244904      9.93e-07  Convergence criterion met
 Total energy in the final basis set =    -2692.3154244904
   17   -2692.3154198409      9.33e-07  Convergence criterion met
 Total energy in the final basis set =    -2692.3154198409

             Standard Nuclear Orientation (Angstroms)
    I     Atom           X                Y                Z
 ----------------------------------------------------------------
    1      Br      2.2643237058    -0.0043116167    -0.1393419212
    2      C      -0.4620081693     0.0008262268     0.4986936873
    3      C      -0.8517250192    -1.2952875162    -0.1364292357
    4      C      -0.8537938834     1.2963994101    -0.1362292175
    5      H      -0.2756658370     0.0006736844     1.5701124114
    6      H      -0.3529262499    -2.1501784302     0.3344903402
    7      H      -1.9375180282    -1.4855982109    -0.0655706509
    8      H      -0.6084185249    -1.3090488296    -1.2074925314
    9      H      -0.3535794176     2.1517248515     0.3324539629
   10      H      -1.9393519072     1.4868108298    -0.0622457958
   11      H      -0.6129386693     1.3093886009    -1.2077370491
 ----------------------------------------------------------------

   17   -2692.3154207377      7.22e-07  Convergence criterion met
 Total energy in the final basis set =    -2692.3154207377

                    Orbital Energies (a.u.)
 --------------------------------------------------------------

 Alpha MOs
 -- Occupied --
******* -62.550 -56.374 -56.367 -56.366 -10.179 -10.175 -10.175
 -8.737  -6.574  -6.552  -6.552  -2.665  -2.659  -2.659  -2.643
 -2.643  -0.796  -0.771  -0.685  -0.565  -0.446  -0.428  -0.404
 -0.384  -0.362  -0.349  -0.342  -0.319  -0.316  -0.164

 Beta MOs
 -- Occupied --
******* -62.548 -56.368 -56.365 -56.365 -10.176 -10.176 -10.165
 -8.733  -6.563  -6.550  -6.549  -2.656  -2.653  -2.653  -2.642
 -2.642  -0.763  -0.742  -0.683  -0.544  -0.441  -0.410  -0.397
 -0.376  -0.344  -0.337  -0.302  -0.298

          Ground-State Mulliken Net Atomic Charges

     Atom                 Charge (a.u.)    Spin (a.u.)
  --------------------------------------------------------
      1 Br                    0.020276       1.033217
      2 C                    -0.085999       0.979828
      3 C                    -0.328598      -0.070891
      4 C                    -0.328689      -0.070783
      5 H                     0.088588      -0.041474
      6 H                     0.102777       0.007851
      7 H                     0.107721       0.057214
      8 H                     0.106395       0.019646
      9 H                     0.102127       0.007915
     10 H                     0.108121       0.057909
     11 H                     0.107282       0.019568
  --------------------------------------------------------
  Sum of atomic charges =     0.000000

                    Cartesian Multipole Moments
 -----------------------------------------------------------------
    Charge (ESU x 10^10)
                -0.0000
    Dipole Moment (Debye)
         X      -0.3432      Y      -0.0032      Z       0.0211
       Tot       0.3439
    Quadrupole Moments (Debye-Ang)
        XX     -40.6565     XY      -0.0474     YY     -36.7177
        XZ       0.2989     YZ       0.1518     ZZ     -39.2621

 Final energy is   -2692.31542073774
 **  OPTIMIZATION CONVERGED  **
 Total job time:  76.11s(wall), 825.94s(cpu)
        *  Thank you very much for using Q-Chem.  Have a nice day.  *
