 Q-Chem 5.1, Q-Chem, Inc., Pleasanton, CA (2018)
 Q-Chem 5.1.1 for Intel X86 EM64T Linux

User input:
--------------------------------------------------------------

$comment
potential surface scanner
$end

$rem
JOBTYPE  PES_SCAN
UNRESTRICTED TRUE
SYM_IGNORE  TRUE
GEOM_OPT_MAX_CYCLES 400
SCF_MAX_CYCLES 400
METHOD   B3LYP
BASIS   6-31G**
PDB_PRINT 2
SCF_CONVERGENCE 6
THRESH 14
SCF_PRINT 1
$end
$molecule
0 3
Br 2.178057 0.005421 1.202475
C -0.290667 -0.000298 0.109145
C -0.901118 -1.313959 -0.234068
C -0.888956 1.311977 -0.259718
H 0.301867 0.005987 1.068804
H -0.219450 -2.144210 -0.027195
H -1.834396 -1.503751 0.322920
H -1.160300 -1.341573 -1.300809
H -0.193928 2.138299 -0.083276
H -1.811582 1.528004 0.305402
H -1.163129 1.315503 -1.322978
$end
$scan
stre 1 2 2.600000 2.601000 0.100000
$end
--------------------------------------------------------------

   10   -2692.3212852908      4.39e-07  Convergence criterion met
 Total energy in the final basis set =    -2692.3212852908
   10   -2692.3162275058      4.50e-07  Convergence criterion met
 Total energy in the final basis set =    -2692.3162275058
   10   -2692.3164392194      4.32e-07  Convergence criterion met
 Total energy in the final basis set =    -2692.3164392194
   10   -2692.3165375172      4.26e-07  Convergence criterion met
 Total energy in the final basis set =    -2692.3165375172
   10   -2692.3165623050      4.28e-07  Convergence criterion met
 Total energy in the final basis set =    -2692.3165623050
   10   -2692.3165832958      4.34e-07  Convergence criterion met
 Total energy in the final basis set =    -2692.3165832958
   10   -2692.3165879931      4.37e-07  Convergence criterion met
 Total energy in the final basis set =    -2692.3165879931

             Standard Nuclear Orientation (Angstroms)
    I     Atom           X                Y                Z
 ----------------------------------------------------------------
    1      Br      2.1387274182     0.0035696822     1.0894502078
    2      C      -0.2760478074    -0.0000912754     0.1256823139
    3      C      -0.8917931978    -1.3102899913    -0.2255702177
    4      C      -0.8796954932     1.3085201321    -0.2515461458
    5      H       0.2582908896     0.0070780531     1.1180205407
    6      H      -0.2238914694    -2.1462142492     0.0026432433
    7      H      -1.8417928421    -1.4875671550     0.3067906815
    8      H      -1.1236808529    -1.3401732602    -1.2984867935
    9      H      -0.1991546545     2.1414148651    -0.0511039822
   10      H      -1.8212047628     1.5104704157     0.2869813359
   11      H      -1.1233592277     1.3146827829    -1.3221591840
 ----------------------------------------------------------------

   10   -2692.3165887661      4.38e-07  Convergence criterion met
 Total energy in the final basis set =    -2692.3165887661

                    Orbital Energies (a.u.)
 --------------------------------------------------------------

 Alpha MOs
 -- Occupied --
******* -62.514 -56.337 -56.331 -56.331 -10.223 -10.196 -10.196
 -8.702  -6.535  -6.518  -6.518  -2.627  -2.623  -2.623  -2.610
 -2.610  -0.815  -0.764  -0.709  -0.600  -0.481  -0.448  -0.429
 -0.403  -0.392  -0.375  -0.301  -0.293  -0.281  -0.200

 Beta MOs
 -- Occupied --
******* -62.513 -56.332 -56.330 -56.330 -10.205 -10.197 -10.197
 -8.698  -6.526  -6.516  -6.516  -2.621  -2.618  -2.617  -2.609
 -2.609  -0.789  -0.733  -0.706  -0.566  -0.464  -0.428  -0.420
 -0.396  -0.371  -0.370  -0.283  -0.281

          Ground-State Mulliken Net Atomic Charges

     Atom                 Charge (a.u.)    Spin (a.u.)
  --------------------------------------------------------
      1 Br                   -0.133168       0.798567
      2 C                    -0.075327       1.122838
      3 C                    -0.339637      -0.062013
      4 C                    -0.339553      -0.062051
      5 H                     0.121737      -0.006478
      6 H                     0.134634       0.012295
      7 H                     0.120297       0.062346
      8 H                     0.128009       0.030028
      9 H                     0.134843       0.012646
     10 H                     0.120396       0.062297
     11 H                     0.127770       0.029526
  --------------------------------------------------------
  Sum of atomic charges =    -0.000000

                    Cartesian Multipole Moments
 -----------------------------------------------------------------
    Charge (ESU x 10^10)
                 0.0000
    Dipole Moment (Debye)
         X      -2.3483      Y      -0.0006      Z      -0.7512
       Tot       2.4655
    Quadrupole Moments (Debye-Ang)
        XX     -40.8360     XY       0.0016     YY     -38.0869
        XZ      -1.3595     YZ      -0.0145     ZZ     -39.9484

 Final energy is   -2692.31658876606
 **  OPTIMIZATION CONVERGED  **
 Total job time:  30.08s(wall), 346.46s(cpu)
        *  Thank you very much for using Q-Chem.  Have a nice day.  *
