 Q-Chem 5.1, Q-Chem, Inc., Pleasanton, CA (2018)
 Q-Chem 5.1.1 for Intel X86 EM64T Linux

User input:
--------------------------------------------------------------

$comment
potential surface scanner
$end

$rem
JOBTYPE  PES_SCAN
UNRESTRICTED TRUE
SYM_IGNORE  TRUE
GEOM_OPT_MAX_CYCLES 400
SCF_MAX_CYCLES 400
METHOD   B3LYP
BASIS   6-31G**
PDB_PRINT 2
SCF_CONVERGENCE 6
THRESH 14
SCF_PRINT 1
$end
$molecule
0 1
Br 1.909091 -0.000505 -0.094969
C -0.234886 0.000055 0.398348
C -0.814103 -1.281107 -0.150038
C -0.813452 1.281499 -0.150062
H -0.151444 0.000046 1.483854
H -0.310744 -2.161583 0.253333
H -1.874632 -1.330574 0.134677
H -0.755243 -1.310067 -1.241188
H -0.309611 2.161724 0.253255
H -1.873940 1.331528 0.134706
H -0.754635 1.310387 -1.241216
$end
$scan
stre 1 2 2.300000 2.301000 0.100000
$end
--------------------------------------------------------------

    9   -2692.4340557368      5.27e-07  Convergence criterion met
 Total energy in the final basis set =    -2692.4340557368
    9   -2692.4281256464      5.74e-07  Convergence criterion met
 Total energy in the final basis set =    -2692.4281256464
    9   -2692.4281972006      6.02e-07  Convergence criterion met
 Total energy in the final basis set =    -2692.4281972006
    9   -2692.4283023143      6.38e-07  Convergence criterion met
 Total energy in the final basis set =    -2692.4283023143
    9   -2692.4283059732      6.40e-07  Convergence criterion met
 Total energy in the final basis set =    -2692.4283059732

             Standard Nuclear Orientation (Angstroms)
    I     Atom           X                Y                Z
 ----------------------------------------------------------------
    1      Br      1.9719551846    -0.0005228930    -0.1023968439
    2      C      -0.2712369621     0.0000653658     0.4056267295
    3      C      -0.8200969829    -1.2843957966    -0.1502515478
    4      C      -0.8194448466     1.2847909347    -0.1502757019
    5      H      -0.1542120006     0.0000486461     1.4871962838
    6      H      -0.3048752286    -2.1571967493     0.2538522046
    7      H      -1.8813419441    -1.3511685763     0.1326911844
    8      H      -0.7602827657    -1.3083605954    -1.2411054232
    9      H      -0.3037410378     2.1573320625     0.2537720159
   10      H      -1.8806388930     1.3521252981     0.1327250957
   11      H      -0.7596835230     1.3086853033    -1.2411339970
 ----------------------------------------------------------------

    9   -2692.4283064432      6.40e-07  Convergence criterion met
 Total energy in the final basis set =    -2692.4283064432

                    Orbital Energies (a.u.)
 --------------------------------------------------------------

 Alpha MOs
 -- Occupied --
******* -62.483 -56.304 -56.301 -56.301 -10.274 -10.204 -10.204
 -8.669  -6.498  -6.487  -6.487  -2.592  -2.589  -2.589  -2.580
 -2.580  -0.823  -0.719  -0.716  -0.597  -0.482  -0.457  -0.435
 -0.411  -0.380  -0.377  -0.306  -0.260  -0.260

 Beta MOs
 -- Occupied --
******* -62.483 -56.304 -56.301 -56.301 -10.274 -10.204 -10.204
 -8.669  -6.498  -6.487  -6.487  -2.592  -2.589  -2.589  -2.580
 -2.580  -0.823  -0.719  -0.716  -0.597  -0.482  -0.457  -0.435
 -0.411  -0.380  -0.377  -0.306  -0.260  -0.260

          Ground-State Mulliken Net Atomic Charges

     Atom                 Charge (a.u.)    Spin (a.u.)
  --------------------------------------------------------
      1 Br                   -0.260737       0.000000
      2 C                    -0.080514      -0.000000
      3 C                    -0.313677      -0.000000
      4 C                    -0.313676       0.000000
      5 H                     0.160141      -0.000000
      6 H                     0.143977       0.000000
      7 H                     0.120453       0.000000
      8 H                     0.139801       0.000000
      9 H                     0.143978      -0.000000
     10 H                     0.120454      -0.000000
     11 H                     0.139799      -0.000000
  --------------------------------------------------------
  Sum of atomic charges =    -0.000000

                    Cartesian Multipole Moments
 -----------------------------------------------------------------
    Charge (ESU x 10^10)
                 0.0000
    Dipole Moment (Debye)
         X      -3.7315      Y       0.0010      Z       0.5363
       Tot       3.7698
    Quadrupole Moments (Debye-Ang)
        XX     -42.8844     XY       0.0014     YY     -37.6314
        XZ      -0.0964     YZ       0.0000     ZZ     -38.2898

 Final energy is   -2692.42830644319
 **  OPTIMIZATION CONVERGED  **
 Total job time:  23.16s(wall), 256.00s(cpu)
        *  Thank you very much for using Q-Chem.  Have a nice day.  *
