 Q-Chem 5.1, Q-Chem, Inc., Pleasanton, CA (2018)
 Q-Chem 5.1.1 for Intel X86 EM64T Linux

User input:
--------------------------------------------------------------

$comment
potential surface scanner
$end

$rem
JOBTYPE  PES_SCAN
UNRESTRICTED TRUE
SYM_IGNORE  TRUE
GEOM_OPT_MAX_CYCLES 400
SCF_MAX_CYCLES 400
METHOD   B3LYP
BASIS   6-31G**
PDB_PRINT 2
SCF_CONVERGENCE 6
THRESH 14
SCF_PRINT 1
$end
$molecule
0 3
Br 3.786395 -0.000068 0.134707
C -0.603203 0.000022 0.437077
C -1.027587 -1.301173 -0.157035
C -1.026581 1.301492 -0.157143
H -0.203936 -0.000087 1.448904
H -0.415639 -2.134447 0.204666
H -2.076483 -1.550899 0.085552
H -0.964150 -1.283487 -1.252923
H -0.413881 2.134295 0.204372
H -2.075233 1.552138 0.085559
H -0.963304 1.283614 -1.253035
$end
$scan
stre 1 2 4.300000 4.301000 0.100000
$end
--------------------------------------------------------------

   10   -2692.3278702015      3.35e-07  Convergence criterion met
 Total energy in the final basis set =    -2692.3278702015
   10   -2692.3278375537      3.35e-07  Convergence criterion met
 Total energy in the final basis set =    -2692.3278375537
   10   -2692.3278710999      3.35e-07  Convergence criterion met
 Total energy in the final basis set =    -2692.3278710999
   10   -2692.3278844445      3.35e-07  Convergence criterion met
 Total energy in the final basis set =    -2692.3278844445
   10   -2692.3278857251      3.35e-07  Convergence criterion met
 Total energy in the final basis set =    -2692.3278857251
   10   -2692.3278895818      3.36e-07  Convergence criterion met
 Total energy in the final basis set =    -2692.3278895818
   10   -2692.3278937045      3.36e-07  Convergence criterion met
 Total energy in the final basis set =    -2692.3278937045
   10   -2692.3279023255      3.35e-07  Convergence criterion met
   10   -2692.3279098161      3.35e-07  Convergence criterion met
 Total energy in the final basis set =    -2692.3279098161
   10   -2692.3279140667      3.34e-07  Convergence criterion met
 Total energy in the final basis set =    -2692.3279140667
   10   -2692.3279160339      3.34e-07  Convergence criterion met
 Total energy in the final basis set =    -2692.3279160339
   10   -2692.3279180296      3.34e-07  Convergence criterion met
 Total energy in the final basis set =    -2692.3279180296
   10   -2692.3279210372      3.34e-07  Convergence criterion met
 Total energy in the final basis set =    -2692.3279210372
   10   -2692.3279235797      3.35e-07  Convergence criterion met
 Total energy in the final basis set =    -2692.3279235797

             Standard Nuclear Orientation (Angstroms)
    I     Atom           X                Y                Z
 ----------------------------------------------------------------
    1      Br      3.7033739165     0.0002392331     0.1082104666
    2      C      -0.5841886246    -0.0000354414     0.4350252623
    3      C      -1.0241523050    -1.2996472263    -0.1509924048
    4      C      -1.0230375297     1.2999131135    -0.1510746478
    5      H      -0.1386380540    -0.0001862679     1.4265995856
    6      H      -0.4505158710    -2.1432241900     0.2463573909
    7      H      -2.0887750096    -1.5118207120     0.0550272289
    8      H      -0.9213176532    -1.3049232261    -1.2447804846
    9      H      -0.4483647241     2.1429694090     0.2458871132
   10      H      -2.0873532320     1.5132521498     0.0553419100
   11      H      -0.9206329134     1.3048631582    -1.2449004205
 ----------------------------------------------------------------

   10   -2692.3279245752      3.35e-07  Convergence criterion met
 Total energy in the final basis set =    -2692.3279245752

                    Orbital Energies (a.u.)
 --------------------------------------------------------------

 Alpha MOs
 -- Occupied --
******* -62.555 -56.379 -56.372 -56.372 -10.184 -10.175 -10.175
 -8.742  -6.579  -6.557  -6.557  -2.670  -2.664  -2.664  -2.648
 -2.648  -0.795  -0.775  -0.686  -0.565  -0.446  -0.423  -0.403
 -0.380  -0.369  -0.350  -0.343  -0.321  -0.320  -0.177

 Beta MOs
 -- Occupied --
******* -62.554 -56.374 -56.371 -56.371 -10.176 -10.176 -10.170
 -8.738  -6.568  -6.555  -6.555  -2.662  -2.658  -2.658  -2.647
 -2.647  -0.758  -0.751  -0.683  -0.544  -0.441  -0.406  -0.397
 -0.374  -0.346  -0.337  -0.307  -0.306

          Ground-State Mulliken Net Atomic Charges

     Atom                 Charge (a.u.)    Spin (a.u.)
  --------------------------------------------------------
      1 Br                   -0.002127       1.002695
      2 C                    -0.067414       1.016281
      3 C                    -0.334070      -0.079954
      4 C                    -0.334068      -0.079952
      5 H                     0.089267      -0.046567
      6 H                     0.107935       0.006895
      7 H                     0.108383       0.062972
      8 H                     0.107888       0.023884
      9 H                     0.107945       0.006908
     10 H                     0.108381       0.062977
     11 H                     0.107881       0.023860
  --------------------------------------------------------
  Sum of atomic charges =    -0.000000

                    Cartesian Multipole Moments
 -----------------------------------------------------------------
    Charge (ESU x 10^10)
                -0.0000
    Dipole Moment (Debye)
         X      -0.2301      Y       0.0001      Z       0.0029
       Tot       0.2301
    Quadrupole Moments (Debye-Ang)
        XX     -39.9433     XY       0.0021     YY     -36.4260
        XZ       0.3358     YZ      -0.0021     ZZ     -39.2742

 Final energy is   -2692.32792457522
 **  OPTIMIZATION CONVERGED  **
 Total job time:  53.22s(wall), 610.38s(cpu)
        *  Thank you very much for using Q-Chem.  Have a nice day.  *
