 Q-Chem 5.1, Q-Chem, Inc., Pleasanton, CA (2018)
 Q-Chem 5.1.1 for Intel X86 EM64T Linux

User input:
--------------------------------------------------------------

$comment
potential surface scanner
$end

$rem
JOBTYPE  PES_SCAN
UNRESTRICTED TRUE
SYM_IGNORE  TRUE
GEOM_OPT_MAX_CYCLES 400
SCF_MAX_CYCLES 400
METHOD   B3LYP
BASIS   6-31G**
PDB_PRINT 2
SCF_CONVERGENCE 6
THRESH 14
SCF_PRINT 1
$end
$molecule
0 3
Br 4.899396 -0.001192 0.716939
C -0.579757 0.000178 0.238530
C -1.175734 -1.298705 -0.190390
C -1.175245 1.299247 -0.190504
H 0.139380 0.000084 1.053598
H -0.509814 -2.143335 0.013082
H -2.128477 -1.510879 0.327409
H -1.408467 -1.299981 -1.264018
H -0.508932 2.143622 0.012745
H -2.127819 1.511901 0.327408
H -1.408130 1.300459 -1.264097
$end
$scan
stre 1 2 5.400000 5.401000 0.100000
$end
--------------------------------------------------------------

   10   -2692.3279886218      3.38e-07  Convergence criterion met
 Total energy in the final basis set =    -2692.3279886218
   10   -2692.3276945556      3.62e-07  Convergence criterion met
 Total energy in the final basis set =    -2692.3276945556
   10   -2692.3279010323      3.48e-07  Convergence criterion met
 Total energy in the final basis set =    -2692.3279010323
   10   -2692.3279658461      3.39e-07  Convergence criterion met
 Total energy in the final basis set =    -2692.3279658461

             Standard Nuclear Orientation (Angstroms)
    I     Atom           X                Y                Z
 ----------------------------------------------------------------
    1      Br      4.8038222497    -0.0011605501     0.6400607964
    2      C      -0.5832211629     0.0001770238     0.2662100148
    3      C      -1.1620057444    -1.2985541429    -0.1863489995
    4      C      -1.1615093576     1.2990891099    -0.1864650522
    5      H       0.1001605085     0.0000891493     1.1115611214
    6      H      -0.5055267324    -2.1436266835     0.0442074495
    7      H      -2.1350971029    -1.5095734780     0.2924367602
    8      H      -1.3507502331    -1.2998738812    -1.2685883299
    9      H      -0.5046279681     2.1439088632     0.0438722788
   10      H      -2.1344389143     1.5105969808     0.2924326885
   11      H      -1.3504045425     1.3003266087    -1.2686767279
 ----------------------------------------------------------------

   10   -2692.3279663215      3.39e-07  Convergence criterion met
 Total energy in the final basis set =    -2692.3279663215

                    Orbital Energies (a.u.)
 --------------------------------------------------------------

 Alpha MOs
 -- Occupied --
******* -62.557 -56.381 -56.374 -56.374 -10.184 -10.175 -10.175
 -8.744  -6.581  -6.559  -6.559  -2.672  -2.666  -2.666  -2.650
 -2.650  -0.797  -0.775  -0.685  -0.565  -0.446  -0.423  -0.403
 -0.380  -0.371  -0.349  -0.343  -0.323  -0.322  -0.177

 Beta MOs
 -- Occupied --
******* -62.556 -56.376 -56.373 -56.373 -10.176 -10.176 -10.170
 -8.740  -6.570  -6.557  -6.557  -2.664  -2.660  -2.660  -2.649
 -2.649  -0.758  -0.753  -0.683  -0.544  -0.441  -0.406  -0.397
 -0.374  -0.346  -0.338  -0.309  -0.308

          Ground-State Mulliken Net Atomic Charges

     Atom                 Charge (a.u.)    Spin (a.u.)
  --------------------------------------------------------
      1 Br                   -0.000011       1.000079
      2 C                    -0.071468       1.019455
      3 C                    -0.333298      -0.080041
      4 C                    -0.333299      -0.080041
      5 H                     0.089053      -0.046549
      6 H                     0.108500       0.007101
      7 H                     0.108693       0.062993
      8 H                     0.107312       0.023457
      9 H                     0.108518       0.007105
     10 H                     0.108690       0.062993
     11 H                     0.107309       0.023449
  --------------------------------------------------------
  Sum of atomic charges =    -0.000000

                    Cartesian Multipole Moments
 -----------------------------------------------------------------
    Charge (ESU x 10^10)
                 0.0000
    Dipole Moment (Debye)
         X      -0.1867      Y       0.0002      Z       0.0546
       Tot       0.1945
    Quadrupole Moments (Debye-Ang)
        XX     -39.5205     XY       0.0100     YY     -36.4047
        XZ       0.4426     YZ       0.0051     ZZ     -39.5185

 Final energy is   -2692.32796632150
 **  OPTIMIZATION CONVERGED  **
 Total job time:  15.99s(wall), 183.57s(cpu)
        *  Thank you very much for using Q-Chem.  Have a nice day.  *
