 Q-Chem 5.1, Q-Chem, Inc., Pleasanton, CA (2018)
 Q-Chem 5.1.1 for Intel X86 EM64T Linux

User input:
--------------------------------------------------------------

$comment
potential surface scanner
$end

$rem
JOBTYPE  PES_SCAN
UNRESTRICTED TRUE
SYM_IGNORE  TRUE
GEOM_OPT_MAX_CYCLES 400
SCF_MAX_CYCLES 400
METHOD   B3LYP
BASIS   6-31G**
PDB_PRINT 2
SCF_CONVERGENCE 6
THRESH 14
SCF_PRINT 1
$end
$molecule
0 3
Br 3.481377 0.000545 -0.027624
C -0.588235 -0.000079 0.470630
C -0.989646 -1.299655 -0.143120
C -0.988373 1.299856 -0.143184
H -0.252142 -0.000211 1.504814
H -0.431619 -2.141662 0.279521
H -2.061799 -1.519408 0.010035
H -0.832305 -1.299101 -1.229859
H -0.429231 2.141287 0.279134
H -2.060215 1.520880 0.010328
H -0.831414 1.298948 -1.229974
$end
$scan
stre 1 2 4.000000 4.001000 0.100000
$end
--------------------------------------------------------------

   10   -2692.3278597131      3.36e-07  Convergence criterion met
 Total energy in the final basis set =    -2692.3278597131
   10   -2692.3277604794      3.35e-07  Convergence criterion met
 Total energy in the final basis set =    -2692.3277604794
   10   -2692.3277692769      3.36e-07  Convergence criterion met
 Total energy in the final basis set =    -2692.3277692769
   10   -2692.3277739230      3.37e-07  Convergence criterion met
 Total energy in the final basis set =    -2692.3277739230

             Standard Nuclear Orientation (Angstroms)
    I     Atom           X                Y                Z
 ----------------------------------------------------------------
    1      Br      3.3757347515     0.0005632260    -0.0629073767
    2      C      -0.5870489312    -0.0000797760     0.4814686944
    3      C      -0.9761455392    -1.2993871423    -0.1408217080
    4      C      -0.9748608689     1.2995831780    -0.1408766499
    5      H      -0.2773081896    -0.0002028818     1.5239267613
    6      H      -0.4212133296    -2.1406819853     0.2875283536
    7      H      -2.0494652218    -1.5232305227    -0.0023686528
    8      H      -0.8037667255    -1.2956357137    -1.2251144764
    9      H      -0.4188012719     2.1402932255     0.2871620627
   10      H      -2.0478678608     1.5247070895    -0.0020715231
   11      H      -0.8028588130     1.2954713028    -1.2252244851
 ----------------------------------------------------------------

   10   -2692.3277745926      3.37e-07  Convergence criterion met
 Total energy in the final basis set =    -2692.3277745926

                    Orbital Energies (a.u.)
 --------------------------------------------------------------

 Alpha MOs
 -- Occupied --
******* -62.554 -56.378 -56.371 -56.371 -10.184 -10.175 -10.175
 -8.741  -6.578  -6.555  -6.555  -2.669  -2.663  -2.663  -2.647
 -2.647  -0.794  -0.775  -0.686  -0.565  -0.446  -0.423  -0.403
 -0.381  -0.368  -0.350  -0.343  -0.320  -0.319  -0.177

 Beta MOs
 -- Occupied --
******* -62.552 -56.373 -56.369 -56.369 -10.176 -10.176 -10.171
 -8.737  -6.567  -6.554  -6.554  -2.661  -2.657  -2.657  -2.646
 -2.646  -0.758  -0.750  -0.683  -0.544  -0.441  -0.406  -0.397
 -0.375  -0.345  -0.337  -0.306  -0.305

          Ground-State Mulliken Net Atomic Charges

     Atom                 Charge (a.u.)    Spin (a.u.)
  --------------------------------------------------------
      1 Br                   -0.003439       1.004713
      2 C                    -0.062495       1.012690
      3 C                    -0.334737      -0.078814
      4 C                    -0.334731      -0.078812
      5 H                     0.087214      -0.045444
      6 H                     0.107838       0.008308
      7 H                     0.108075       0.064128
      8 H                     0.108183       0.020401
      9 H                     0.107845       0.008321
     10 H                     0.108072       0.064127
     11 H                     0.108176       0.020381
  --------------------------------------------------------
  Sum of atomic charges =     0.000000

                    Cartesian Multipole Moments
 -----------------------------------------------------------------
    Charge (ESU x 10^10)
                 0.0000
    Dipole Moment (Debye)
         X      -0.2831      Y       0.0001      Z      -0.0028
       Tot       0.2831
    Quadrupole Moments (Debye-Ang)
        XX     -40.0753     XY       0.0011     YY     -36.4420
        XZ       0.2430     YZ      -0.0026     ZZ     -39.1926

 Final energy is   -2692.32777459264
 **  OPTIMIZATION CONVERGED  **
 Total job time:  17.49s(wall), 199.85s(cpu)
        *  Thank you very much for using Q-Chem.  Have a nice day.  *
