 Q-Chem 5.1, Q-Chem, Inc., Pleasanton, CA (2018)
 Q-Chem 5.1.1 for Intel X86 EM64T Linux

User input:
--------------------------------------------------------------

$comment
potential surface scanner
$end

$rem
JOBTYPE  PES_SCAN
UNRESTRICTED TRUE
SYM_IGNORE  TRUE
GEOM_OPT_MAX_CYCLES 400
SCF_MAX_CYCLES 400
METHOD   B3LYP
BASIS   6-31G**
PDB_PRINT 2
SCF_CONVERGENCE 6
THRESH 14
SCF_PRINT 1
$end
$molecule
0 3
Br 2.747367 0.009615 -0.219076
C -0.570226 -0.001220 0.524873
C -0.905207 -1.300937 -0.127440
C -0.900430 1.299092 -0.128694
H -0.344487 -0.000961 1.588525
H -0.374481 -2.139577 0.336084
H -1.983283 -1.535274 -0.065602
H -0.656200 -1.290401 -1.196663
H -0.373591 2.137718 0.339380
H -1.978960 1.533474 -0.074390
H -0.644105 1.289871 -1.196294
$end
$scan
stre 1 2 3.300000 3.301000 0.100000
$end
--------------------------------------------------------------

   10   -2692.3259365689      7.10e-07  Convergence criterion met
 Total energy in the final basis set =    -2692.3259365689
   13   -2692.3250531152      9.97e-07  Convergence criterion met
 Total energy in the final basis set =    -2692.3250531152
   13   -2692.3251196467      9.75e-07  Convergence criterion met
 Total energy in the final basis set =    -2692.3251196467
   13   -2692.3251328076      9.42e-07  Convergence criterion met
 Total energy in the final basis set =    -2692.3251328076
   11   -2692.3251341879      9.95e-07  Convergence criterion met
 Total energy in the final basis set =    -2692.3251341879
   13   -2692.3251359746      9.35e-07  Convergence criterion met
 Total energy in the final basis set =    -2692.3251359746
   10   -2692.3251375545      9.51e-07  Convergence criterion met
 Total energy in the final basis set =    -2692.3251375545
   10   -2692.3251404307      7.62e-07  Convergence criterion met
 Total energy in the final basis set =    -2692.3251404307
   10   -2692.3251414990      6.65e-07  Convergence criterion met
 Total energy in the final basis set =    -2692.3251414990

             Standard Nuclear Orientation (Angstroms)
    I     Atom           X                Y                Z
 ----------------------------------------------------------------
    1      Br      2.6648480615     0.0071369785    -0.2299582469
    2      C      -0.5481470792    -0.0007329742     0.5227710190
    3      C      -0.8955911900    -1.2990548023    -0.1263887600
    4      C      -0.8925148836     1.2979942795    -0.1272544275
    5      H      -0.3303861373    -0.0006406523     1.5882127034
    6      H      -0.3852848761    -2.1441544490     0.3482190663
    7      H      -1.9782937406    -1.5143432654    -0.0770478197
    8      H      -0.6333895155    -1.2992362159    -1.1927353802
    9      H      -0.3836494417     2.1425101940     0.3497902434
   10      H      -1.9753301375     1.5134777060    -0.0823895889
   11      H      -0.6258640601     1.2984432011    -1.1925158090
 ----------------------------------------------------------------

   10   -2692.3251420650      6.42e-07  Convergence criterion met
 Total energy in the final basis set =    -2692.3251420650

                    Orbital Energies (a.u.)
 --------------------------------------------------------------

 Alpha MOs
 -- Occupied --
******* -62.551 -56.376 -56.368 -56.368 -10.183 -10.175 -10.175
 -8.738  -6.575  -6.553  -6.553  -2.666  -2.661  -2.660  -2.644
 -2.644  -0.792  -0.774  -0.686  -0.565  -0.446  -0.424  -0.403
 -0.382  -0.365  -0.349  -0.342  -0.318  -0.317  -0.174

 Beta MOs
 -- Occupied --
******* -62.550 -56.370 -56.367 -56.367 -10.176 -10.176 -10.169
 -8.734  -6.564  -6.551  -6.551  -2.658  -2.654  -2.654  -2.643
 -2.643  -0.759  -0.747  -0.683  -0.544  -0.441  -0.407  -0.397
 -0.375  -0.345  -0.337  -0.304  -0.301

          Ground-State Mulliken Net Atomic Charges

     Atom                 Charge (a.u.)    Spin (a.u.)
  --------------------------------------------------------
      1 Br                   -0.001080       1.011631
      2 C                    -0.061172       1.005980
      3 C                    -0.333402      -0.077581
      4 C                    -0.333965      -0.077491
      5 H                     0.086676      -0.044837
      6 H                     0.105519       0.008173
      7 H                     0.107392       0.061961
      8 H                     0.108455       0.020908
      9 H                     0.105448       0.008011
     10 H                     0.107720       0.062091
     11 H                     0.108408       0.021156
  --------------------------------------------------------
  Sum of atomic charges =     0.000000

                    Cartesian Multipole Moments
 -----------------------------------------------------------------
    Charge (ESU x 10^10)
                 0.0000
    Dipole Moment (Debye)
         X      -0.3155      Y      -0.0025      Z       0.0001
       Tot       0.3155
    Quadrupole Moments (Debye-Ang)
        XX     -40.3620     XY      -0.0813     YY     -36.5502
        XZ       0.2514     YZ      -0.0393     ZZ     -39.2027

 Final energy is   -2692.32514206495
 **  OPTIMIZATION CONVERGED  **
 Total job time:  39.87s(wall), 456.89s(cpu)
        *  Thank you very much for using Q-Chem.  Have a nice day.  *
