 Q-Chem 5.1, Q-Chem, Inc., Pleasanton, CA (2018)
 Q-Chem 5.1.1 for Intel X86 EM64T Linux

User input:
--------------------------------------------------------------

$comment
potential surface scanner
$end

$rem
JOBTYPE  PES_SCAN
UNRESTRICTED TRUE
SYM_IGNORE  TRUE
GEOM_OPT_MAX_CYCLES 400
SCF_MAX_CYCLES 400
METHOD   B3LYP
BASIS   6-31G**
PDB_PRINT 2
SCF_CONVERGENCE 6
THRESH 14
SCF_PRINT 1
$end
$molecule
0 3
Br 4.604054 -0.001098 0.484848
C -0.593360 0.000176 0.320861
C -1.133351 -1.298582 -0.177426
C -1.132840 1.299099 -0.177548
H 0.015989 0.000106 1.221212
H -0.497751 -2.143687 0.105774
H -2.142201 -1.509817 0.220296
H -1.233074 -1.299809 -1.271464
H -0.496828 2.143960 0.105458
H -2.141549 1.510835 0.220265
H -1.232689 1.300216 -1.271574
$end
$scan
stre 1 2 5.100000 5.101000 0.100000
$end
--------------------------------------------------------------

   10   -2692.3279335743      3.39e-07  Convergence criterion met
 Total energy in the final basis set =    -2692.3279335743
   10   -2692.3277840855      3.52e-07  Convergence criterion met
 Total energy in the final basis set =    -2692.3277840855
   10   -2692.3278827430      3.44e-07  Convergence criterion met
 Total energy in the final basis set =    -2692.3278827430
   10   -2692.3279144685      3.39e-07  Convergence criterion met
 Total energy in the final basis set =    -2692.3279144685

             Standard Nuclear Orientation (Angstroms)
    I     Atom           X                Y                Z
 ----------------------------------------------------------------
    1      Br      4.5001752658    -0.0009850790     0.4099330135
    2      C      -0.5994302609     0.0001597069     0.3465011154
    3      C      -1.1186547691    -1.2987799599    -0.1728353612
    4      C      -1.1180892841     1.2992751696    -0.1729589153
    5      H      -0.0268405408     0.0000866973     1.2707344998
    6      H      -0.4935840827    -2.1433706925     0.1344668846
    7      H      -2.1419412978    -1.5116235144     0.1853236768
    8      H      -1.1759389554    -1.2997075197    -1.2698940181
    9      H      -0.4925737670     2.1436033089     0.1341613242
   10      H      -2.1412350026     1.5126605309     0.1852808094
   11      H      -1.1754873055     1.3000803519    -1.2700110290
 ----------------------------------------------------------------

   10   -2692.3279152467      3.38e-07  Convergence criterion met
 Total energy in the final basis set =    -2692.3279152467

                    Orbital Energies (a.u.)
 --------------------------------------------------------------

 Alpha MOs
 -- Occupied --
******* -62.556 -56.381 -56.373 -56.373 -10.184 -10.175 -10.175
 -8.744  -6.580  -6.558  -6.558  -2.671  -2.666  -2.666  -2.649
 -2.649  -0.796  -0.775  -0.685  -0.565  -0.446  -0.423  -0.403
 -0.380  -0.371  -0.349  -0.343  -0.322  -0.322  -0.177

 Beta MOs
 -- Occupied --
******* -62.555 -56.375 -56.372 -56.372 -10.176 -10.176 -10.170
 -8.740  -6.570  -6.556  -6.556  -2.663  -2.660  -2.660  -2.648
 -2.648  -0.758  -0.753  -0.683  -0.544  -0.441  -0.406  -0.397
 -0.374  -0.346  -0.338  -0.308  -0.308

          Ground-State Mulliken Net Atomic Charges

     Atom                 Charge (a.u.)    Spin (a.u.)
  --------------------------------------------------------
      1 Br                   -0.000195       1.000288
      2 C                    -0.070433       1.019161
      3 C                    -0.333453      -0.079961
      4 C                    -0.333456      -0.079960
      5 H                     0.088675      -0.046505
      6 H                     0.108420       0.007196
      7 H                     0.108625       0.063078
      8 H                     0.107380       0.023216
      9 H                     0.108437       0.007200
     10 H                     0.108623       0.063078
     11 H                     0.107377       0.023210
  --------------------------------------------------------
  Sum of atomic charges =    -0.000000

                    Cartesian Multipole Moments
 -----------------------------------------------------------------
    Charge (ESU x 10^10)
                 0.0000
    Dipole Moment (Debye)
         X      -0.2010      Y       0.0002      Z       0.0306
       Tot       0.2033
    Quadrupole Moments (Debye-Ang)
        XX     -39.6827     XY       0.0084     YY     -36.4074
        XZ       0.4007     YZ      -0.0006     ZZ     -39.3903

 Final energy is   -2692.32791524666
 **  OPTIMIZATION CONVERGED  **
 Total job time:  16.38s(wall), 187.78s(cpu)
        *  Thank you very much for using Q-Chem.  Have a nice day.  *
