 Q-Chem 5.1, Q-Chem, Inc., Pleasanton, CA (2018)
 Q-Chem 5.1.1 for Intel X86 EM64T Linux

User input:
--------------------------------------------------------------

$comment
potential surface scanner
$end

$rem
JOBTYPE  PES_SCAN
UNRESTRICTED TRUE
SYM_IGNORE  TRUE
GEOM_OPT_MAX_CYCLES 400
SCF_MAX_CYCLES 400
METHOD   B3LYP
BASIS   6-31G**
PDB_PRINT 2
SCF_CONVERGENCE 6
THRESH 14
SCF_PRINT 1
$end
$molecule
0 3
Br 2.037649 0.001556 0.904467
C -0.242460 0.000133 0.155399
C -0.871762 -1.302464 -0.211731
C -0.859450 1.300935 -0.238123
H 0.175206 0.008396 1.205662
H -0.223334 -2.148882 0.035096
H -1.841477 -1.466462 0.288359
H -1.069778 -1.326272 -1.291411
H -0.199688 2.145308 -0.015437
H -1.823444 1.487424 0.265006
H -1.065066 1.301729 -1.316584
$end
$scan
stre 1 2 2.300000 2.301000 0.100000
$end
--------------------------------------------------------------

   10   -2692.3021763511      4.53e-07  Convergence criterion met
 Total energy in the final basis set =    -2692.3021763511
   10   -2692.2914782870      4.73e-07  Convergence criterion met
 Total energy in the final basis set =    -2692.2914782870
   10   -2692.2915431259      4.62e-07  Convergence criterion met
 Total energy in the final basis set =    -2692.2915431259
   10   -2692.2916927022      4.60e-07  Convergence criterion met
 Total energy in the final basis set =    -2692.2916927022
   10   -2692.2917409934      4.62e-07  Convergence criterion met
 Total energy in the final basis set =    -2692.2917409934
   10   -2692.2917728492      4.65e-07  Convergence criterion met
 Total energy in the final basis set =    -2692.2917728492
   10   -2692.2917793482      4.68e-07  Convergence criterion met
 Total energy in the final basis set =    -2692.2917793482
   10   -2692.2917806238      4.69e-07  Convergence criterion met
 Total energy in the final basis set =    -2692.2917806238
   10   -2692.2917817489      4.70e-07  Convergence criterion met
 Total energy in the final basis set =    -2692.2917817489

             Standard Nuclear Orientation (Angstroms)
    I     Atom           X                Y                Z
 ----------------------------------------------------------------
    1      Br      1.9844307762    -0.0001301214     0.8227398194
    2      C      -0.2203162726     0.0003137274     0.1676893950
    3      C      -0.8603907046    -1.2979266481    -0.2059570661
    4      C      -0.8482466531     1.2965838213    -0.2325730881
    5      H       0.1263664534     0.0093895968     1.2457094719
    6      H      -0.2208804704    -2.1505347126     0.0444486979
    7      H      -1.8360464278    -1.4561855162     0.2844785898
    8      H      -1.0487903204    -1.3171289813    -1.2873199529
    9      H      -0.1982356628     2.1475598423    -0.0046187114
   10      H      -1.8194248155     1.4762611722     0.2592049756
   11      H      -1.0420699025     1.2931988195    -1.3130991311
 ----------------------------------------------------------------

   10   -2692.2917823473      4.71e-07  Convergence criterion met
 Total energy in the final basis set =    -2692.2917823473

                    Orbital Energies (a.u.)
 --------------------------------------------------------------

 Alpha MOs
 -- Occupied --
******* -62.514 -56.336 -56.331 -56.331 -10.218 -10.193 -10.193
 -8.702  -6.535  -6.519  -6.517  -2.627  -2.623  -2.622  -2.610
 -2.610  -0.824  -0.762  -0.705  -0.600  -0.479  -0.448  -0.427
 -0.399  -0.391  -0.369  -0.316  -0.293  -0.280  -0.165

 Beta MOs
 -- Occupied --
******* -62.512 -56.332 -56.330 -56.329 -10.200 -10.193 -10.193
 -8.698  -6.526  -6.516  -6.515  -2.620  -2.618  -2.617  -2.609
 -2.609  -0.795  -0.732  -0.702  -0.566  -0.462  -0.428  -0.419
 -0.393  -0.370  -0.364  -0.288  -0.279

          Ground-State Mulliken Net Atomic Charges

     Atom                 Charge (a.u.)    Spin (a.u.)
  --------------------------------------------------------
      1 Br                   -0.104084       0.868261
      2 C                    -0.117746       1.005623
      3 C                    -0.329958      -0.050469
      4 C                    -0.329835      -0.050544
      5 H                     0.138571       0.035971
      6 H                     0.128581       0.012466
      7 H                     0.115383       0.056500
      8 H                     0.127551       0.026689
      9 H                     0.128687       0.012641
     10 H                     0.115440       0.056425
     11 H                     0.127410       0.026437
  --------------------------------------------------------
  Sum of atomic charges =     0.000000

                    Cartesian Multipole Moments
 -----------------------------------------------------------------
    Charge (ESU x 10^10)
                 0.0000
    Dipole Moment (Debye)
         X      -2.2679      Y       0.0024      Z      -0.5418
       Tot       2.3317
    Quadrupole Moments (Debye-Ang)
        XX     -41.4682     XY      -0.0021     YY     -38.4291
        XZ      -1.8140     YZ      -0.0003     ZZ     -39.1039

 Final energy is   -2692.29178234734
 **  OPTIMIZATION CONVERGED  **
 Total job time:  38.99s(wall), 443.66s(cpu)
        *  Thank you very much for using Q-Chem.  Have a nice day.  *
