 Q-Chem 5.1, Q-Chem, Inc., Pleasanton, CA (2018)
 Q-Chem 5.1.1 for Intel X86 EM64T Linux

User input:
--------------------------------------------------------------

$comment
potential surface scanner
$end

$rem
JOBTYPE  PES_SCAN
UNRESTRICTED TRUE
SYM_IGNORE  TRUE
GEOM_OPT_MAX_CYCLES 400
SCF_MAX_CYCLES 400
METHOD   B3LYP
BASIS   6-31G**
PDB_PRINT 2
SCF_CONVERGENCE 6
THRESH 14
SCF_PRINT 1
$end
$molecule
0 1
Br 1.744600 -0.000400 -0.101000
C -0.148200 0.000100 0.395200
C -0.798600 -1.260800 -0.147100
C -0.797900 1.261200 -0.147100
H -0.168300 0.000100 1.489400
H -0.311900 -2.158700 0.249400
H -1.855400 -1.302200 0.136700
H -0.741600 -1.308000 -1.240400
H -0.310700 2.158800 0.249400
H -1.854800 1.303000 0.136600
H -0.740800 1.308300 -1.240400
$end
$scan
stre 1 2 1.100000 1.101000 0.100000
$end
--------------------------------------------------------------

    9   -2692.4381940224      5.80e-07  Convergence criterion met
 Total energy in the final basis set =    -2692.4381940224
    9   -2692.4252909852      5.91e-07  Convergence criterion met
 Total energy in the final basis set =    -2692.4252909852
    9   -2692.3858476832      5.92e-07  Convergence criterion met
 Total energy in the final basis set =    -2692.3858476832
    9   -2692.3143334345      6.06e-07  Convergence criterion met
 Total energy in the final basis set =    -2692.3143334345
    9   -2692.2100183684      6.56e-07  Convergence criterion met
 Total energy in the final basis set =    -2692.2100183684
    9   -2692.0467343322      7.41e-07  Convergence criterion met
 Total energy in the final basis set =    -2692.0467343322
    9   -2691.8236390173      9.11e-07  Convergence criterion met
 Total energy in the final basis set =    -2691.8236390173
   10   -2691.5363809779      3.89e-07  Convergence criterion met
   10   -2691.2931561614      3.95e-07  Convergence criterion met
 Total energy in the final basis set =    -2691.2931561614
   10   -2691.2931577343      3.95e-07  Convergence criterion met
 Total energy in the final basis set =    -2691.2931577343
   10   -2691.2931591763      3.95e-07  Convergence criterion met
 Total energy in the final basis set =    -2691.2931591763
   10   -2691.2931614572      3.95e-07  Convergence criterion met
 Total energy in the final basis set =    -2691.2931614572
   10   -2691.2931647952      3.96e-07  Convergence criterion met
 Total energy in the final basis set =    -2691.2931647952
   10   -2691.2931678544      3.96e-07  Convergence criterion met
 Total energy in the final basis set =    -2691.2931678544

             Standard Nuclear Orientation (Angstroms)
    I     Atom           X                Y                Z
 ----------------------------------------------------------------
    1      Br      1.2934823980    -0.0003356276     0.0618868452
    2      C       0.2226688371    -0.0000680375     0.3135984445
    3      C      -0.7749352292    -1.2611187179    -0.1597036652
    4      C      -0.7742945591     1.2614907888    -0.1597284377
    5      H      -0.2048454297     0.0000526059     1.3806649792
    6      H      -0.3236331803    -2.1791034762     0.2371084226
    7      H      -1.8040000274    -1.1665346159     0.1916304166
    8      H      -0.7463956886    -1.3029691896    -1.2567072314
    9      H      -0.3224927839     2.1792460593     0.2370445193
   10      H      -1.8033967530     1.1674536423     0.1916389795
   11      H      -0.7457575839     1.3032865684    -1.2567332727
 ----------------------------------------------------------------

   10   -2691.2931692090      3.97e-07  Convergence criterion met
 Total energy in the final basis set =    -2691.2931692090

                    Orbital Energies (a.u.)
 --------------------------------------------------------------

 Alpha MOs
 -- Occupied --
******* -62.554 -56.371 -56.370 -56.370 -10.284 -10.178 -10.178
 -8.775  -6.619  -6.585  -6.585  -2.727  -2.699  -2.699  -2.675
 -2.675  -1.051  -0.722  -0.692  -0.584  -0.522  -0.517  -0.440
 -0.406  -0.391  -0.388  -0.366  -0.211  -0.209

 Beta MOs
 -- Occupied --
******* -62.554 -56.371 -56.370 -56.370 -10.284 -10.178 -10.178
 -8.775  -6.619  -6.585  -6.585  -2.727  -2.699  -2.699  -2.675
 -2.675  -1.051  -0.722  -0.692  -0.584  -0.522  -0.517  -0.440
 -0.406  -0.391  -0.388  -0.366  -0.211  -0.209

          Ground-State Mulliken Net Atomic Charges

     Atom                 Charge (a.u.)    Spin (a.u.)
  --------------------------------------------------------
      1 Br                    0.384077      -0.000000
      2 C                    -0.311567      -0.000000
      3 C                    -0.368809       0.000000
      4 C                    -0.368809      -0.000000
      5 H                     0.043568       0.000000
      6 H                     0.099440      -0.000000
      7 H                     0.106241       0.000000
      8 H                     0.105090      -0.000000
      9 H                     0.099439       0.000000
     10 H                     0.106240       0.000000
     11 H                     0.105090       0.000000
  --------------------------------------------------------
  Sum of atomic charges =    -0.000000

                    Cartesian Multipole Moments
 -----------------------------------------------------------------
    Charge (ESU x 10^10)
                -0.0000
    Dipole Moment (Debye)
         X      -0.7929      Y       0.0002      Z       0.3348
       Tot       0.8607
    Quadrupole Moments (Debye-Ang)
        XX     -40.0348     XY       0.0004     YY     -38.5987
        XZ       0.2868     YZ      -0.0001     ZZ     -38.0776

 Final energy is   -2691.29316920897
 **  OPTIMIZATION CONVERGED  **
 Total job time:  117.53s(wall), 1346.46s(cpu)
        *  Thank you very much for using Q-Chem.  Have a nice day.  *
