 Q-Chem 5.1, Q-Chem, Inc., Pleasanton, CA (2018)
 Q-Chem 5.1.1 for Intel X86 EM64T Linux

User input:
--------------------------------------------------------------

$comment
potential surface scanner
$end

$rem
JOBTYPE  PES_SCAN
UNRESTRICTED TRUE
SYM_IGNORE  TRUE
GEOM_OPT_MAX_CYCLES 400
SCF_MAX_CYCLES 400
METHOD   B3LYP
BASIS   6-31G**
PDB_PRINT 2
SCF_CONVERGENCE 6
THRESH 14
SCF_PRINT 1
$end
$molecule
0 1
Br 2.169572 -0.000554 -0.118079
C -0.372507 0.000086 0.427657
C -0.840456 -1.290601 -0.149746
C -0.839799 1.291001 -0.149770
H -0.163147 0.000045 1.493725
H -0.288862 -2.141397 0.251311
H -1.901546 -1.410942 0.127384
H -0.779462 -1.295462 -1.240199
H -0.287730 2.141512 0.251234
H -1.900810 1.411918 0.127407
H -0.778854 1.295792 -1.240225
$end
$scan
stre 1 2 2.700000 2.701000 0.100000
$end
--------------------------------------------------------------

   10   -2692.4084499830      3.44e-07  Convergence criterion met
 Total energy in the final basis set =    -2692.4084499830
   10   -2692.4015403714      7.07e-07  Convergence criterion met
 Total energy in the final basis set =    -2692.4015403714
   10   -2692.4015678378      7.32e-07  Convergence criterion met
 Total energy in the final basis set =    -2692.4015678378
   10   -2692.4016900192      7.45e-07  Convergence criterion met
 Total energy in the final basis set =    -2692.4016900192
   10   -2692.4017036775      7.50e-07  Convergence criterion met
 Total energy in the final basis set =    -2692.4017036775
   10   -2692.4017093384      7.55e-07  Convergence criterion met
 Total energy in the final basis set =    -2692.4017093384

             Standard Nuclear Orientation (Angstroms)
    I     Atom           X                Y                Z
 ----------------------------------------------------------------
    1      Br      2.2411966913    -0.0005459292    -0.1169841669
    2      C      -0.4023015863     0.0000889706     0.4324842815
    3      C      -0.8480502999    -1.2918856276    -0.1498935585
    4      C      -0.8473852902     1.2922832974    -0.1499181830
    5      H      -0.1645005648     0.0000394292     1.4923466641
    6      H      -0.2854603254    -2.1359536192     0.2498497056
    7      H      -1.9081701548    -1.4283485932     0.1269374220
    8      H      -0.7889089389    -1.2916457377    -1.2404104651
    9      H      -0.2843240197     2.1360575976     0.2497799876
   10      H      -1.9074207047     1.4293314361     0.1269438630
   11      H      -0.7882758067     1.2919767759    -1.2404365505
 ----------------------------------------------------------------

   10   -2692.4017098659      7.56e-07  Convergence criterion met
 Total energy in the final basis set =    -2692.4017098659

                    Orbital Energies (a.u.)
 --------------------------------------------------------------

 Alpha MOs
 -- Occupied --
******* -62.460 -56.281 -56.278 -56.278 -10.296 -10.219 -10.219
 -8.646  -6.474  -6.464  -6.464  -2.567  -2.565  -2.565  -2.557
 -2.557  -0.836  -0.735  -0.693  -0.611  -0.498  -0.468  -0.452
 -0.425  -0.399  -0.393  -0.269  -0.241  -0.241

 Beta MOs
 -- Occupied --
******* -62.460 -56.281 -56.278 -56.278 -10.296 -10.219 -10.219
 -8.646  -6.474  -6.464  -6.464  -2.567  -2.565  -2.565  -2.557
 -2.557  -0.836  -0.735  -0.693  -0.611  -0.498  -0.468  -0.452
 -0.425  -0.399  -0.393  -0.269  -0.241  -0.241

          Ground-State Mulliken Net Atomic Charges

     Atom                 Charge (a.u.)    Spin (a.u.)
  --------------------------------------------------------
      1 Br                   -0.417924       0.000000
      2 C                     0.004453      -0.000000
      3 C                    -0.332929       0.000000
      4 C                    -0.332927       0.000000
      5 H                     0.174107      -0.000000
      6 H                     0.164182      -0.000000
      7 H                     0.133847       0.000000
      8 H                     0.154582       0.000000
      9 H                     0.164185       0.000000
     10 H                     0.133846      -0.000000
     11 H                     0.154580      -0.000000
  --------------------------------------------------------
  Sum of atomic charges =     0.000000

                    Cartesian Multipole Moments
 -----------------------------------------------------------------
    Charge (ESU x 10^10)
                 0.0000
    Dipole Moment (Debye)
         X      -5.7526      Y       0.0014      Z       0.6998
       Tot       5.7950
    Quadrupole Moments (Debye-Ang)
        XX     -46.6160     XY       0.0025     YY     -36.8336
        XZ       0.1583     YZ      -0.0000     ZZ     -38.1617

 Final energy is   -2692.40170986592
 **  OPTIMIZATION CONVERGED  **
 Total job time:  26.93s(wall), 308.23s(cpu)
        *  Thank you very much for using Q-Chem.  Have a nice day.  *
