 Q-Chem 5.1, Q-Chem, Inc., Pleasanton, CA (2018)
 Q-Chem 5.1.1 for Intel X86 EM64T Linux

User input:
--------------------------------------------------------------

$comment
potential surface scanner
$end

$rem
JOBTYPE  PES_SCAN
UNRESTRICTED TRUE
SYM_IGNORE  TRUE
GEOM_OPT_MAX_CYCLES 400
SCF_MAX_CYCLES 400
METHOD   B3LYP
BASIS   6-31G**
PDB_PRINT 2
SCF_CONVERGENCE 6
THRESH 14
SCF_PRINT 1
$end
$molecule
0 1
Br 2.241197 -0.000546 -0.116984
C -0.402302 0.000089 0.432484
C -0.848050 -1.291886 -0.149894
C -0.847385 1.292283 -0.149918
H -0.164501 0.000039 1.492347
H -0.285460 -2.135954 0.249850
H -1.908170 -1.428349 0.126937
H -0.788909 -1.291646 -1.240410
H -0.284324 2.136058 0.249780
H -1.907421 1.429331 0.126944
H -0.788276 1.291977 -1.240437
$end
$scan
stre 1 2 2.800000 2.801000 0.100000
$end
--------------------------------------------------------------

   10   -2692.4017098250      7.56e-07  Convergence criterion met
 Total energy in the final basis set =    -2692.4017098250
   11   -2692.3950733075      1.91e-07  Convergence criterion met
 Total energy in the final basis set =    -2692.3950733075
   11   -2692.3950547703      1.96e-07  Convergence criterion met
 Total energy in the final basis set =    -2692.3950547703
   11   -2692.3951643182      2.05e-07  Convergence criterion met
 Total energy in the final basis set =    -2692.3951643182
   11   -2692.3951764398      2.08e-07  Convergence criterion met
 Total energy in the final basis set =    -2692.3951764398
   11   -2692.3951828495      2.11e-07  Convergence criterion met
 Total energy in the final basis set =    -2692.3951828495

             Standard Nuclear Orientation (Angstroms)
    I     Atom           X                Y                Z
 ----------------------------------------------------------------
    1      Br      2.3148593057    -0.0005380283    -0.1154070105
    2      C      -0.4300379928     0.0000918720     0.4373463431
    3      C      -0.8559294372    -1.2927527139    -0.1499868506
    4      C      -0.8552556529     1.2931485329    -0.1500124299
    5      H      -0.1666272201     0.0000347065     1.4910711923
    6      H      -0.2829934505    -2.1307626306     0.2477848940
    7      H      -1.9147201866    -1.4449950316     0.1266905906
    8      H      -0.7988720656    -1.2870611826    -1.2405826389
    9      H      -0.2818520293     2.1308550364     0.2477226784
   10      H      -1.9139565409     1.4459818306     0.1266806865
   11      H      -0.7982157298     1.2873936085    -1.2406084552
 ----------------------------------------------------------------

   11   -2692.3951836576      2.11e-07  Convergence criterion met
 Total energy in the final basis set =    -2692.3951836576

                    Orbital Energies (a.u.)
 --------------------------------------------------------------

 Alpha MOs
 -- Occupied --
******* -62.455 -56.276 -56.273 -56.273 -10.301 -10.223 -10.223
 -8.641  -6.469  -6.459  -6.459  -2.562  -2.560  -2.560  -2.553
 -2.553  -0.840  -0.739  -0.688  -0.615  -0.502  -0.471  -0.456
 -0.429  -0.403  -0.397  -0.261  -0.236  -0.236

 Beta MOs
 -- Occupied --
******* -62.455 -56.276 -56.273 -56.273 -10.301 -10.223 -10.223
 -8.641  -6.469  -6.459  -6.459  -2.562  -2.560  -2.560  -2.553
 -2.553  -0.840  -0.739  -0.688  -0.615  -0.502  -0.471  -0.456
 -0.429  -0.403  -0.397  -0.261  -0.236  -0.236

          Ground-State Mulliken Net Atomic Charges

     Atom                 Charge (a.u.)    Spin (a.u.)
  --------------------------------------------------------
      1 Br                   -0.448217       0.000000
      2 C                     0.020801      -0.000000
      3 C                    -0.337920      -0.000000
      4 C                    -0.337918      -0.000000
      5 H                     0.176928       0.000000
      6 H                     0.168570      -0.000000
      7 H                     0.137139      -0.000000
      8 H                     0.157454       0.000000
      9 H                     0.168573       0.000000
     10 H                     0.137137      -0.000000
     11 H                     0.157452       0.000000
  --------------------------------------------------------
  Sum of atomic charges =    -0.000000

                    Cartesian Multipole Moments
 -----------------------------------------------------------------
    Charge (ESU x 10^10)
                 0.0000
    Dipole Moment (Debye)
         X      -6.2463      Y       0.0014      Z       0.7246
       Tot       6.2882
    Quadrupole Moments (Debye-Ang)
        XX     -47.6891     XY       0.0027     YY     -36.6554
        XZ       0.2087     YZ      -0.0001     ZZ     -38.1388

 Final energy is   -2692.39518365758
 **  OPTIMIZATION CONVERGED  **
 Total job time:  28.66s(wall), 325.96s(cpu)
        *  Thank you very much for using Q-Chem.  Have a nice day.  *
