 Q-Chem 5.1, Q-Chem, Inc., Pleasanton, CA (2018)
 Q-Chem 5.1.1 for Intel X86 EM64T Linux

User input:
--------------------------------------------------------------

$comment
potential surface scanner
$end

$rem
JOBTYPE  PES_SCAN
UNRESTRICTED TRUE
SYM_IGNORE  TRUE
GEOM_OPT_MAX_CYCLES 400
SCF_MAX_CYCLES 400
METHOD   B3LYP
BASIS   6-31G**
PDB_PRINT 2
SCF_CONVERGENCE 6
THRESH 14
SCF_PRINT 1
$end
$molecule
0 3
Br 3.157621 0.000706 -0.135367
C -0.588656 -0.000095 0.501352
C -0.950798 -1.300359 -0.134887
C -0.949421 1.300527 -0.134935
H -0.307088 -0.000221 1.551661
H -0.407544 -2.139285 0.312742
H -2.027181 -1.529286 -0.033759
H -0.740539 -1.295353 -1.212465
H -0.405050 2.138851 0.312467
H -2.025500 1.530761 -0.033543
H -0.739446 1.295152 -1.212565
$end
$scan
stre 1 2 3.700000 3.701000 0.100000
$end
--------------------------------------------------------------

   10   -2692.3274830931      3.37e-07  Convergence criterion met
 Total energy in the final basis set =    -2692.3274830931
   10   -2692.3271430307      6.80e-07  Convergence criterion met
 Total energy in the final basis set =    -2692.3271430307
   10   -2692.3272177326      7.74e-07  Convergence criterion met
 Total energy in the final basis set =    -2692.3272177326
   10   -2692.3272421583      8.67e-07  Convergence criterion met
 Total energy in the final basis set =    -2692.3272421583
   10   -2692.3272431883      8.74e-07  Convergence criterion met
 Total energy in the final basis set =    -2692.3272431883
   10   -2692.3272449985      8.92e-07  Convergence criterion met
 Total energy in the final basis set =    -2692.3272449985

             Standard Nuclear Orientation (Angstroms)
    I     Atom           X                Y                Z
 ----------------------------------------------------------------
    1      Br      3.0538958449    -0.0511539431    -0.1656998165
    2      C      -0.5836995624     0.0077666974     0.5084137303
    3      C      -0.9259396668    -1.2953564132    -0.1332731540
    4      C      -0.9489056667     1.3053246425    -0.1317223649
    5      H      -0.3260530024     0.0092886376     1.5650584252
    6      H      -0.3819202744    -2.1302091180     0.3211505869
    7      H      -2.0016593981    -1.5334167135    -0.0474127062
    8      H      -0.7008059041    -1.2875354622    -1.2078371938
    9      H      -0.4148983422     2.1472771892     0.3213868918
   10      H      -2.0276771624     1.5274446571    -0.0425905647
   11      H      -0.7259388652     1.3019678259    -1.2067728341
 ----------------------------------------------------------------

   10   -2692.3272457404      8.96e-07  Convergence criterion met
 Total energy in the final basis set =    -2692.3272457404

                    Orbital Energies (a.u.)
 --------------------------------------------------------------

 Alpha MOs
 -- Occupied --
******* -62.553 -56.377 -56.369 -56.369 -10.184 -10.175 -10.175
 -8.740  -6.577  -6.554  -6.554  -2.667  -2.662  -2.662  -2.646
 -2.646  -0.793  -0.775  -0.686  -0.565  -0.446  -0.423  -0.403
 -0.381  -0.367  -0.350  -0.342  -0.319  -0.318  -0.176

 Beta MOs
 -- Occupied --
******* -62.551 -56.371 -56.368 -56.368 -10.176 -10.176 -10.170
 -8.736  -6.566  -6.553  -6.552  -2.660  -2.656  -2.656  -2.644
 -2.644  -0.758  -0.749  -0.683  -0.544  -0.441  -0.406  -0.397
 -0.375  -0.345  -0.337  -0.305  -0.303

          Ground-State Mulliken Net Atomic Charges

     Atom                 Charge (a.u.)    Spin (a.u.)
  --------------------------------------------------------
      1 Br                   -0.004010       1.006918
      2 C                    -0.060174       1.010774
      3 C                    -0.335022      -0.078669
      4 C                    -0.334740      -0.078807
      5 H                     0.086827      -0.045405
      6 H                     0.106846       0.008503
      7 H                     0.108049       0.063758
      8 H                     0.108505       0.020386
      9 H                     0.107484       0.008681
     10 H                     0.107812       0.063660
     11 H                     0.108425       0.020200
  --------------------------------------------------------
  Sum of atomic charges =     0.000000

                    Cartesian Multipole Moments
 -----------------------------------------------------------------
    Charge (ESU x 10^10)
                 0.0000
    Dipole Moment (Debye)
         X      -0.2929      Y       0.0056      Z      -0.0072
       Tot       0.2930
    Quadrupole Moments (Debye-Ang)
        XX     -40.1706     XY       0.2010     YY     -36.4874
        XZ       0.2330     YZ       0.0269     ZZ     -39.1828

 Final energy is   -2692.32724574044
 **  OPTIMIZATION CONVERGED  **
 Total job time:  24.87s(wall), 285.52s(cpu)
        *  Thank you very much for using Q-Chem.  Have a nice day.  *
