 Q-Chem 5.1, Q-Chem, Inc., Pleasanton, CA (2018)
 Q-Chem 5.1.1 for Intel X86 EM64T Linux

User input:
--------------------------------------------------------------

$comment
potential surface scanner
$end

$rem
JOBTYPE  PES_SCAN
UNRESTRICTED TRUE
SYM_IGNORE  TRUE
GEOM_OPT_MAX_CYCLES 400
SCF_MAX_CYCLES 400
METHOD   B3LYP
BASIS   6-31G**
PDB_PRINT 2
SCF_CONVERGENCE 6
THRESH 14
SCF_PRINT 1
$end
$molecule
0 3
Br 2.847949 -0.030049 -0.209951
C -0.574599 0.004591 0.521466
C -0.905315 -1.296740 -0.129990
C -0.920654 1.302691 -0.128241
H -0.350672 0.004486 1.585795
H -0.375208 -2.133908 0.336738
H -1.983426 -1.531981 -0.071227
H -0.652840 -1.288106 -1.198418
H -0.387504 2.143634 0.328538
H -1.998589 1.534278 -0.054094
H -0.682743 1.292504 -1.199913
$end
$scan
stre 1 2 3.400000 3.401000 0.100000
$end
--------------------------------------------------------------

   16   -2692.3265098625      9.99e-07  Convergence criterion met
 Total energy in the final basis set =    -2692.3265098625
   10   -2692.3256522762      4.16e-07  Convergence criterion met
 Total energy in the final basis set =    -2692.3256522762
   10   -2692.3258564647      5.06e-07  Convergence criterion met
 Total energy in the final basis set =    -2692.3258564647
   10   -2692.3259217893      6.04e-07  Convergence criterion met
 Total energy in the final basis set =    -2692.3259217893
   10   -2692.3259247399      6.27e-07  Convergence criterion met
 Total energy in the final basis set =    -2692.3259247399
   10   -2692.3259288328      6.93e-07  Convergence criterion met
 Total energy in the final basis set =    -2692.3259288328
   10   -2692.3259302720      7.16e-07  Convergence criterion met
 Total energy in the final basis set =    -2692.3259302720
   10   -2692.3259342050      7.64e-07  Convergence criterion met
 Total energy in the final basis set =    -2692.3259342050
   10   -2692.3259358597      7.54e-07  Convergence criterion met
 Total energy in the final basis set =    -2692.3259358597

             Standard Nuclear Orientation (Angstroms)
    I     Atom           X                Y                Z
 ----------------------------------------------------------------
    1      Br      2.7473674908     0.0096151218    -0.2190761689
    2      C      -0.5702256651    -0.0012202297     0.5248732175
    3      C      -0.9052071498    -1.3009369320    -0.1274399594
    4      C      -0.9004300220     1.2990919476    -0.1286935516
    5      H      -0.3444871916    -0.0009609082     1.5885247950
    6      H      -0.3744808351    -2.1395772060     0.3360842537
    7      H      -1.9832831413    -1.5352739244    -0.0656021600
    8      H      -0.6561995862    -1.2904005997    -1.1966634528
    9      H      -0.3735908512     2.1377179100     0.3393800589
   10      H      -1.9789595229     1.5334736105    -0.0743897501
   11      H      -0.6441045255     1.2898712103    -1.1962942825
 ----------------------------------------------------------------

   10   -2692.3259365706      7.09e-07  Convergence criterion met
 Total energy in the final basis set =    -2692.3259365706

                    Orbital Energies (a.u.)
 --------------------------------------------------------------

 Alpha MOs
 -- Occupied --
******* -62.552 -56.376 -56.368 -56.368 -10.183 -10.175 -10.175
 -8.739  -6.576  -6.553  -6.553  -2.666  -2.661  -2.661  -2.644
 -2.644  -0.793  -0.774  -0.686  -0.565  -0.446  -0.424  -0.403
 -0.381  -0.366  -0.350  -0.342  -0.318  -0.317  -0.174

 Beta MOs
 -- Occupied --
******* -62.550 -56.370 -56.367 -56.367 -10.176 -10.176 -10.169
 -8.735  -6.565  -6.552  -6.551  -2.658  -2.655  -2.655  -2.643
 -2.643  -0.758  -0.747  -0.683  -0.544  -0.441  -0.406  -0.397
 -0.375  -0.345  -0.337  -0.304  -0.302

          Ground-State Mulliken Net Atomic Charges

     Atom                 Charge (a.u.)    Spin (a.u.)
  --------------------------------------------------------
      1 Br                   -0.002450       1.009780
      2 C                    -0.060269       1.008662
      3 C                    -0.333726      -0.078400
      4 C                    -0.334318      -0.078362
      5 H                     0.086621      -0.045342
      6 H                     0.106091       0.009107
      7 H                     0.107615       0.062493
      8 H                     0.108338       0.020062
      9 H                     0.105871       0.008822
     10 H                     0.107894       0.062683
     11 H                     0.108334       0.020496
  --------------------------------------------------------
  Sum of atomic charges =     0.000000

                    Cartesian Multipole Moments
 -----------------------------------------------------------------
    Charge (ESU x 10^10)
                 0.0000
    Dipole Moment (Debye)
         X      -0.2985      Y      -0.0032      Z      -0.0062
       Tot       0.2986
    Quadrupole Moments (Debye-Ang)
        XX     -40.3146     XY      -0.0992     YY     -36.5277
        XZ       0.2493     YZ      -0.0389     ZZ     -39.1963

 Final energy is   -2692.32593657065
 **  OPTIMIZATION CONVERGED  **
 Total job time:  36.74s(wall), 426.61s(cpu)
        *  Thank you very much for using Q-Chem.  Have a nice day.  *
