 Q-Chem 5.1, Q-Chem, Inc., Pleasanton, CA (2018)
 Q-Chem 5.1.1 for Intel X86 EM64T Linux

User input:
--------------------------------------------------------------

$comment
potential surface scanner
$end

$rem
JOBTYPE  PES_SCAN
UNRESTRICTED TRUE
SYM_IGNORE  TRUE
GEOM_OPT_MAX_CYCLES 400
SCF_MAX_CYCLES 400
METHOD   B3LYP
BASIS   6-31G**
PDB_PRINT 2
SCF_CONVERGENCE 6
THRESH 14
SCF_PRINT 1
$end
$molecule
0 1
Br 2.036720 -0.000523 -0.106667
C -0.306423 0.000072 0.412641
C -0.826587 -1.287061 -0.150428
C -0.825931 1.287455 -0.150452
H -0.156618 0.000046 1.489487
H -0.298684 -2.152225 0.252871
H -1.887949 -1.371775 0.131372
H -0.766977 -1.305008 -1.241145
H -0.297541 2.152348 0.252789
H -1.887232 1.372740 0.131406
H -0.766377 1.305332 -1.241173
$end
$scan
stre 1 2 2.500000 2.501000 0.100000
$end
--------------------------------------------------------------

   10   -2692.4219492205      2.41e-07  Convergence criterion met
 Total energy in the final basis set =    -2692.4219492205
   10   -2692.4152037183      3.42e-07  Convergence criterion met
 Total energy in the final basis set =    -2692.4152037183
   10   -2692.4151863749      3.47e-07  Convergence criterion met
 Total energy in the final basis set =    -2692.4151863749
   10   -2692.4152814711      3.53e-07  Convergence criterion met
 Total energy in the final basis set =    -2692.4152814711
   10   -2692.4152851481      3.53e-07  Convergence criterion met
 Total energy in the final basis set =    -2692.4152851481

             Standard Nuclear Orientation (Angstroms)
    I     Atom           X                Y                Z
 ----------------------------------------------------------------
    1      Br      2.1014994333    -0.0005437108    -0.1144598071
    2      C      -0.3405231884     0.0000802714     0.4208201100
    3      C      -0.8331911803    -1.2890720508    -0.1499907245
    4      C      -0.8325366750     1.2894703652    -0.1500143625
    5      H      -0.1608105089     0.0000472687     1.4926324192
    6      H      -0.2932782245    -2.1468675435     0.2524907786
    7      H      -1.8947256908    -1.3920109342     0.1289269885
    8      H      -0.7722439618    -1.3003496882    -1.2405236053
    9      H      -0.2921417062     2.1469884225     0.2524088279
   10      H      -1.8939997403     1.3929818686     0.1289614279
   11      H      -0.7716475571     1.3006767311    -1.2405510526
 ----------------------------------------------------------------

   10   -2692.4152859577      3.54e-07  Convergence criterion met
 Total energy in the final basis set =    -2692.4152859577

                    Orbital Energies (a.u.)
 --------------------------------------------------------------

 Alpha MOs
 -- Occupied --
******* -62.471 -56.292 -56.289 -56.289 -10.286 -10.212 -10.212
 -8.657  -6.485  -6.475  -6.475  -2.579  -2.576  -2.576  -2.568
 -2.568  -0.828  -0.726  -0.706  -0.604  -0.490  -0.462  -0.443
 -0.418  -0.390  -0.385  -0.286  -0.251  -0.250

 Beta MOs
 -- Occupied --
******* -62.471 -56.292 -56.289 -56.289 -10.286 -10.212 -10.212
 -8.657  -6.485  -6.475  -6.475  -2.579  -2.576  -2.576  -2.568
 -2.568  -0.828  -0.726  -0.706  -0.604  -0.490  -0.462  -0.443
 -0.418  -0.390  -0.385  -0.286  -0.251  -0.250

          Ground-State Mulliken Net Atomic Charges

     Atom                 Charge (a.u.)    Spin (a.u.)
  --------------------------------------------------------
      1 Br                   -0.345025      -0.000000
      2 C                    -0.035909       0.000000
      3 C                    -0.322575       0.000000
      4 C                    -0.322574      -0.000000
      5 H                     0.167604      -0.000000
      6 H                     0.154441       0.000000
      7 H                     0.127078      -0.000000
      8 H                     0.147721      -0.000000
      9 H                     0.154443       0.000000
     10 H                     0.127078       0.000000
     11 H                     0.147718       0.000000
  --------------------------------------------------------
  Sum of atomic charges =    -0.000000

                    Cartesian Multipole Moments
 -----------------------------------------------------------------
    Charge (ESU x 10^10)
                 0.0000
    Dipole Moment (Debye)
         X      -4.7356      Y       0.0012      Z       0.6285
       Tot       4.7771
    Quadrupole Moments (Debye-Ang)
        XX     -44.6255     XY       0.0019     YY     -37.2222
        XZ       0.0339     YZ      -0.0000     ZZ     -38.2195

 Final energy is   -2692.41528595773
 **  OPTIMIZATION CONVERGED  **
 Total job time:  23.50s(wall), 268.30s(cpu)
        *  Thank you very much for using Q-Chem.  Have a nice day.  *
