 Q-Chem 5.1, Q-Chem, Inc., Pleasanton, CA (2018)
 Q-Chem 5.1.1 for Intel X86 EM64T Linux

User input:
--------------------------------------------------------------

$comment
potential surface scanner
$end

$rem
JOBTYPE  PES_SCAN
UNRESTRICTED TRUE
SYM_IGNORE  TRUE
GEOM_OPT_MAX_CYCLES 400
SCF_MAX_CYCLES 400
METHOD   B3LYP
BASIS   6-31G**
PDB_PRINT 2
SCF_CONVERGENCE 6
THRESH 14
SCF_PRINT 1
$end
$molecule
0 1
Br 1.744600 -0.000400 -0.101000
C -0.148200 0.000100 0.395200
C -0.798600 -1.260800 -0.147100
C -0.797900 1.261200 -0.147100
H -0.168300 0.000100 1.489400
H -0.311900 -2.158700 0.249400
H -1.855400 -1.302200 0.136700
H -0.741600 -1.308000 -1.240400
H -0.310700 2.158800 0.249400
H -1.854800 1.303000 0.136600
H -0.740800 1.308300 -1.240400
$end
$scan
stre 1 2 1.200000 1.201000 0.100000
$end
--------------------------------------------------------------

    9   -2692.4381940224      5.80e-07  Convergence criterion met
 Total energy in the final basis set =    -2692.4381940224
    9   -2692.4252909852      5.91e-07  Convergence criterion met
 Total energy in the final basis set =    -2692.4252909852
    9   -2692.3858476832      5.92e-07  Convergence criterion met
 Total energy in the final basis set =    -2692.3858476832
    9   -2692.3143334345      6.06e-07  Convergence criterion met
 Total energy in the final basis set =    -2692.3143334345
    9   -2692.2100183684      6.56e-07  Convergence criterion met
 Total energy in the final basis set =    -2692.2100183684
    9   -2692.0467343322      7.41e-07  Convergence criterion met
 Total energy in the final basis set =    -2692.0467343322
    9   -2691.8214097871      9.12e-07  Convergence criterion met
 Total energy in the final basis set =    -2691.8214097871
   10   -2691.7476607113      2.91e-07  Convergence criterion met
    9   -2691.7288384523      9.91e-07  Convergence criterion met
 Total energy in the final basis set =    -2691.7288384523
    9   -2691.7288433293      9.91e-07  Convergence criterion met
 Total energy in the final basis set =    -2691.7288433293
    9   -2691.7288463418      9.90e-07  Convergence criterion met
 Total energy in the final basis set =    -2691.7288463418
    9   -2691.7288481521      9.89e-07  Convergence criterion met
 Total energy in the final basis set =    -2691.7288481521
    9   -2691.7288496433      9.89e-07  Convergence criterion met
 Total energy in the final basis set =    -2691.7288496433
    9   -2691.7288506683      9.90e-07  Convergence criterion met
 Total energy in the final basis set =    -2691.7288506683

             Standard Nuclear Orientation (Angstroms)
    I     Atom           X                Y                Z
 ----------------------------------------------------------------
    1      Br      1.3362735325    -0.0003541634     0.0508417301
    2      C       0.1659644465    -0.0000515462     0.3161276566
    3      C      -0.7705047733    -1.2523146142    -0.1582194522
    4      C      -0.7698662716     1.2526842456    -0.1582421757
    5      H      -0.2004005384     0.0000541328     1.3916147983
    6      H      -0.3232500278    -2.1727477368     0.2351462789
    7      H      -1.8026170629    -1.1688930965     0.1888624696
    8      H      -0.7478535875    -1.3002583176    -1.2546804944
    9      H      -0.3221179133     2.1728954314     0.2350810582
   10      H      -1.8020087802     1.1698085452     0.1888731558
   11      H      -0.7472190241     1.3005771197    -1.2547050252
 ----------------------------------------------------------------

    9   -2691.7288510346      9.90e-07  Convergence criterion met
 Total energy in the final basis set =    -2691.7288510346

                    Orbital Energies (a.u.)
 --------------------------------------------------------------

 Alpha MOs
 -- Occupied --
******* -62.534 -56.351 -56.351 -56.350 -10.245 -10.181 -10.181
 -8.743  -6.581  -6.558  -6.558  -2.684  -2.666  -2.666  -2.650
 -2.650  -1.031  -0.728  -0.692  -0.574  -0.515  -0.493  -0.446
 -0.405  -0.390  -0.387  -0.363  -0.223  -0.223

 Beta MOs
 -- Occupied --
******* -62.534 -56.351 -56.351 -56.350 -10.245 -10.181 -10.181
 -8.743  -6.581  -6.558  -6.558  -2.684  -2.666  -2.666  -2.650
 -2.650  -1.031  -0.728  -0.692  -0.574  -0.515  -0.493  -0.446
 -0.405  -0.390  -0.387  -0.363  -0.223  -0.223

          Ground-State Mulliken Net Atomic Charges

     Atom                 Charge (a.u.)    Spin (a.u.)
  --------------------------------------------------------
      1 Br                    0.198229      -0.000000
      2 C                    -0.192655       0.000000
      3 C                    -0.352024       0.000000
      4 C                    -0.352022       0.000000
      5 H                     0.064109       0.000000
      6 H                     0.103977       0.000000
      7 H                     0.105228      -0.000000
      8 H                     0.107976      -0.000000
      9 H                     0.103977       0.000000
     10 H                     0.105228       0.000000
     11 H                     0.107976      -0.000000
  --------------------------------------------------------
  Sum of atomic charges =     0.000000

                    Cartesian Multipole Moments
 -----------------------------------------------------------------
    Charge (ESU x 10^10)
                -0.0000
    Dipole Moment (Debye)
         X      -1.0045      Y       0.0003      Z       0.3245
       Tot       1.0556
    Quadrupole Moments (Debye-Ang)
        XX     -39.9201     XY       0.0004     YY     -38.5141
        XZ       0.1473     YZ      -0.0000     ZZ     -38.1291

 Final energy is   -2691.72885103459
 **  OPTIMIZATION CONVERGED  **
 Total job time:  105.72s(wall), 1176.20s(cpu)
        *  Thank you very much for using Q-Chem.  Have a nice day.  *
