 Q-Chem 5.1, Q-Chem, Inc., Pleasanton, CA (2018)
 Q-Chem 5.1.1 for Intel X86 EM64T Linux

User input:
--------------------------------------------------------------

$comment
potential surface scanner
$end

$rem
JOBTYPE  PES_SCAN
UNRESTRICTED TRUE
SYM_IGNORE  TRUE
GEOM_OPT_MAX_CYCLES 400
SCF_MAX_CYCLES 400
METHOD   B3LYP
BASIS   6-31G**
PDB_PRINT 2
SCF_CONVERGENCE 6
THRESH 14
SCF_PRINT 1
$end
$molecule
0 3
Br 3.886661 -0.000125 0.168544
C -0.605888 0.000029 0.427388
C -1.040342 -1.301242 -0.159061
C -1.039362 1.301574 -0.159174
H -0.182769 -0.000083 1.429178
H -0.425270 -2.135018 0.195990
H -2.086633 -1.548378 0.096936
H -0.990926 -1.285410 -1.255803
H -0.423558 2.134889 0.195692
H -2.085417 1.549605 0.096931
H -0.990097 1.285559 -1.255919
$end
$scan
stre 1 2 4.400000 4.401000 0.100000
$end
--------------------------------------------------------------

   10   -2692.3278539792      3.35e-07  Convergence criterion met
 Total energy in the final basis set =    -2692.3278539792
   10   -2692.3278014960      3.35e-07  Convergence criterion met
 Total energy in the final basis set =    -2692.3278014960
   10   -2692.3278504015      3.35e-07  Convergence criterion met
 Total energy in the final basis set =    -2692.3278504015
   10   -2692.3278693986      3.35e-07  Convergence criterion met
 Total energy in the final basis set =    -2692.3278693986

             Standard Nuclear Orientation (Angstroms)
    I     Atom           X                Y                Z
 ----------------------------------------------------------------
    1      Br      3.7863953962    -0.0000682651     0.1347072298
    2      C      -0.6032029375     0.0000221008     0.4370765164
    3      C      -1.0275868957    -1.3011728640    -0.1570347777
    4      C      -1.0265807671     1.3014923568    -0.1571429272
    5      H      -0.2039360246    -0.0000865205     1.4489043290
    6      H      -0.4156391231    -2.1344473178     0.2046664599
    7      H      -2.0764829956    -1.5508990588     0.0855517665
    8      H      -0.9641499564    -1.2834869538    -1.2529225495
    9      H      -0.4138809181     2.1342949507     0.2043721661
   10      H      -2.0752325835     1.5521377764     0.0855592560
   11      H      -0.9633041946     1.2836137952    -1.2530354693
 ----------------------------------------------------------------

   10   -2692.3278702009      3.35e-07  Convergence criterion met
 Total energy in the final basis set =    -2692.3278702009

                    Orbital Energies (a.u.)
 --------------------------------------------------------------

 Alpha MOs
 -- Occupied --
******* -62.555 -56.379 -56.372 -56.372 -10.184 -10.175 -10.175
 -8.742  -6.579  -6.557  -6.557  -2.670  -2.664  -2.664  -2.648
 -2.648  -0.795  -0.775  -0.686  -0.565  -0.446  -0.423  -0.403
 -0.381  -0.369  -0.350  -0.343  -0.321  -0.320  -0.177

 Beta MOs
 -- Occupied --
******* -62.554 -56.374 -56.371 -56.371 -10.176 -10.176 -10.170
 -8.738  -6.568  -6.555  -6.555  -2.662  -2.658  -2.658  -2.647
 -2.647  -0.758  -0.751  -0.683  -0.544  -0.441  -0.405  -0.397
 -0.375  -0.346  -0.337  -0.307  -0.306

          Ground-State Mulliken Net Atomic Charges

     Atom                 Charge (a.u.)    Spin (a.u.)
  --------------------------------------------------------
      1 Br                   -0.001750       1.002187
      2 C                    -0.066229       1.016627
      3 C                    -0.334177      -0.079582
      4 C                    -0.334177      -0.079582
      5 H                     0.087420      -0.045913
      6 H                     0.108625       0.009640
      7 H                     0.108665       0.064302
      8 H                     0.107163       0.019190
      9 H                     0.108639       0.009646
     10 H                     0.108661       0.064301
     11 H                     0.107160       0.019182
  --------------------------------------------------------
  Sum of atomic charges =     0.000000

                    Cartesian Multipole Moments
 -----------------------------------------------------------------
    Charge (ESU x 10^10)
                 0.0000
    Dipole Moment (Debye)
         X      -0.2430      Y       0.0002      Z       0.0028
       Tot       0.2430
    Quadrupole Moments (Debye-Ang)
        XX     -39.9323     XY       0.0039     YY     -36.4116
        XZ       0.2940     YZ      -0.0021     ZZ     -39.2517

 Final energy is   -2692.32787020095
 **  OPTIMIZATION CONVERGED  **
 Total job time:  17.58s(wall), 200.27s(cpu)
        *  Thank you very much for using Q-Chem.  Have a nice day.  *
