 Q-Chem 5.1, Q-Chem, Inc., Pleasanton, CA (2018)
 Q-Chem 5.1.1 for Intel X86 EM64T Linux

User input:
--------------------------------------------------------------

$comment
potential surface scanner
$end

$rem
JOBTYPE  PES_SCAN
UNRESTRICTED TRUE
SYM_IGNORE  TRUE
GEOM_OPT_MAX_CYCLES 400
SCF_MAX_CYCLES 400
METHOD   B3LYP
BASIS   6-31G**
PDB_PRINT 2
SCF_CONVERGENCE 6
THRESH 14
SCF_PRINT 1
$end
$molecule
0 1
Br 1.744600 -0.000400 -0.101000
C -0.148200 0.000100 0.395200
C -0.798600 -1.260800 -0.147100
C -0.797900 1.261200 -0.147100
H -0.168300 0.000100 1.489400
H -0.311900 -2.158700 0.249400
H -1.855400 -1.302200 0.136700
H -0.741600 -1.308000 -1.240400
H -0.310700 2.158800 0.249400
H -1.854800 1.303000 0.136600
H -0.740800 1.308300 -1.240400
$end
$scan
stre 1 2 1.900000 1.901000 0.100000
$end
--------------------------------------------------------------

    9   -2692.4381940224      5.80e-07  Convergence criterion met
 Total energy in the final basis set =    -2692.4381940224
    9   -2692.4361396385      5.69e-07  Convergence criterion met
 Total energy in the final basis set =    -2692.4361396385
    9   -2692.4362755017      5.63e-07  Convergence criterion met
 Total energy in the final basis set =    -2692.4362755017
    9   -2692.4362974522      5.61e-07  Convergence criterion met
 Total energy in the final basis set =    -2692.4362974522
    9   -2692.4362993164      5.61e-07  Convergence criterion met
 Total energy in the final basis set =    -2692.4362993164
    9   -2692.4363003261      5.62e-07  Convergence criterion met
 Total energy in the final basis set =    -2692.4363003261
    9   -2692.4363013988      5.62e-07  Convergence criterion met
 Total energy in the final basis set =    -2692.4363013988

             Standard Nuclear Orientation (Angstroms)
    I     Atom           X                Y                Z
 ----------------------------------------------------------------
    1      Br      1.7242717905    -0.0004329841    -0.0546362143
    2      C      -0.1271640498     0.0000206136     0.3721951821
    3      C      -0.7952413440    -1.2705682940    -0.1518200834
    4      C      -0.7945917099     1.2709426058    -0.1518439832
    5      H      -0.1610877992     0.0000400014     1.4646734360
    6      H      -0.3144590116    -2.1684847539     0.2441789346
    7      H      -1.8487333550    -1.2811073237     0.1514894630
    8      H      -0.7529250539    -1.3124633651    -1.2445555282
    9      H      -0.3133210758     2.1686182579     0.2441098820
   10      H      -1.8480711107     1.2820569949     0.1514909825
   11      H      -0.7522772806     1.3127782473    -1.2445820710
 ----------------------------------------------------------------

    9   -2692.4363023985      5.62e-07  Convergence criterion met
 Total energy in the final basis set =    -2692.4363023985

                    Orbital Energies (a.u.)
 --------------------------------------------------------------

 Alpha MOs
 -- Occupied --
******* -62.504 -56.325 -56.321 -56.321 -10.246 -10.191 -10.191
 -8.691  -6.521  -6.509  -6.509  -2.615  -2.611  -2.611  -2.602
 -2.601  -0.841  -0.737  -0.700  -0.584  -0.474  -0.450  -0.426
 -0.398  -0.366  -0.362  -0.348  -0.272  -0.272

 Beta MOs
 -- Occupied --
******* -62.504 -56.325 -56.321 -56.321 -10.246 -10.191 -10.191
 -8.691  -6.521  -6.509  -6.509  -2.615  -2.611  -2.611  -2.602
 -2.601  -0.841  -0.737  -0.700  -0.584  -0.474  -0.450  -0.426
 -0.398  -0.366  -0.362  -0.348  -0.272  -0.272

          Ground-State Mulliken Net Atomic Charges

     Atom                 Charge (a.u.)    Spin (a.u.)
  --------------------------------------------------------
      1 Br                   -0.109914       0.000000
      2 C                    -0.132591       0.000000
      3 C                    -0.308138      -0.000000
      4 C                    -0.308140       0.000000
      5 H                     0.141616      -0.000000
      6 H                     0.125219       0.000000
      7 H                     0.109330      -0.000000
      8 H                     0.124035       0.000000
      9 H                     0.125220       0.000000
     10 H                     0.109329       0.000000
     11 H                     0.124035      -0.000000
  --------------------------------------------------------
  Sum of atomic charges =     0.000000

                    Cartesian Multipole Moments
 -----------------------------------------------------------------
    Charge (ESU x 10^10)
                 0.0000
    Dipole Moment (Debye)
         X      -2.0954      Y       0.0005      Z       0.3755
       Tot       2.1288
    Quadrupole Moments (Debye-Ang)
        XX     -40.4464     XY       0.0006     YY     -38.3056
        XZ      -0.2734     YZ       0.0001     ZZ     -38.3743

 Final energy is   -2692.43630239847
 **  OPTIMIZATION CONVERGED  **
 Total job time:  29.46s(wall), 340.19s(cpu)
        *  Thank you very much for using Q-Chem.  Have a nice day.  *
