 Q-Chem 5.1, Q-Chem, Inc., Pleasanton, CA (2018)
 Q-Chem 5.1.1 for Intel X86 EM64T Linux

User input:
--------------------------------------------------------------

$comment
potential surface scanner
$end

$rem
JOBTYPE  PES_SCAN
UNRESTRICTED TRUE
SYM_IGNORE  TRUE
GEOM_OPT_MAX_CYCLES 400
SCF_MAX_CYCLES 400
METHOD   B3LYP
BASIS   6-31G**
PDB_PRINT 2
SCF_CONVERGENCE 6
THRESH 14
SCF_PRINT 1
$end
$molecule
0 3
Br 2.090552 0.001539 0.989761
C -0.260928 0.000180 0.140913
C -0.882381 -1.306600 -0.217684
C -0.870390 1.305138 -0.244014
H 0.220891 0.007976 1.161143
H -0.225964 -2.147565 0.025448
H -1.845118 -1.474849 0.294326
H -1.092191 -1.336317 -1.295099
H -0.202299 2.143927 -0.026383
H -1.826460 1.496541 0.272229
H -1.089315 1.311432 -1.319937
$end
$scan
stre 1 2 2.400000 2.401000 0.100000
$end
--------------------------------------------------------------

   10   -2692.3102992983      4.41e-07  Convergence criterion met
 Total energy in the final basis set =    -2692.3102992983
   10   -2692.3016655910      4.60e-07  Convergence criterion met
 Total energy in the final basis set =    -2692.3016655910
   10   -2692.3018961820      4.46e-07  Convergence criterion met
 Total energy in the final basis set =    -2692.3018961820
   10   -2692.3020919680      4.41e-07  Convergence criterion met
 Total energy in the final basis set =    -2692.3020919680
   10   -2692.3021381361      4.43e-07  Convergence criterion met
 Total energy in the final basis set =    -2692.3021381361
   10   -2692.3021698572      4.48e-07  Convergence criterion met
 Total energy in the final basis set =    -2692.3021698572
   10   -2692.3021755933      4.51e-07  Convergence criterion met
 Total energy in the final basis set =    -2692.3021755933

             Standard Nuclear Orientation (Angstroms)
    I     Atom           X                Y                Z
 ----------------------------------------------------------------
    1      Br      2.0376486970     0.0015556172     0.9044669425
    2      C      -0.2424600156     0.0001329332     0.1553987692
    3      C      -0.8717616141    -1.3024636078    -0.2117310383
    4      C      -0.8594499076     1.3009346613    -0.2381228644
    5      H       0.1752057568     0.0083958332     1.2056623345
    6      H      -0.2233335139    -2.1488815380     0.0350960407
    7      H      -1.8414769774    -1.4664615410     0.2883587478
    8      H      -1.0697777974    -1.3262716482    -1.2914106001
    9      H      -0.1996880401     2.1453080701    -0.0154374937
   10      H      -1.8234440355     1.4874237421     0.2650064904
   11      H      -1.0650655522     1.3017294779    -1.3165843285
 ----------------------------------------------------------------

   10   -2692.3021763388      4.53e-07  Convergence criterion met
 Total energy in the final basis set =    -2692.3021763388

                    Orbital Energies (a.u.)
 --------------------------------------------------------------

 Alpha MOs
 -- Occupied --
******* -62.513 -56.335 -56.330 -56.330 -10.220 -10.195 -10.195
 -8.701  -6.534  -6.518  -6.516  -2.626  -2.622  -2.621  -2.609
 -2.609  -0.820  -0.762  -0.707  -0.600  -0.480  -0.448  -0.428
 -0.401  -0.392  -0.372  -0.309  -0.292  -0.279  -0.180

 Beta MOs
 -- Occupied --
******* -62.511 -56.331 -56.329 -56.329 -10.202 -10.195 -10.195
 -8.697  -6.525  -6.515  -6.514  -2.619  -2.616  -2.616  -2.608
 -2.607  -0.793  -0.732  -0.703  -0.566  -0.463  -0.428  -0.420
 -0.394  -0.371  -0.366  -0.285  -0.279

          Ground-State Mulliken Net Atomic Charges

     Atom                 Charge (a.u.)    Spin (a.u.)
  --------------------------------------------------------
      1 Br                   -0.119489       0.833793
      2 C                    -0.101233       1.058096
      3 C                    -0.334158      -0.055921
      4 C                    -0.334017      -0.056011
      5 H                     0.134905       0.020776
      6 H                     0.131366       0.012338
      7 H                     0.117463       0.059266
      8 H                     0.128151       0.028119
      9 H                     0.131522       0.012576
     10 H                     0.117530       0.059199
     11 H                     0.127961       0.027769
  --------------------------------------------------------
  Sum of atomic charges =    -0.000000

                    Cartesian Multipole Moments
 -----------------------------------------------------------------
    Charge (ESU x 10^10)
                 0.0000
    Dipole Moment (Debye)
         X      -2.3309      Y       0.0010      Z      -0.6164
       Tot       2.4111
    Quadrupole Moments (Debye-Ang)
        XX     -41.2081     XY      -0.0010     YY     -38.2792
        XZ      -1.6667     YZ      -0.0068     ZZ     -39.4368

 Final energy is   -2692.30217633880
 **  OPTIMIZATION CONVERGED  **
 Total job time:  34.55s(wall), 373.62s(cpu)
        *  Thank you very much for using Q-Chem.  Have a nice day.  *
