 Q-Chem 5.1, Q-Chem, Inc., Pleasanton, CA (2018)
 Q-Chem 5.1.1 for Intel X86 EM64T Linux

User input:
--------------------------------------------------------------

$comment
potential surface scanner
$end

$rem
JOBTYPE  PES_SCAN
UNRESTRICTED TRUE
SYM_IGNORE  TRUE
GEOM_OPT_MAX_CYCLES 400
SCF_MAX_CYCLES 400
METHOD   B3LYP
BASIS   6-31G**
PDB_PRINT 2
SCF_CONVERGENCE 6
THRESH 14
SCF_PRINT 1
$end
$molecule
0 3
Br 2.936663 0.007253 -0.208803
C -0.588477 -0.000785 0.521489
C -0.925604 -1.301197 -0.128183
C -0.921741 1.299952 -0.129080
H -0.345686 -0.001029 1.581421
H -0.391476 -2.138614 0.333343
H -2.003184 -1.536262 -0.060998
H -0.681331 -1.291946 -1.198569
H -0.388796 2.137041 0.334450
H -1.999366 1.536314 -0.065535
H -0.674605 1.290673 -1.198833
$end
$scan
stre 1 2 3.500000 3.501000 0.100000
$end
--------------------------------------------------------------

   10   -2692.3269343507      4.08e-07  Convergence criterion met
 Total energy in the final basis set =    -2692.3269343507
   14   -2692.3262549288      8.61e-07  Convergence criterion met
 Total energy in the final basis set =    -2692.3262549288
   14   -2692.3264439586      9.34e-07  Convergence criterion met
 Total energy in the final basis set =    -2692.3264439586
   17   -2692.3265041447      7.82e-07  Convergence criterion met
 Total energy in the final basis set =    -2692.3265041447
   17   -2692.3265062977      7.25e-07  Convergence criterion met
 Total energy in the final basis set =    -2692.3265062977
   16   -2692.3265092321      9.96e-07  Convergence criterion met
 Total energy in the final basis set =    -2692.3265092321

             Standard Nuclear Orientation (Angstroms)
    I     Atom           X                Y                Z
 ----------------------------------------------------------------
    1      Br      2.8479489318    -0.0300494960    -0.2099511022
    2      C      -0.5745986274     0.0045913199     0.5214656815
    3      C      -0.9053153029    -1.2967402354    -0.1299901318
    4      C      -0.9206540585     1.3026909840    -0.1282411213
    5      H      -0.3506724389     0.0044864879     1.5857950300
    6      H      -0.3752082910    -2.1339080890     0.3367376199
    7      H      -1.9834264186    -1.5319805128    -0.0712273978
    8      H      -0.6528399017    -1.2881062315    -1.1984176831
    9      H      -0.3875044896     2.1436338633     0.3285379166
   10      H      -1.9985889374     1.5342778877    -0.0540936342
   11      H      -0.6827434657     1.2925040218    -1.1999131778
 ----------------------------------------------------------------

   16   -2692.3265098598      9.99e-07  Convergence criterion met
 Total energy in the final basis set =    -2692.3265098598

                    Orbital Energies (a.u.)
 --------------------------------------------------------------

 Alpha MOs
 -- Occupied --
******* -62.552 -56.376 -56.369 -56.369 -10.183 -10.175 -10.175
 -8.739  -6.576  -6.554  -6.554  -2.667  -2.661  -2.661  -2.645
 -2.645  -0.793  -0.775  -0.686  -0.565  -0.446  -0.424  -0.403
 -0.381  -0.367  -0.349  -0.342  -0.318  -0.317  -0.175

 Beta MOs
 -- Occupied --
******* -62.551 -56.371 -56.368 -56.368 -10.176 -10.176 -10.170
 -8.735  -6.565  -6.552  -6.552  -2.659  -2.655  -2.655  -2.644
 -2.644  -0.758  -0.748  -0.683  -0.544  -0.441  -0.406  -0.397
 -0.375  -0.345  -0.337  -0.304  -0.302

          Ground-State Mulliken Net Atomic Charges

     Atom                 Charge (a.u.)    Spin (a.u.)
  --------------------------------------------------------
      1 Br                   -0.003292       1.008746
      2 C                    -0.059388       1.009134
      3 C                    -0.334375      -0.078371
      4 C                    -0.334521      -0.078333
      5 H                     0.086377      -0.045174
      6 H                     0.106451       0.008721
      7 H                     0.107633       0.063048
      8 H                     0.108439       0.020241
      9 H                     0.106370       0.009295
     10 H                     0.107856       0.063287
     11 H                     0.108450       0.019406
  --------------------------------------------------------
  Sum of atomic charges =    -0.000000

                    Cartesian Multipole Moments
 -----------------------------------------------------------------
    Charge (ESU x 10^10)
                -0.0000
    Dipole Moment (Debye)
         X      -0.3016      Y      -0.0003      Z      -0.0072
       Tot       0.3017
    Quadrupole Moments (Debye-Ang)
        XX     -40.2648     XY       0.0076     YY     -36.5093
        XZ       0.2265     YZ       0.0999     ZZ     -39.1840

 Final energy is   -2692.32650985976
 **  OPTIMIZATION CONVERGED  **
 Total job time:  32.92s(wall), 379.28s(cpu)
        *  Thank you very much for using Q-Chem.  Have a nice day.  *
