 Q-Chem 5.1, Q-Chem, Inc., Pleasanton, CA (2018)
 Q-Chem 5.1.1 for Intel X86 EM64T Linux

User input:
--------------------------------------------------------------

$comment
potential surface scanner
$end

$rem
JOBTYPE  PES_SCAN
UNRESTRICTED TRUE
SYM_IGNORE  TRUE
GEOM_OPT_MAX_CYCLES 400
SCF_MAX_CYCLES 400
METHOD   B3LYP
BASIS   6-31G**
PDB_PRINT 2
SCF_CONVERGENCE 6
THRESH 14
SCF_PRINT 1
$end
$molecule
0 3
Br 3.053896 -0.051154 -0.165700
C -0.583700 0.007767 0.508414
C -0.925940 -1.295356 -0.133273
C -0.948906 1.305325 -0.131722
H -0.326053 0.009289 1.565058
H -0.381920 -2.130209 0.321151
H -2.001659 -1.533417 -0.047413
H -0.700806 -1.287535 -1.207837
H -0.414898 2.147277 0.321387
H -2.027677 1.527445 -0.042591
H -0.725939 1.301968 -1.206773
$end
$scan
stre 1 2 3.600000 3.601000 0.100000
$end
--------------------------------------------------------------

   10   -2692.3272457424      8.96e-07  Convergence criterion met
 Total energy in the final basis set =    -2692.3272457424
   10   -2692.3268163619      4.03e-07  Convergence criterion met
 Total energy in the final basis set =    -2692.3268163619
   10   -2692.3268974539      3.50e-07  Convergence criterion met
 Total energy in the final basis set =    -2692.3268974539
   10   -2692.3269236663      3.46e-07  Convergence criterion met
 Total energy in the final basis set =    -2692.3269236663
   10   -2692.3269252065      3.50e-07  Convergence criterion met
 Total energy in the final basis set =    -2692.3269252065
   10   -2692.3269294159      3.80e-07  Convergence criterion met
 Total energy in the final basis set =    -2692.3269294159
   10   -2692.3269309494      3.93e-07  Convergence criterion met
 Total energy in the final basis set =    -2692.3269309494
   10   -2692.3269334646      4.12e-07  Convergence criterion met
 Total energy in the final basis set =    -2692.3269334646

             Standard Nuclear Orientation (Angstroms)
    I     Atom           X                Y                Z
 ----------------------------------------------------------------
    1      Br      2.9366631896     0.0072533098    -0.2088029280
    2      C      -0.5884765965    -0.0007853003     0.5214888191
    3      C      -0.9256044372    -1.3011971382    -0.1281831289
    4      C      -0.9217412336     1.2999515804    -0.1290804919
    5      H      -0.3456860488    -0.0010287947     1.5814205833
    6      H      -0.3914757266    -2.1386141394     0.3333434812
    7      H      -2.0031836884    -1.5362615496    -0.0609980522
    8      H      -0.6813308090    -1.2919457084    -1.1985691953
    9      H      -0.3887955497     2.1370407039     0.3344502033
   10      H      -1.9993661150     1.5363138287    -0.0655353017
   11      H      -0.6746049847     1.2906732078    -1.1988329890
 ----------------------------------------------------------------

   10   -2692.3269343498      4.08e-07  Convergence criterion met
 Total energy in the final basis set =    -2692.3269343498

                    Orbital Energies (a.u.)
 --------------------------------------------------------------

 Alpha MOs
 -- Occupied --
******* -62.552 -56.377 -56.369 -56.369 -10.184 -10.175 -10.175
 -8.740  -6.576  -6.554  -6.554  -2.667  -2.662  -2.662  -2.645
 -2.645  -0.793  -0.775  -0.686  -0.565  -0.446  -0.423  -0.403
 -0.381  -0.367  -0.350  -0.343  -0.319  -0.318  -0.175

 Beta MOs
 -- Occupied --
******* -62.551 -56.371 -56.368 -56.368 -10.176 -10.176 -10.170
 -8.736  -6.566  -6.552  -6.552  -2.659  -2.656  -2.656  -2.644
 -2.644  -0.758  -0.748  -0.683  -0.544  -0.441  -0.406  -0.397
 -0.375  -0.346  -0.337  -0.305  -0.303

          Ground-State Mulliken Net Atomic Charges

     Atom                 Charge (a.u.)    Spin (a.u.)
  --------------------------------------------------------
      1 Br                   -0.003740       1.007567
      2 C                    -0.060047       1.010804
      3 C                    -0.334598      -0.078939
      4 C                    -0.334726      -0.078973
      5 H                     0.086790      -0.045649
      6 H                     0.106849       0.008870
      7 H                     0.107872       0.063219
      8 H                     0.108463       0.020392
      9 H                     0.106715       0.008745
     10 H                     0.107915       0.063354
     11 H                     0.108508       0.020609
  --------------------------------------------------------
  Sum of atomic charges =    -0.000000

                    Cartesian Multipole Moments
 -----------------------------------------------------------------
    Charge (ESU x 10^10)
                -0.0000
    Dipole Moment (Debye)
         X      -0.2845      Y      -0.0012      Z      -0.0103
       Tot       0.2847
    Quadrupole Moments (Debye-Ang)
        XX     -40.2269     XY      -0.0451     YY     -36.4886
        XZ       0.2386     YZ      -0.0109     ZZ     -39.1870

 Final energy is   -2692.32693434976
 **  OPTIMIZATION CONVERGED  **
 Total job time:  31.23s(wall), 362.81s(cpu)
        *  Thank you very much for using Q-Chem.  Have a nice day.  *
