 Q-Chem 5.1, Q-Chem, Inc., Pleasanton, CA (2018)
 Q-Chem 5.1.1 for Intel X86 EM64T Linux

User input:
--------------------------------------------------------------

$comment
potential surface scanner
$end

$rem
JOBTYPE  PES_SCAN
UNRESTRICTED TRUE
SYM_IGNORE  TRUE
GEOM_OPT_MAX_CYCLES 400
SCF_MAX_CYCLES 400
METHOD   B3LYP
BASIS   6-31G**
PDB_PRINT 2
SCF_CONVERGENCE 6
THRESH 14
SCF_PRINT 1
$end
$molecule
0 3
Br 4.393849 -0.000787 0.336231
C -0.606030 0.000127 0.371074
C -1.103704 -1.299071 -0.168172
C -1.103037 1.299529 -0.168296
H -0.070416 0.000043 1.317218
H -0.489415 -2.142911 0.162217
H -2.139474 -1.513993 0.150924
H -1.119522 -1.299688 -1.266586
H -0.488234 2.143064 0.161917
H -2.138653 1.515077 0.150881
H -1.118967 1.300007 -1.266707
$end
$scan
stre 1 2 4.900000 4.901000 0.100000
$end
--------------------------------------------------------------

   10   -2692.3278932288      3.38e-07  Convergence criterion met
 Total energy in the final basis set =    -2692.3278932288
   10   -2692.3276335135      3.48e-07  Convergence criterion met
 Total energy in the final basis set =    -2692.3276335135
   10   -2692.3278186801      3.41e-07  Convergence criterion met
 Total energy in the final basis set =    -2692.3278186801
   10   -2692.3278758899      3.37e-07  Convergence criterion met
 Total energy in the final basis set =    -2692.3278758899

             Standard Nuclear Orientation (Angstroms)
    I     Atom           X                Y                Z
 ----------------------------------------------------------------
    1      Br      4.2957164601    -0.0007225644     0.3046756324
    2      C      -0.6036973245     0.0001191356     0.3804800403
    3      C      -1.0913451351    -1.2995270914    -0.1667093852
    4      C      -1.0906514198     1.2999717893    -0.1668321194
    5      H      -0.0914173833     0.0000326514     1.3393754855
    6      H      -0.4775714483    -2.1417451727     0.1690184653
    7      H      -2.1296136547    -1.5189899116     0.1411864389
    8      H      -1.0952489032    -1.2983459046    -1.2651178606
    9      H      -0.4763480691     2.1418736413     0.1687222931
   10      H      -2.1287608352     1.5200827073     0.1411412581
   11      H      -1.0946652868     1.2986477199    -1.2652392484
 ----------------------------------------------------------------

   10   -2692.3278765962      3.37e-07  Convergence criterion met
 Total energy in the final basis set =    -2692.3278765962

                    Orbital Energies (a.u.)
 --------------------------------------------------------------

 Alpha MOs
 -- Occupied --
******* -62.556 -56.380 -56.373 -56.373 -10.184 -10.175 -10.175
 -8.743  -6.580  -6.558  -6.558  -2.671  -2.665  -2.665  -2.649
 -2.649  -0.796  -0.775  -0.685  -0.565  -0.446  -0.423  -0.403
 -0.380  -0.370  -0.350  -0.343  -0.322  -0.321  -0.177

 Beta MOs
 -- Occupied --
******* -62.555 -56.375 -56.372 -56.372 -10.176 -10.176 -10.170
 -8.739  -6.569  -6.556  -6.556  -2.663  -2.659  -2.659  -2.648
 -2.648  -0.758  -0.752  -0.683  -0.544  -0.441  -0.406  -0.397
 -0.374  -0.346  -0.337  -0.308  -0.307

          Ground-State Mulliken Net Atomic Charges

     Atom                 Charge (a.u.)    Spin (a.u.)
  --------------------------------------------------------
      1 Br                   -0.000436       1.000576
      2 C                    -0.069453       1.018572
      3 C                    -0.333590      -0.079823
      4 C                    -0.333592      -0.079823
      5 H                     0.088294      -0.046344
      6 H                     0.108444       0.007614
      7 H                     0.108592       0.063430
      8 H                     0.107348       0.022377
      9 H                     0.108459       0.007618
     10 H                     0.108589       0.063431
     11 H                     0.107345       0.022371
  --------------------------------------------------------
  Sum of atomic charges =    -0.000000

                    Cartesian Multipole Moments
 -----------------------------------------------------------------
    Charge (ESU x 10^10)
                 0.0000
    Dipole Moment (Debye)
         X      -0.2130      Y       0.0002      Z       0.0205
       Tot       0.2140
    Quadrupole Moments (Debye-Ang)
        XX     -39.7671     XY       0.0066     YY     -36.4081
        XZ       0.3670     YZ      -0.0017     ZZ     -39.3340

 Final energy is   -2692.32787659624
 **  OPTIMIZATION CONVERGED  **
 Total job time:  16.36s(wall), 186.08s(cpu)
        *  Thank you very much for using Q-Chem.  Have a nice day.  *
