 Q-Chem 5.1, Q-Chem, Inc., Pleasanton, CA (2018)
 Q-Chem 5.1.1 for Intel X86 EM64T Linux

User input:
--------------------------------------------------------------

$comment
potential surface scanner
$end

$rem
JOBTYPE  PES_SCAN
UNRESTRICTED TRUE
SYM_IGNORE  TRUE
GEOM_OPT_MAX_CYCLES 400
SCF_MAX_CYCLES 400
METHOD   B3LYP
BASIS   6-31G**
PDB_PRINT 2
SCF_CONVERGENCE 6
THRESH 14
SCF_PRINT 1
$end
$molecule
0 1
Br 1.724272 -0.000433 -0.054636
C -0.127164 0.000021 0.372195
C -0.795241 -1.270568 -0.151820
C -0.794592 1.270943 -0.151844
H -0.161088 0.000040 1.464673
H -0.314459 -2.168485 0.244179
H -1.848733 -1.281107 0.151489
H -0.752925 -1.312463 -1.244556
H -0.313321 2.168618 0.244110
H -1.848071 1.282057 0.151491
H -0.752277 1.312778 -1.244582
$end
$scan
stre 1 2 2.000000 2.001000 0.100000
$end
--------------------------------------------------------------

    9   -2692.4363024028      5.62e-07  Convergence criterion met
 Total energy in the final basis set =    -2692.4363024028
    9   -2692.4388378482      5.83e-07  Convergence criterion met
 Total energy in the final basis set =    -2692.4388378482
    9   -2692.4391795124      5.86e-07  Convergence criterion met
 Total energy in the final basis set =    -2692.4391795124
    9   -2692.4392693924      5.87e-07  Convergence criterion met
 Total energy in the final basis set =    -2692.4392693924
    9   -2692.4392712883      5.88e-07  Convergence criterion met
 Total energy in the final basis set =    -2692.4392712883

             Standard Nuclear Orientation (Angstroms)
    I     Atom           X                Y                Z
 ----------------------------------------------------------------
    1      Br      1.7858399691    -0.0004442772    -0.0628449462
    2      C      -0.1642177877     0.0000292818     0.3813103700
    3      C      -0.8011865601    -1.2744619026    -0.1520292555
    4      C      -0.8005344319     1.2748393865    -0.1520518350
    5      H      -0.1596137739     0.0000395716     1.4725305764
    6      H      -0.3104388279    -2.1667999134     0.2429475199
    7      H      -1.8561856387    -1.3000963717     0.1484318868
    8      H      -0.7565469401    -1.3094365077    -1.2444434721
    9      H      -0.3092955444     2.1669305810     0.2428738103
   10      H      -1.8555095065     1.3010515411     0.1484436075
   11      H      -0.7559099579     1.3097496105    -1.2444692620
 ----------------------------------------------------------------

    9   -2692.4392714433      5.88e-07  Convergence criterion met
 Total energy in the final basis set =    -2692.4392714433

                    Orbital Energies (a.u.)
 --------------------------------------------------------------

 Alpha MOs
 -- Occupied --
******* -62.499 -56.320 -56.317 -56.317 -10.253 -10.194 -10.193
 -8.686  -6.516  -6.504  -6.504  -2.610  -2.606  -2.606  -2.597
 -2.597  -0.830  -0.735  -0.703  -0.587  -0.474  -0.451  -0.426
 -0.401  -0.367  -0.366  -0.338  -0.271  -0.271

 Beta MOs
 -- Occupied --
******* -62.499 -56.320 -56.317 -56.317 -10.253 -10.194 -10.193
 -8.686  -6.516  -6.504  -6.504  -2.610  -2.606  -2.606  -2.597
 -2.597  -0.830  -0.735  -0.703  -0.587  -0.474  -0.451  -0.426
 -0.401  -0.367  -0.366  -0.338  -0.271  -0.271

          Ground-State Mulliken Net Atomic Charges

     Atom                 Charge (a.u.)    Spin (a.u.)
  --------------------------------------------------------
      1 Br                   -0.140427       0.000000
      2 C                    -0.128385      -0.000000
      3 C                    -0.307583       0.000000
      4 C                    -0.307584      -0.000000
      5 H                     0.146612       0.000000
      6 H                     0.129511       0.000000
      7 H                     0.111737      -0.000000
      8 H                     0.127436       0.000000
      9 H                     0.129512       0.000000
     10 H                     0.111736      -0.000000
     11 H                     0.127435       0.000000
  --------------------------------------------------------
  Sum of atomic charges =     0.000000

                    Cartesian Multipole Moments
 -----------------------------------------------------------------
    Charge (ESU x 10^10)
                 0.0000
    Dipole Moment (Debye)
         X      -2.4315      Y       0.0006      Z       0.4016
       Tot       2.4645
    Quadrupole Moments (Debye-Ang)
        XX     -40.8958     XY       0.0007     YY     -38.1708
        XZ      -0.2572     YZ       0.0001     ZZ     -38.3714

 Final energy is   -2692.43927144329
 **  OPTIMIZATION CONVERGED  **
 Total job time:  22.16s(wall), 253.08s(cpu)
        *  Thank you very much for using Q-Chem.  Have a nice day.  *
