 Q-Chem 5.1, Q-Chem, Inc., Pleasanton, CA (2018)
 Q-Chem 5.1.1 for Intel X86 EM64T Linux

User input:
--------------------------------------------------------------

$comment
potential surface scanner
$end

$rem
JOBTYPE  PES_SCAN
UNRESTRICTED TRUE
SYM_IGNORE  TRUE
GEOM_OPT_MAX_CYCLES 400
SCF_MAX_CYCLES 400
METHOD   B3LYP
BASIS   6-31G**
PDB_PRINT 2
SCF_CONVERGENCE 6
THRESH 14
SCF_PRINT 1
$end
$molecule
0 1
Br 1.744600 -0.000400 -0.101000
C -0.148200 0.000100 0.395200
C -0.798600 -1.260800 -0.147100
C -0.797900 1.261200 -0.147100
H -0.168300 0.000100 1.489400
H -0.311900 -2.158700 0.249400
H -1.855400 -1.302200 0.136700
H -0.741600 -1.308000 -1.240400
H -0.310700 2.158800 0.249400
H -1.854800 1.303000 0.136600
H -0.740800 1.308300 -1.240400
$end
$scan
stre 1 2 1.400000 1.401000 0.100000
$end
--------------------------------------------------------------

    9   -2692.4381940224      5.80e-07  Convergence criterion met
 Total energy in the final basis set =    -2692.4381940224
    9   -2692.4252909852      5.91e-07  Convergence criterion met
 Total energy in the final basis set =    -2692.4252909852
    9   -2692.3858476832      5.92e-07  Convergence criterion met
 Total energy in the final basis set =    -2692.3858476832
    9   -2692.3143334345      6.06e-07  Convergence criterion met
 Total energy in the final basis set =    -2692.3143334345
    9   -2692.2203673464      6.56e-07  Convergence criterion met
 Total energy in the final basis set =    -2692.2203673464
    9   -2692.1853751531      6.92e-07  Convergence criterion met
 Total energy in the final basis set =    -2692.1853751531
    9   -2692.1841813632      7.05e-07  Convergence criterion met
 Total energy in the final basis set =    -2692.1841813632
    9   -2692.1843498590      7.18e-07  Convergence criterion met
    9   -2692.1843727346      7.18e-07  Convergence criterion met
 Total energy in the final basis set =    -2692.1843727346
    9   -2692.1843758463      7.18e-07  Convergence criterion met
 Total energy in the final basis set =    -2692.1843758463
    9   -2692.1843818051      7.18e-07  Convergence criterion met
 Total energy in the final basis set =    -2692.1843818051
    9   -2692.1843862461      7.17e-07  Convergence criterion met
 Total energy in the final basis set =    -2692.1843862461
    9   -2692.1843917196      7.17e-07  Convergence criterion met
 Total energy in the final basis set =    -2692.1843917196
    9   -2692.1843952320      7.18e-07  Convergence criterion met
 Total energy in the final basis set =    -2692.1843952320

             Standard Nuclear Orientation (Angstroms)
    I     Atom           X                Y                Z
 ----------------------------------------------------------------
    1      Br      1.4361661549    -0.0003950348     0.0213382259
    2      C       0.0704296414    -0.0000246020     0.3291752541
    3      C      -0.7716407430    -1.2500604392    -0.1552793384
    4      C      -0.7710000897     1.2504314135    -0.1553028746
    5      H      -0.1848034937     0.0000552772     1.4130389728
    6      H      -0.3242107896    -2.1698167084     0.2364924371
    7      H      -1.8110380058    -1.1920005396     0.1777722606
    8      H      -0.7473150455    -1.3025565696    -1.2503597656
    9      H      -0.3230888964     2.1699702395     0.2364296286
   10      H      -1.8104164057     1.1929164966     0.1777806624
   11      H      -0.7466823270     1.3028804666    -1.2503854630
 ----------------------------------------------------------------

    9   -2692.1843967117      7.18e-07  Convergence criterion met
 Total energy in the final basis set =    -2692.1843967117

                    Orbital Energies (a.u.)
 --------------------------------------------------------------

 Alpha MOs
 -- Occupied --
******* -62.518 -56.337 -56.335 -56.335 -10.223 -10.183 -10.183
 -8.715  -6.546  -6.532  -6.532  -2.644  -2.636  -2.635  -2.624
 -2.624  -0.968  -0.734  -0.692  -0.573  -0.497  -0.458  -0.448
 -0.394  -0.391  -0.376  -0.359  -0.246  -0.246

 Beta MOs
 -- Occupied --
******* -62.518 -56.337 -56.335 -56.335 -10.223 -10.183 -10.183
 -8.715  -6.546  -6.532  -6.532  -2.644  -2.636  -2.635  -2.624
 -2.624  -0.968  -0.734  -0.692  -0.573  -0.497  -0.458  -0.448
 -0.394  -0.391  -0.376  -0.359  -0.246  -0.246

          Ground-State Mulliken Net Atomic Charges

     Atom                 Charge (a.u.)    Spin (a.u.)
  --------------------------------------------------------
      1 Br                    0.003207       0.000000
      2 C                    -0.096461      -0.000000
      3 C                    -0.330545      -0.000000
      4 C                    -0.330543      -0.000000
      5 H                     0.100747       0.000000
      6 H                     0.110265      -0.000000
      7 H                     0.104099       0.000000
      8 H                     0.112434       0.000000
      9 H                     0.110264       0.000000
     10 H                     0.104099      -0.000000
     11 H                     0.112433       0.000000
  --------------------------------------------------------
  Sum of atomic charges =     0.000000

                    Cartesian Multipole Moments
 -----------------------------------------------------------------
    Charge (ESU x 10^10)
                -0.0000
    Dipole Moment (Debye)
         X      -1.2555      Y       0.0003      Z       0.3326
       Tot       1.2988
    Quadrupole Moments (Debye-Ang)
        XX     -39.7725     XY       0.0003     YY     -38.4967
        XZ      -0.0807     YZ       0.0000     ZZ     -38.2078

 Final energy is   -2692.18439671170
 **  OPTIMIZATION CONVERGED  **
 Total job time:  61.88s(wall), 700.23s(cpu)
        *  Thank you very much for using Q-Chem.  Have a nice day.  *
