 Q-Chem 5.1, Q-Chem, Inc., Pleasanton, CA (2018)
 Q-Chem 5.1.1 for Intel X86 EM64T Linux

User input:
--------------------------------------------------------------

$comment
potential surface scanner
$end

$rem
JOBTYPE  PES_SCAN
UNRESTRICTED TRUE
SYM_IGNORE  TRUE
GEOM_OPT_MAX_CYCLES 400
SCF_MAX_CYCLES 400
METHOD   B3LYP
BASIS   6-31G**
PDB_PRINT 2
SCF_CONVERGENCE 6
THRESH 14
SCF_PRINT 1
$end
$molecule
0 1
Br 1.744600 -0.000400 -0.101000
C -0.148200 0.000100 0.395200
C -0.798600 -1.260800 -0.147100
C -0.797900 1.261200 -0.147100
H -0.168300 0.000100 1.489400
H -0.311900 -2.158700 0.249400
H -1.855400 -1.302200 0.136700
H -0.741600 -1.308000 -1.240400
H -0.310700 2.158800 0.249400
H -1.854800 1.303000 0.136600
H -0.740800 1.308300 -1.240400
$end
$scan
stre 1 2 0.900000 0.901000 0.100000
$end
--------------------------------------------------------------

    9   -2692.4381940224      5.80e-07  Convergence criterion met
 Total energy in the final basis set =    -2692.4381940224
    9   -2692.4252909852      5.91e-07  Convergence criterion met
 Total energy in the final basis set =    -2692.4252909852
    9   -2692.3858476832      5.92e-07  Convergence criterion met
 Total energy in the final basis set =    -2692.3858476832
    9   -2692.3143334345      6.06e-07  Convergence criterion met
 Total energy in the final basis set =    -2692.3143334345
    9   -2692.2100183684      6.56e-07  Convergence criterion met
 Total energy in the final basis set =    -2692.2100183684
    9   -2692.0467343322      7.41e-07  Convergence criterion met
 Total energy in the final basis set =    -2692.0467343322
    9   -2691.8236390173      9.11e-07  Convergence criterion met
 Total energy in the final basis set =    -2691.8236390173
   10   -2691.5361486973      3.92e-07  Convergence criterion met
   10   -2689.5726888604      6.59e-07  Convergence criterion met
 Total energy in the final basis set =    -2689.5726888604
   10   -2689.5726903193      6.60e-07  Convergence criterion met
 Total energy in the final basis set =    -2689.5726903193
   10   -2689.5726915966      6.61e-07  Convergence criterion met
 Total energy in the final basis set =    -2689.5726915966
   10   -2689.5726939650      6.60e-07  Convergence criterion met
 Total energy in the final basis set =    -2689.5726939650
   10   -2689.5726972059      6.59e-07  Convergence criterion met
 Total energy in the final basis set =    -2689.5726972059
   10   -2689.5726997455      6.56e-07  Convergence criterion met
 Total energy in the final basis set =    -2689.5726997455

             Standard Nuclear Orientation (Angstroms)
    I     Atom           X                Y                Z
 ----------------------------------------------------------------
    1      Br      1.2576048203    -0.0003176325     0.1295770281
    2      C       0.3919141238     0.0000109386     0.3757079236
    3      C      -0.8097619727    -1.3449863850    -0.1667072957
    4      C      -0.8089104053     1.3453355964    -0.1667008662
    5      H      -0.2067534283     0.0001313068     1.3233655243
    6      H      -0.3084801590    -2.2512929981     0.1985849598
    7      H      -1.8323688394    -1.2710974696     0.2056264581
    8      H      -0.7643520070    -1.2947535940    -1.2615135025
    9      H      -0.3072984975     2.2515151050     0.1984545059
   10      H      -1.8314688953     1.2717911844     0.2058180802
   11      H      -0.7637247395     1.2950639482    -1.2615128156
 ----------------------------------------------------------------

   10   -2689.5727005631      6.55e-07  Convergence criterion met
 Total energy in the final basis set =    -2689.5727005631

                    Orbital Energies (a.u.)
 --------------------------------------------------------------

 Alpha MOs
 -- Occupied --
******* -62.667 -56.484 -56.477 -56.477 -10.531 -10.163 -10.163
 -8.928  -6.804  -6.714  -6.713  -2.905  -2.860  -2.859  -2.793
 -2.793  -1.050  -0.693  -0.689  -0.647  -0.587  -0.536  -0.408
 -0.397  -0.380  -0.377  -0.369  -0.182  -0.177

 Beta MOs
 -- Occupied --
******* -62.667 -56.484 -56.477 -56.477 -10.531 -10.163 -10.163
 -8.928  -6.804  -6.714  -6.713  -2.905  -2.860  -2.859  -2.793
 -2.793  -1.050  -0.693  -0.689  -0.647  -0.587  -0.536  -0.408
 -0.397  -0.380  -0.377  -0.369  -0.182  -0.177

          Ground-State Mulliken Net Atomic Charges

     Atom                 Charge (a.u.)    Spin (a.u.)
  --------------------------------------------------------
      1 Br                    0.945217       0.000000
      2 C                    -0.691133      -0.000000
      3 C                    -0.447610       0.000000
      4 C                    -0.447483      -0.000000
      5 H                     0.066821      -0.000000
      6 H                     0.082625      -0.000000
      7 H                     0.105063       0.000000
      8 H                     0.099384      -0.000000
      9 H                     0.082630       0.000000
     10 H                     0.105086       0.000000
     11 H                     0.099401       0.000000
  --------------------------------------------------------
  Sum of atomic charges =    -0.000000

                    Cartesian Multipole Moments
 -----------------------------------------------------------------
    Charge (ESU x 10^10)
                -0.0000
    Dipole Moment (Debye)
         X       0.1251      Y       0.0009      Z       0.7362
       Tot       0.7467
    Quadrupole Moments (Debye-Ang)
        XX     -40.6044     XY      -0.0002     YY     -39.5320
        XZ       0.4024     YZ      -0.0002     ZZ     -37.2883

 Final energy is   -2689.57270056305
 **  OPTIMIZATION CONVERGED  **
 Total job time:  188.98s(wall), 2209.55s(cpu)
        *  Thank you very much for using Q-Chem.  Have a nice day.  *
