 Q-Chem 5.1, Q-Chem, Inc., Pleasanton, CA (2018)
 Q-Chem 5.1.1 for Intel X86 EM64T Linux

User input:
--------------------------------------------------------------

$comment
potential surface scanner
$end

$rem
JOBTYPE  PES_SCAN
UNRESTRICTED TRUE
SYM_IGNORE  TRUE
GEOM_OPT_MAX_CYCLES 400
SCF_MAX_CYCLES 400
METHOD   B3LYP
BASIS   6-31G**
PDB_PRINT 2
SCF_CONVERGENCE 6
THRESH 14
SCF_PRINT 1
$end
$molecule
0 1
Br 1.744600 -0.000400 -0.101000
C -0.148200 0.000100 0.395200
C -0.798600 -1.260800 -0.147100
C -0.797900 1.261200 -0.147100
H -0.168300 0.000100 1.489400
H -0.311900 -2.158700 0.249400
H -1.855400 -1.302200 0.136700
H -0.741600 -1.308000 -1.240400
H -0.310700 2.158800 0.249400
H -1.854800 1.303000 0.136600
H -0.740800 1.308300 -1.240400
$end
$scan
stre 1 2 1.600000 1.601000 0.100000
$end
--------------------------------------------------------------

    9   -2692.4381940224      5.80e-07  Convergence criterion met
 Total energy in the final basis set =    -2692.4381940224
    9   -2692.4252909852      5.91e-07  Convergence criterion met
 Total energy in the final basis set =    -2692.4252909852
    9   -2692.3858476832      5.92e-07  Convergence criterion met
 Total energy in the final basis set =    -2692.3858476832
    9   -2692.3620360380      5.95e-07  Convergence criterion met
 Total energy in the final basis set =    -2692.3620360380
    9   -2692.3627853431      5.98e-07  Convergence criterion met
 Total energy in the final basis set =    -2692.3627853431
    9   -2692.3634272924      6.04e-07  Convergence criterion met
 Total energy in the final basis set =    -2692.3634272924
    9   -2692.3634515609      6.03e-07  Convergence criterion met
 Total energy in the final basis set =    -2692.3634515609
    9   -2692.3634683482      6.02e-07  Convergence criterion met
 Total energy in the final basis set =    -2692.3634683482
    9   -2692.3634705557      6.02e-07  Convergence criterion met
 Total energy in the final basis set =    -2692.3634705557
    9   -2692.3634795426      6.02e-07  Convergence criterion met
 Total energy in the final basis set =    -2692.3634795426
    9   -2692.3634832897      6.02e-07  Convergence criterion met
 Total energy in the final basis set =    -2692.3634832897
    9   -2692.3634875101      6.02e-07  Convergence criterion met
 Total energy in the final basis set =    -2692.3634875101
    9   -2692.3634890361      6.03e-07  Convergence criterion met
 Total energy in the final basis set =    -2692.3634890361

             Standard Nuclear Orientation (Angstroms)
    I     Atom           X                Y                Z
 ----------------------------------------------------------------
    1      Br      1.5474172574    -0.0004060383    -0.0025733901
    2      C      -0.0140878383    -0.0000046478     0.3462842679
    3      C      -0.7787804377    -1.2573352281    -0.1542875733
    4      C      -0.7781400885     1.2577050564    -0.1543082710
    5      H      -0.1748339385     0.0000461041     1.4360013369
    6      H      -0.3180790061    -2.1704582940     0.2348832248
    7      H      -1.8238361025    -1.2300892353     0.1685529179
    8      H      -0.7518703081    -1.3058880415    -1.2486083088
    9      H      -0.3169369304     2.1705985814     0.2348065985
   10      H      -1.8231963715     1.2310315959     0.1685812136
   11      H      -0.7512562358     1.3062001473    -1.2486320165
 ----------------------------------------------------------------

    9   -2692.3634895143      6.03e-07  Convergence criterion met
 Total energy in the final basis set =    -2692.3634895143

                    Orbital Energies (a.u.)
 --------------------------------------------------------------

 Alpha MOs
 -- Occupied --
******* -62.512 -56.332 -56.330 -56.330 -10.227 -10.185 -10.185
 -8.703  -6.533  -6.521  -6.521  -2.628  -2.624  -2.623  -2.613
 -2.613  -0.904  -0.737  -0.694  -0.577  -0.484  -0.448  -0.437
 -0.393  -0.380  -0.366  -0.358  -0.263  -0.262

 Beta MOs
 -- Occupied --
******* -62.512 -56.332 -56.330 -56.330 -10.227 -10.185 -10.185
 -8.703  -6.533  -6.521  -6.521  -2.628  -2.624  -2.623  -2.613
 -2.613  -0.904  -0.737  -0.694  -0.577  -0.484  -0.448  -0.437
 -0.393  -0.380  -0.366  -0.358  -0.263  -0.262

          Ground-State Mulliken Net Atomic Charges

     Atom                 Charge (a.u.)    Spin (a.u.)
  --------------------------------------------------------
      1 Br                   -0.054985      -0.000000
      2 C                    -0.105796      -0.000000
      3 C                    -0.317508      -0.000000
      4 C                    -0.317508      -0.000000
      5 H                     0.122815       0.000000
      6 H                     0.115453       0.000000
      7 H                     0.104880       0.000000
      8 H                     0.116158      -0.000000
      9 H                     0.115453      -0.000000
     10 H                     0.104880       0.000000
     11 H                     0.116158       0.000000
  --------------------------------------------------------
  Sum of atomic charges =    -0.000000

                    Cartesian Multipole Moments
 -----------------------------------------------------------------
    Charge (ESU x 10^10)
                -0.0000
    Dipole Moment (Debye)
         X      -1.4658      Y       0.0004      Z       0.3311
       Tot       1.5028
    Quadrupole Moments (Debye-Ang)
        XX     -39.7791     XY       0.0003     YY     -38.4974
        XZ      -0.2196     YZ       0.0001     ZZ     -38.3048

 Final energy is   -2692.36348951432
 **  OPTIMIZATION CONVERGED  **
 Total job time:  53.01s(wall), 606.23s(cpu)
        *  Thank you very much for using Q-Chem.  Have a nice day.  *
