 Q-Chem 5.1, Q-Chem, Inc., Pleasanton, CA (2018)
 Q-Chem 5.1.1 for Intel X86 EM64T Linux

User input:
--------------------------------------------------------------

$comment
potential surface scanner
$end

$rem
JOBTYPE  PES_SCAN
UNRESTRICTED TRUE
SYM_IGNORE  TRUE
GEOM_OPT_MAX_CYCLES 400
SCF_MAX_CYCLES 400
METHOD   B3LYP
BASIS   6-31G**
PDB_PRINT 2
SCF_CONVERGENCE 6
THRESH 14
SCF_PRINT 1
$end
$molecule
0 3
Br 4.096130 -0.000565 0.238350
C -0.601024 0.000098 0.401868
C -1.066107 -1.300113 -0.163317
C -1.065345 1.300526 -0.163437
H -0.136520 0.000012 1.385031
H -0.453256 -2.139178 0.182445
H -2.109126 -1.530184 0.120145
H -1.044448 -1.293142 -1.261262
H -0.451917 2.139241 0.182155
H -2.108188 1.531302 0.120105
H -1.043801 1.293401 -1.261382
$end
$scan
stre 1 2 4.600000 4.601000 0.100000
$end
--------------------------------------------------------------

   10   -2692.3278402419      3.37e-07  Convergence criterion met
 Total energy in the final basis set =    -2692.3278402419
   10   -2692.3277135430      3.39e-07  Convergence criterion met
 Total energy in the final basis set =    -2692.3277135430
   10   -2692.3278038039      3.37e-07  Convergence criterion met
 Total energy in the final basis set =    -2692.3278038039
   10   -2692.3278379584      3.36e-07  Convergence criterion met
 Total energy in the final basis set =    -2692.3278379584
   10   -2692.3278389988      3.36e-07  Convergence criterion met
 Total energy in the final basis set =    -2692.3278389988
   10   -2692.3278407736      3.36e-07  Convergence criterion met
 Total energy in the final basis set =    -2692.3278407736
   10   -2692.3278418482      3.36e-07  Convergence criterion met
 Total energy in the final basis set =    -2692.3278418482
   10   -2692.3278429975      3.36e-07  Convergence criterion met
 Total energy in the final basis set =    -2692.3278429975

             Standard Nuclear Orientation (Angstroms)
    I     Atom           X                Y                Z
 ----------------------------------------------------------------
    1      Br      3.9865003958    -0.0001984256     0.2024928675
    2      C      -0.6084168383     0.0000388581     0.4186798487
    3      C      -1.0531100384    -1.3008744389    -0.1608986921
    4      C      -1.0521649300     1.3012201581    -0.1610155464
    5      H      -0.1599468854    -0.0000735045     1.4089116983
    6      H      -0.4357784825    -2.1359523455     0.1869380060
    7      H      -2.0968925854    -1.5449028642     0.1078218871
    8      H      -1.0173734360    -1.2858149331    -1.2582768491
    9      H      -0.4341248749     2.1358520454     0.1866355711
   10      H      -2.0957200978     1.5461145870     0.1078071846
   11      H      -1.0165742271     1.2859888632    -1.2583949757
 ----------------------------------------------------------------

   10   -2692.3278433076      3.35e-07  Convergence criterion met
 Total energy in the final basis set =    -2692.3278433076

                    Orbital Energies (a.u.)
 --------------------------------------------------------------

 Alpha MOs
 -- Occupied --
******* -62.556 -56.380 -56.372 -56.372 -10.184 -10.175 -10.175
 -8.743  -6.580  -6.557  -6.557  -2.670  -2.665  -2.665  -2.648
 -2.648  -0.795  -0.775  -0.686  -0.565  -0.446  -0.423  -0.403
 -0.381  -0.370  -0.350  -0.343  -0.321  -0.321  -0.177

 Beta MOs
 -- Occupied --
******* -62.554 -56.374 -56.371 -56.371 -10.176 -10.176 -10.170
 -8.739  -6.569  -6.556  -6.555  -2.662  -2.659  -2.659  -2.647
 -2.647  -0.758  -0.752  -0.683  -0.544  -0.441  -0.405  -0.397
 -0.374  -0.346  -0.338  -0.307  -0.307

          Ground-State Mulliken Net Atomic Charges

     Atom                 Charge (a.u.)    Spin (a.u.)
  --------------------------------------------------------
      1 Br                   -0.001071       1.001346
      2 C                    -0.067954       1.018117
      3 C                    -0.333887      -0.079958
      4 C                    -0.333889      -0.079958
      5 H                     0.087921      -0.046309
      6 H                     0.108574       0.009058
      7 H                     0.108764       0.063927
      8 H                     0.107098       0.020397
      9 H                     0.108588       0.009063
     10 H                     0.108762       0.063927
     11 H                     0.107095       0.020390
  --------------------------------------------------------
  Sum of atomic charges =    -0.000000

                    Cartesian Multipole Moments
 -----------------------------------------------------------------
    Charge (ESU x 10^10)
                -0.0000
    Dipole Moment (Debye)
         X      -0.2217      Y       0.0002      Z       0.0063
       Tot       0.2218
    Quadrupole Moments (Debye-Ang)
        XX     -39.8679     XY       0.0045     YY     -36.4090
        XZ       0.3301     YZ      -0.0017     ZZ     -39.2869

 Final energy is   -2692.32784330763
 **  OPTIMIZATION CONVERGED  **
 Total job time:  34.99s(wall), 372.80s(cpu)
        *  Thank you very much for using Q-Chem.  Have a nice day.  *
