 Q-Chem 5.1, Q-Chem, Inc., Pleasanton, CA (2018)
 Q-Chem 5.1.1 for Intel X86 EM64T Linux

User input:
--------------------------------------------------------------

$comment
potential surface scanner
$end

$rem
JOBTYPE  PES_SCAN
UNRESTRICTED TRUE
SYM_IGNORE  TRUE
GEOM_OPT_MAX_CYCLES 400
SCF_MAX_CYCLES 400
METHOD   B3LYP
BASIS   6-31G**
PDB_PRINT 2
SCF_CONVERGENCE 6
THRESH 14
SCF_PRINT 1
$end
$molecule
0 1
Br 1.785840 -0.000444 -0.062845
C -0.164218 0.000029 0.381310
C -0.801187 -1.274462 -0.152029
C -0.800534 1.274839 -0.152052
H -0.159614 0.000040 1.472531
H -0.310439 -2.166800 0.242948
H -1.856186 -1.300096 0.148432
H -0.756547 -1.309437 -1.244443
H -0.309296 2.166931 0.242874
H -1.855510 1.301052 0.148444
H -0.755910 1.309750 -1.244469
$end
$scan
stre 1 2 2.100000 2.101000 0.100000
$end
--------------------------------------------------------------

    9   -2692.4392714441      5.88e-07  Convergence criterion met
 Total energy in the final basis set =    -2692.4392714441
    9   -2692.4377464847      4.97e-07  Convergence criterion met
 Total energy in the final basis set =    -2692.4377464847
    9   -2692.4379711840      5.05e-07  Convergence criterion met
 Total energy in the final basis set =    -2692.4379711840
    9   -2692.4380652548      5.13e-07  Convergence criterion met
 Total energy in the final basis set =    -2692.4380652548
    9   -2692.4380677680      5.13e-07  Convergence criterion met
 Total energy in the final basis set =    -2692.4380677680

             Standard Nuclear Orientation (Angstroms)
    I     Atom           X                Y                Z
 ----------------------------------------------------------------
    1      Br      1.8482698083    -0.0004632895    -0.0725257604
    2      C      -0.2002631197     0.0000400029     0.3895478442
    3      C      -0.8071763216    -1.2780614041    -0.1520340266
    4      C      -0.8065223255     1.2784432209    -0.1520570397
    5      H      -0.1587427463     0.0000415197     1.4786031701
    6      H      -0.3073821289    -2.1644384003     0.2438274449
    7      H      -1.8637897987    -1.3179375012     0.1448443441
    8      H      -0.7596404393    -1.3080252290    -1.2440464304
    9      H      -0.3062373673     2.1645679798     0.2437501530
   10      H      -1.8631015202     1.3188944652     0.1448642641
   11      H      -0.7590150407     1.3083406356    -1.2440729634
 ----------------------------------------------------------------

    9   -2692.4380681229      5.13e-07  Convergence criterion met
 Total energy in the final basis set =    -2692.4380681229

                    Orbital Energies (a.u.)
 --------------------------------------------------------------

 Alpha MOs
 -- Occupied --
******* -62.494 -56.315 -56.312 -56.312 -10.260 -10.197 -10.197
 -8.681  -6.510  -6.499  -6.499  -2.604  -2.601  -2.601  -2.591
 -2.591  -0.824  -0.731  -0.707  -0.590  -0.475  -0.453  -0.428
 -0.404  -0.370  -0.370  -0.327  -0.268  -0.268

 Beta MOs
 -- Occupied --
******* -62.494 -56.315 -56.312 -56.312 -10.260 -10.197 -10.197
 -8.681  -6.510  -6.499  -6.499  -2.604  -2.601  -2.601  -2.591
 -2.591  -0.824  -0.731  -0.707  -0.590  -0.475  -0.453  -0.428
 -0.404  -0.370  -0.370  -0.327  -0.268  -0.268

          Ground-State Mulliken Net Atomic Charges

     Atom                 Charge (a.u.)    Spin (a.u.)
  --------------------------------------------------------
      1 Br                   -0.176947      -0.000000
      2 C                    -0.117285      -0.000000
      3 C                    -0.308395       0.000000
      4 C                    -0.308395      -0.000000
      5 H                     0.151351      -0.000000
      6 H                     0.134168      -0.000000
      7 H                     0.114448       0.000000
      8 H                     0.131220       0.000000
      9 H                     0.134169      -0.000000
     10 H                     0.114447       0.000000
     11 H                     0.131219       0.000000
  --------------------------------------------------------
  Sum of atomic charges =    -0.000000

                    Cartesian Multipole Moments
 -----------------------------------------------------------------
    Charge (ESU x 10^10)
                -0.0000
    Dipole Moment (Debye)
         X      -2.8237      Y       0.0007      Z       0.4362
       Tot       2.8572
    Quadrupole Moments (Debye-Ang)
        XX     -41.4589     XY       0.0009     YY     -38.0073
        XZ      -0.2250     YZ       0.0001     ZZ     -38.3556

 Final energy is   -2692.43806812293
 **  OPTIMIZATION CONVERGED  **
 Total job time:  22.55s(wall), 257.23s(cpu)
        *  Thank you very much for using Q-Chem.  Have a nice day.  *
