 Q-Chem 5.1, Q-Chem, Inc., Pleasanton, CA (2018)
 Q-Chem 5.1.1 for Intel X86 EM64T Linux

User input:
--------------------------------------------------------------

$comment
potential surface scanner
$end

$rem
JOBTYPE  PES_SCAN
UNRESTRICTED TRUE
SYM_IGNORE  TRUE
GEOM_OPT_MAX_CYCLES 400
SCF_MAX_CYCLES 400
METHOD   B3LYP
BASIS   6-31G**
PDB_PRINT 2
SCF_CONVERGENCE 6
THRESH 14
SCF_PRINT 1
$end
$molecule
0 3
Br 2.391031 -0.000552 -0.111339
C -0.455718 0.000099 0.441850
C -0.864069 -1.293241 -0.150381
C -0.863393 1.293640 -0.150407
H -0.170606 0.000036 1.489782
H -0.280450 -2.125638 0.243839
H -1.920676 -1.461353 0.127913
H -0.810583 -1.281589 -1.241104
H -0.279314 2.125727 0.243784
H -1.919904 1.462339 0.127893
H -0.809918 1.281929 -1.241130
$end
$scan
stre 1 2 5.700000 5.701000 0.100000
$end
--------------------------------------------------------------

   15   -2692.3162256431      8.84e-07  Convergence criterion met
 Total energy in the final basis set =    -2692.3162256431
   19   -2692.3211716750      2.05e-07  Convergence criterion met
 Total energy in the final basis set =    -2692.3211716750
   20   -2692.3237003901      2.31e-07  Convergence criterion met
 Total energy in the final basis set =    -2692.3237003901
   22   -2692.3253103852      2.11e-07  Convergence criterion met
 Total energy in the final basis set =    -2692.3253103852
   22   -2692.3264137205      3.17e-07  Convergence criterion met
 Total energy in the final basis set =    -2692.3264137205
   25   -2692.3271453302      5.21e-07  Convergence criterion met
 Total energy in the final basis set =    -2692.3271453302
   10   -2692.3275137330      3.44e-07  Convergence criterion met
 Total energy in the final basis set =    -2692.3275137330
   10   -2692.3276050181      3.41e-07  Convergence criterion met
   10   -2692.3278867163      3.37e-07  Convergence criterion met
 Total energy in the final basis set =    -2692.3278867163
   10   -2692.3279008628      3.38e-07  Convergence criterion met
 Total energy in the final basis set =    -2692.3279008628
   10   -2692.3279334550      3.40e-07  Convergence criterion met
 Total energy in the final basis set =    -2692.3279334550
   10   -2692.3279664711      3.42e-07  Convergence criterion met
 Total energy in the final basis set =    -2692.3279664711
   10   -2692.3280096897      3.39e-07  Convergence criterion met
 Total energy in the final basis set =    -2692.3280096897
   10   -2692.3280421791      3.37e-07  Convergence criterion met
 Total energy in the final basis set =    -2692.3280421791

             Standard Nuclear Orientation (Angstroms)
    I     Atom           X                Y                Z
 ----------------------------------------------------------------
    1      Br      5.0834713149    -0.0015549941     0.8634618310
    2      C      -0.5759585924     0.0002453667     0.1846026304
    3      C      -1.2017346314    -1.2990871679    -0.1972480393
    4      C      -1.2014441352     1.2996857211    -0.1973652638
    5      H       0.2089327682     0.0002128080     0.9365319337
    6      H      -0.5206607785    -2.1426464250    -0.0462536362
    7      H      -2.1118004786    -1.5137501308     0.3916295782
    8      H      -1.5165400831    -1.3006668885    -1.2497987249
    9      H      -0.5201134847     2.1430787391    -0.0465945716
   10      H      -2.1113662389     1.5146883846     0.3916082838
   11      H      -1.5163856603     1.3011915868    -1.2498740212
 ----------------------------------------------------------------

   10   -2692.3280424416      3.37e-07  Convergence criterion met
 Total energy in the final basis set =    -2692.3280424416

                    Orbital Energies (a.u.)
 --------------------------------------------------------------

 Alpha MOs
 -- Occupied --
******* -62.557 -56.382 -56.374 -56.374 -10.184 -10.175 -10.175
 -8.745  -6.581  -6.559  -6.559  -2.672  -2.667  -2.667  -2.650
 -2.650  -0.797  -0.775  -0.686  -0.565  -0.446  -0.423  -0.403
 -0.380  -0.372  -0.350  -0.343  -0.323  -0.323  -0.177

 Beta MOs
 -- Occupied --
******* -62.556 -56.376 -56.373 -56.373 -10.176 -10.176 -10.170
 -8.741  -6.571  -6.557  -6.557  -2.664  -2.661  -2.661  -2.649
 -2.649  -0.758  -0.754  -0.683  -0.544  -0.441  -0.406  -0.398
 -0.374  -0.346  -0.338  -0.309  -0.309

          Ground-State Mulliken Net Atomic Charges

     Atom                 Charge (a.u.)    Spin (a.u.)
  --------------------------------------------------------
      1 Br                    0.000043       1.000018
      2 C                    -0.071885       1.019507
      3 C                    -0.333367      -0.080330
      4 C                    -0.333369      -0.080329
      5 H                     0.089298      -0.046702
      6 H                     0.108599       0.007074
      7 H                     0.108796       0.062967
      8 H                     0.107239       0.023880
      9 H                     0.108615       0.007078
     10 H                     0.108793       0.062966
     11 H                     0.107237       0.023872
  --------------------------------------------------------
  Sum of atomic charges =     0.000000

                    Cartesian Multipole Moments
 -----------------------------------------------------------------
    Charge (ESU x 10^10)
                 0.0000
    Dipole Moment (Debye)
         X      -0.1687      Y       0.0001      Z       0.0724
       Tot       0.1835
    Quadrupole Moments (Debye-Ang)
        XX     -39.3629     XY       0.0086     YY     -36.3979
        XZ       0.4582     YZ       0.0176     ZZ     -39.6668

 Final energy is   -2692.32804244158
 **  OPTIMIZATION CONVERGED  **
 Total job time:  123.97s(wall), 1423.71s(cpu)
        *  Thank you very much for using Q-Chem.  Have a nice day.  *
