 Q-Chem 5.1, Q-Chem, Inc., Pleasanton, CA (2018)
 Q-Chem 5.1.1 for Intel X86 EM64T Linux

User input:
--------------------------------------------------------------

$comment
potential surface scanner
$end

$rem
JOBTYPE  PES_SCAN
UNRESTRICTED TRUE
SYM_IGNORE  TRUE
GEOM_OPT_MAX_CYCLES 400
SCF_MAX_CYCLES 400
METHOD   B3LYP
BASIS   6-31G**
PDB_PRINT 2
SCF_CONVERGENCE 6
THRESH 14
SCF_PRINT 1
$end
$molecule
0 3
Br 3.602678 0.000235 0.072500
C -0.580819 -0.000033 0.444463
C -1.010815 -1.299620 -0.149085
C -1.009700 1.299884 -0.149160
H -0.163638 -0.000174 1.448357
H -0.441052 -2.142793 0.254768
H -2.077609 -1.513869 0.043493
H -0.894123 -1.303286 -1.241323
H -0.438899 2.142538 0.254315
H -2.076190 1.515298 0.043814
H -0.893436 1.303220 -1.241441
$end
$scan
stre 1 2 4.100000 4.101000 0.100000
$end
--------------------------------------------------------------

   10   -2692.3279025109      3.35e-07  Convergence criterion met
 Total energy in the final basis set =    -2692.3279025109
   10   -2692.3277957147      3.35e-07  Convergence criterion met
 Total energy in the final basis set =    -2692.3277957147
   10   -2692.3278239855      3.35e-07  Convergence criterion met
 Total energy in the final basis set =    -2692.3278239855
   10   -2692.3278327399      3.36e-07  Convergence criterion met
 Total energy in the final basis set =    -2692.3278327399
   10   -2692.3278339303      3.36e-07  Convergence criterion met
 Total energy in the final basis set =    -2692.3278339303
   10   -2692.3278373294      3.36e-07  Convergence criterion met
 Total energy in the final basis set =    -2692.3278373294
   10   -2692.3278414466      3.37e-07  Convergence criterion met
 Total energy in the final basis set =    -2692.3278414466
   10   -2692.3278492182      3.37e-07  Convergence criterion met
 Total energy in the final basis set =    -2692.3278492182
   10   -2692.3278550931      3.37e-07  Convergence criterion met
 Total energy in the final basis set =    -2692.3278550931
   10   -2692.3278590858      3.36e-07  Convergence criterion met
 Total energy in the final basis set =    -2692.3278590858

             Standard Nuclear Orientation (Angstroms)
    I     Atom           X                Y                Z
 ----------------------------------------------------------------
    1      Br      3.4813771219     0.0005454737    -0.0276240685
    2      C      -0.5882350211    -0.0000793676     0.4706299910
    3      C      -0.9896459724    -1.2996549581    -0.1431199896
    4      C      -0.9883733796     1.2998563141    -0.1431840387
    5      H      -0.2521424357    -0.0002105786     1.5048138630
    6      H      -0.4316192924    -2.1416621074     0.2795209375
    7      H      -2.0617986851    -1.5194082865     0.0100352763
    8      H      -0.8323045142    -1.2991010002    -1.2298588840
    9      H      -0.4292311388     2.1412867195     0.2791336070
   10      H      -2.0602152957     1.5208799288     0.0103284455
   11      H      -0.8314143870     1.2989478624    -1.2299741395
 ----------------------------------------------------------------

   10   -2692.3278597131      3.36e-07  Convergence criterion met
 Total energy in the final basis set =    -2692.3278597131

                    Orbital Energies (a.u.)
 --------------------------------------------------------------

 Alpha MOs
 -- Occupied --
******* -62.554 -56.378 -56.371 -56.371 -10.184 -10.175 -10.175
 -8.741  -6.578  -6.556  -6.556  -2.669  -2.663  -2.663  -2.647
 -2.647  -0.794  -0.775  -0.686  -0.565  -0.446  -0.423  -0.403
 -0.381  -0.369  -0.350  -0.343  -0.320  -0.319  -0.177

 Beta MOs
 -- Occupied --
******* -62.553 -56.373 -56.370 -56.370 -10.176 -10.176 -10.171
 -8.737  -6.567  -6.554  -6.554  -2.661  -2.657  -2.657  -2.646
 -2.646  -0.758  -0.750  -0.683  -0.544  -0.441  -0.406  -0.397
 -0.374  -0.346  -0.337  -0.306  -0.305

          Ground-State Mulliken Net Atomic Charges

     Atom                 Charge (a.u.)    Spin (a.u.)
  --------------------------------------------------------
      1 Br                   -0.003045       1.004013
      2 C                    -0.063736       1.013492
      3 C                    -0.334601      -0.078968
      4 C                    -0.334596      -0.078966
      5 H                     0.087514      -0.045594
      6 H                     0.107986       0.007967
      7 H                     0.108142       0.064022
      8 H                     0.108105       0.021025
      9 H                     0.107993       0.007980
     10 H                     0.108139       0.064023
     11 H                     0.108098       0.021005
  --------------------------------------------------------
  Sum of atomic charges =     0.000000

                    Cartesian Multipole Moments
 -----------------------------------------------------------------
    Charge (ESU x 10^10)
                 0.0000
    Dipole Moment (Debye)
         X      -0.2743      Y       0.0001      Z      -0.0009
       Tot       0.2743
    Quadrupole Moments (Debye-Ang)
        XX     -40.0410     XY       0.0013     YY     -36.4332
        XZ       0.2588     YZ      -0.0025     ZZ     -39.2047

 Final energy is   -2692.32785971308
 **  OPTIMIZATION CONVERGED  **
 Total job time:  37.79s(wall), 435.79s(cpu)
        *  Thank you very much for using Q-Chem.  Have a nice day.  *
