 Q-Chem 5.1, Q-Chem, Inc., Pleasanton, CA (2018)
 Q-Chem 5.1.1 for Intel X86 EM64T Linux

User input:
--------------------------------------------------------------

$comment
potential surface scanner
$end

$rem
JOBTYPE  PES_SCAN
UNRESTRICTED TRUE
SYM_IGNORE  TRUE
GEOM_OPT_MAX_CYCLES 400
SCF_MAX_CYCLES 400
METHOD   B3LYP
BASIS   6-31G**
PDB_PRINT 2
SCF_CONVERGENCE 6
THRESH 14
SCF_PRINT 1
$end
$molecule
0 1
F -0.000979 1.430930 0.151388
C 0.000094 -0.074188 -0.391400
C -1.282076 -0.673580 0.119503
C 1.283118 -0.671778 0.119468
H -0.000020 0.064223 -1.474606
H -2.139598 -0.084015 -0.211660
H -1.398023 -1.695907 -0.259643
H -1.278959 -0.708909 1.212247
H 2.139810 -0.081033 -0.211741
H 1.400445 -1.693946 -0.259670
H 1.280090 -0.707096 1.212213
$end
$scan
stre 1 2 1.700000 1.701000 0.100000
$end
--------------------------------------------------------------

    9    -218.3738345778      3.82e-07  Convergence criterion met
 Total energy in the final basis set =     -218.3738345778
    9    -218.3608898545      3.47e-07  Convergence criterion met
 Total energy in the final basis set =     -218.3608898545
    9    -218.3607690392      3.66e-07  Convergence criterion met
 Total energy in the final basis set =     -218.3607690392
    9    -218.3609008659      3.90e-07  Convergence criterion met
 Total energy in the final basis set =     -218.3609008659
    9    -218.3609073094      3.90e-07  Convergence criterion met
 Total energy in the final basis set =     -218.3609073094

             Standard Nuclear Orientation (Angstroms)
    I     Atom           X                Y                Z
 ----------------------------------------------------------------
    1      F      -0.0010130777     1.4833468070     0.1743104963
    2      C       0.0001210059    -0.1145155803    -0.4060632608
    3      C      -1.2853785904    -0.6793517813     0.1178760192
    4      C       1.2864270660    -0.6775440826     0.1178431465
    5      H      -0.0000202665     0.0619307794    -1.4816735248
    6      H      -2.1329012555    -0.0762856980    -0.2129163629
    7      H      -1.4218689244    -1.7023752421    -0.2553110565
    8      H      -1.2744958225    -0.7093148878     1.2101926148
    9      H       2.1331012089    -0.0733238362    -0.2130160201
   10      H       1.4242965965    -1.7003931339    -0.2553051196
   11      H       1.2756340596    -0.7074723441     1.2101620679
 ----------------------------------------------------------------

    9    -218.3609079754      3.89e-07  Convergence criterion met
 Total energy in the final basis set =     -218.3609079754

                    Orbital Energies (a.u.)
 --------------------------------------------------------------

 Alpha MOs
 -- Occupied --
-24.611 -10.272 -10.192 -10.192  -1.062  -0.800  -0.708  -0.590
 -0.477  -0.451  -0.431  -0.404  -0.371  -0.371  -0.351  -0.304
 -0.304

 Beta MOs
 -- Occupied --
-24.611 -10.272 -10.192 -10.192  -1.062  -0.800  -0.708  -0.590
 -0.477  -0.451  -0.431  -0.404  -0.371  -0.371  -0.351  -0.304
 -0.304

          Ground-State Mulliken Net Atomic Charges

     Atom                 Charge (a.u.)    Spin (a.u.)
  --------------------------------------------------------
      1 F                    -0.395659       0.000000
      2 C                     0.177219      -0.000000
      3 C                    -0.324821       0.000000
      4 C                    -0.324819       0.000000
      5 H                     0.119565      -0.000000
      6 H                     0.135934      -0.000000
      7 H                     0.108730      -0.000000
      8 H                     0.129594      -0.000000
      9 H                     0.135931      -0.000000
     10 H                     0.108731      -0.000000
     11 H                     0.129596       0.000000
  --------------------------------------------------------
  Sum of atomic charges =     0.000000

                    Cartesian Multipole Moments
 -----------------------------------------------------------------
    Charge (ESU x 10^10)
                 0.0000
    Dipole Moment (Debye)
         X       0.0020      Y      -2.8222      Z      -0.7531
       Tot       2.9209
    Quadrupole Moments (Debye-Ang)
        XX     -23.4313     XY       0.0033     YY     -28.2491
        XZ       0.0003     YZ      -0.4867     ZZ     -23.8660

 Final energy is   -218.360907975449
 **  OPTIMIZATION CONVERGED  **
 Total job time:  19.34s(wall), 193.41s(cpu)
        *  Thank you very much for using Q-Chem.  Have a nice day.  *
