 Q-Chem 5.1, Q-Chem, Inc., Pleasanton, CA (2018)
 Q-Chem 5.1.1 for Intel X86 EM64T Linux

User input:
--------------------------------------------------------------

$comment
potential surface scanner
$end

$rem
JOBTYPE  PES_SCAN
UNRESTRICTED TRUE
SYM_IGNORE  TRUE
GEOM_OPT_MAX_CYCLES 400
SCF_MAX_CYCLES 400
METHOD   B3LYP
BASIS   6-31G**
PDB_PRINT 2
SCF_CONVERGENCE 6
THRESH 14
SCF_PRINT 1
$end
$molecule
0 1
F -0.000831 1.281735 0.084832
C -0.000003 0.055189 -0.345963
C -1.270935 -0.656889 0.124364
C 1.271941 -0.655109 0.124319
H -0.000032 0.064212 -1.451260
H -2.158128 -0.110805 -0.210713
H -1.321648 -1.675062 -0.272687
H -1.293812 -0.709703 1.218383
H 2.158352 -0.107767 -0.210774
H 1.324085 -1.673208 -0.272738
H 1.294913 -0.707893 1.218337
$end
$scan
stre 1 2 1.400000 1.401000 0.100000
$end
--------------------------------------------------------------

    8    -218.3805815379      8.06e-07  Convergence criterion met
 Total energy in the final basis set =     -218.3805815379
    9    -218.3871283381      2.74e-07  Convergence criterion met
 Total energy in the final basis set =     -218.3871283381
    9    -218.3877579133      3.26e-07  Convergence criterion met
 Total energy in the final basis set =     -218.3877579133
    8    -218.3878705734      1.00e-06  Convergence criterion met
 Total energy in the final basis set =     -218.3878705734
    9    -218.3878752410      3.55e-07  Convergence criterion met
 Total energy in the final basis set =     -218.3878752410

             Standard Nuclear Orientation (Angstroms)
    I     Atom           X                Y                Z
 ----------------------------------------------------------------
    1      F      -0.0008763917     1.3302794122     0.1065061569
    2      C       0.0000297575     0.0107763429    -0.3613722029
    3      C      -1.2743502872    -0.6622450336     0.1226477988
    4      C       1.2753684128    -0.6604568308     0.1226060739
    5      H      -0.0000282627     0.0649387313    -1.4591987640
    6      H      -2.1519287714    -0.1012634651    -0.2102733173
    7      H      -1.3474921570    -1.6821983695    -0.2684399711
    8      H      -1.2878666038    -0.7091961004     1.2162472129
    9      H       2.1521487139    -0.0982406823    -0.2103363821
   10      H       1.3499222000    -1.6803011806    -0.2684917116
   11      H       1.2889753895    -0.7073928241     1.2162051064
 ----------------------------------------------------------------

    9    -218.3878756884      3.55e-07  Convergence criterion met
 Total energy in the final basis set =     -218.3878756884

                    Orbital Energies (a.u.)
 --------------------------------------------------------------

 Alpha MOs
 -- Occupied --
-24.658 -10.259 -10.180 -10.180  -1.164  -0.782  -0.697  -0.592
 -0.495  -0.461  -0.449  -0.397  -0.394  -0.383  -0.370  -0.319
 -0.315

 Beta MOs
 -- Occupied --
-24.658 -10.259 -10.180 -10.180  -1.164  -0.782  -0.697  -0.592
 -0.495  -0.461  -0.449  -0.397  -0.394  -0.383  -0.370  -0.319
 -0.315

          Ground-State Mulliken Net Atomic Charges

     Atom                 Charge (a.u.)    Spin (a.u.)
  --------------------------------------------------------
      1 F                    -0.332126       0.000000
      2 C                     0.249409       0.000000
      3 C                    -0.334550       0.000000
      4 C                    -0.334550      -0.000000
      5 H                     0.081218      -0.000000
      6 H                     0.117751      -0.000000
      7 H                     0.102857       0.000000
      8 H                     0.114692      -0.000000
      9 H                     0.117752       0.000000
     10 H                     0.102856       0.000000
     11 H                     0.114692       0.000000
  --------------------------------------------------------
  Sum of atomic charges =     0.000000

                    Cartesian Multipole Moments
 -----------------------------------------------------------------
    Charge (ESU x 10^10)
                -0.0000
    Dipole Moment (Debye)
         X       0.0011      Y      -1.6297      Z      -0.4370
       Tot       1.6873
    Quadrupole Moments (Debye-Ang)
        XX     -24.4250     XY       0.0018     YY     -27.0929
        XZ       0.0001     YZ      -0.2164     ZZ     -24.4675

 Final energy is   -218.387875688364
 **  OPTIMIZATION CONVERGED  **
 Total job time:  17.09s(wall), 187.81s(cpu)
        *  Thank you very much for using Q-Chem.  Have a nice day.  *
