 Q-Chem 5.1, Q-Chem, Inc., Pleasanton, CA (2018)
 Q-Chem 5.1.1 for Intel X86 EM64T Linux

User input:
--------------------------------------------------------------

$comment
potential surface scanner
$end

$rem
JOBTYPE  PES_SCAN
UNRESTRICTED TRUE
SYM_IGNORE  TRUE
GEOM_OPT_MAX_CYCLES 400
SCF_MAX_CYCLES 400
METHOD   B3LYP
BASIS   6-31G**
PDB_PRINT 2
SCF_CONVERGENCE 6
THRESH 14
SCF_PRINT 1
$end
$molecule
0 1
F -0.000921 1.379919 0.128902
C 0.000062 -0.032364 -0.376525
C -1.278287 -0.667861 0.121044
C 1.279316 -0.666066 0.121005
H -0.000025 0.065163 -1.467103
H -2.145916 -0.092396 -0.210752
H -1.373115 -1.689201 -0.264003
H -1.283243 -0.708820 1.214219
H 2.146129 -0.089390 -0.210821
H 1.375542 -1.687269 -0.264046
H 1.284360 -0.707015 1.214180
$end
$scan
stre 1 2 1.600000 1.601000 0.100000
$end
--------------------------------------------------------------

    9    -218.3838651310      3.71e-07  Convergence criterion met
 Total energy in the final basis set =     -218.3838651310
    9    -218.3736439334      3.14e-07  Convergence criterion met
 Total energy in the final basis set =     -218.3736439334
    9    -218.3736997730      3.48e-07  Convergence criterion met
 Total energy in the final basis set =     -218.3736997730
    9    -218.3738281867      3.85e-07  Convergence criterion met
 Total energy in the final basis set =     -218.3738281867
    9    -218.3738340433      3.84e-07  Convergence criterion met
 Total energy in the final basis set =     -218.3738340433

             Standard Nuclear Orientation (Angstroms)
    I     Atom           X                Y                Z
 ----------------------------------------------------------------
    1      F      -0.0009790840     1.4309295693     0.1513875451
    2      C       0.0000939090    -0.0741883160    -0.3913998731
    3      C      -1.2820756650    -0.6735797818     0.1195031678
    4      C       1.2831175258    -0.6717783591     0.1194680072
    5      H      -0.0000198487     0.0642226820    -1.4746055837
    6      H      -2.1395984377    -0.0840147764    -0.2116597554
    7      H      -1.3980225232    -1.6959068349    -0.2596426128
    8      H      -1.2789593317    -0.7089085868     1.2122470970
    9      H       2.1398101802    -0.0810334565    -0.2117407402
   10      H       1.4004451469    -1.6939463539    -0.2596699433
   11      H       1.2800901282    -0.7070957860     1.2122126913
 ----------------------------------------------------------------

    9    -218.3738346139      3.82e-07  Convergence criterion met
 Total energy in the final basis set =     -218.3738346139

                    Orbital Energies (a.u.)
 --------------------------------------------------------------

 Alpha MOs
 -- Occupied --
-24.626 -10.267 -10.189 -10.189  -1.089  -0.795  -0.704  -0.588
 -0.478  -0.453  -0.432  -0.401  -0.374  -0.369  -0.366  -0.314
 -0.313

 Beta MOs
 -- Occupied --
-24.626 -10.267 -10.189 -10.189  -1.089  -0.795  -0.704  -0.588
 -0.478  -0.453  -0.432  -0.401  -0.374  -0.369  -0.366  -0.314
 -0.313

          Ground-State Mulliken Net Atomic Charges

     Atom                 Charge (a.u.)    Spin (a.u.)
  --------------------------------------------------------
      1 F                    -0.383226      -0.000000
      2 C                     0.203843       0.000000
      3 C                    -0.326151      -0.000000
      4 C                    -0.326148      -0.000000
      5 H                     0.109114      -0.000000
      6 H                     0.129994       0.000000
      7 H                     0.106498       0.000000
      8 H                     0.124791      -0.000000
      9 H                     0.129993       0.000000
     10 H                     0.106500      -0.000000
     11 H                     0.124792      -0.000000
  --------------------------------------------------------
  Sum of atomic charges =    -0.000000

                    Cartesian Multipole Moments
 -----------------------------------------------------------------
    Charge (ESU x 10^10)
                -0.0000
    Dipole Moment (Debye)
         X       0.0017      Y      -2.4322      Z      -0.6511
       Tot       2.5178
    Quadrupole Moments (Debye-Ang)
        XX     -23.7472     XY       0.0028     YY     -27.8564
        XZ       0.0002     YZ      -0.3895     ZZ     -24.0431

 Final energy is   -218.373834613948
 **  OPTIMIZATION CONVERGED  **
 Total job time:  18.38s(wall), 191.76s(cpu)
        *  Thank you very much for using Q-Chem.  Have a nice day.  *
