 Q-Chem 5.1, Q-Chem, Inc., Pleasanton, CA (2018)
 Q-Chem 5.1.1 for Intel X86 EM64T Linux

User input:
--------------------------------------------------------------

$comment
potential surface scanner
$end

$rem
JOBTYPE  PES_SCAN
UNRESTRICTED TRUE
SYM_IGNORE  TRUE
GEOM_OPT_MAX_CYCLES 400
SCF_MAX_CYCLES 400
METHOD   B3LYP
BASIS   6-31G**
PDB_PRINT 2
SCF_CONVERGENCE 6
THRESH 14
SCF_PRINT 1
$end
$molecule
0 1
F -0.001100 1.300300 0.128600
C -0.000000 0.030300 -0.363500
C -1.258200 -0.666200 0.117400
C 1.259300 -0.664500 0.117400
H -0.000100 0.100000 -1.455700
H -2.143900 -0.120600 -0.223400
H -1.313800 -1.692600 -0.257100
H -1.297200 -0.687600 1.211500
H 2.144200 -0.117700 -0.223400
H 1.316300 -1.690800 -0.257200
H 1.298400 -0.685900 1.211500
$end
$scan
stre 1 2 0.800000 0.801000 0.100000
$end
--------------------------------------------------------------

    8    -218.3864354562      7.09e-07  Convergence criterion met
 Total energy in the final basis set =     -218.3864354562
    8    -218.3639002981      5.81e-07  Convergence criterion met
 Total energy in the final basis set =     -218.3639002981
    9    -218.2685507818      3.14e-07  Convergence criterion met
 Total energy in the final basis set =     -218.2685507818
    9    -218.1499423666      3.01e-07  Convergence criterion met
 Total energy in the final basis set =     -218.1499423666
    9    -217.8882100520      3.32e-07  Convergence criterion met
 Total energy in the final basis set =     -217.8882100520
    9    -217.7317499864      3.45e-07  Convergence criterion met
 Total energy in the final basis set =     -217.7317499864
    9    -217.5833664219      3.57e-07  Convergence criterion met
 Total energy in the final basis set =     -217.5833664219
    9    -217.4767138861      3.67e-07  Convergence criterion met
    9    -217.4460771967      3.79e-07  Convergence criterion met
 Total energy in the final basis set =     -217.4460771967
    9    -217.4460805627      3.79e-07  Convergence criterion met
 Total energy in the final basis set =     -217.4460805627
    9    -217.4460847920      3.78e-07  Convergence criterion met
 Total energy in the final basis set =     -217.4460847920
    9    -217.4460882755      3.78e-07  Convergence criterion met
 Total energy in the final basis set =     -217.4460882755
    9    -217.4460898505      3.78e-07  Convergence criterion met
 Total energy in the final basis set =     -217.4460898505
    9    -217.4460904451      3.78e-07  Convergence criterion met
 Total energy in the final basis set =     -217.4460904451

             Standard Nuclear Orientation (Angstroms)
    I     Atom           X                Y                Z
 ----------------------------------------------------------------
    1      F      -0.0006816137     1.0620550320    -0.0579909607
    2      C      -0.0001672222     0.2987229612    -0.2974151851
    3      C      -1.3150239416    -0.6353938690     0.1568107479
    4      C       1.3159994829    -0.6335854449     0.1567182096
    5      H      -0.0000405620     0.0626702873    -1.4951749836
    6      H      -2.2466161634    -0.1584508595    -0.1835007921
    7      H      -1.2481254753    -1.6262194665    -0.2953583843
    8      H      -1.3719401269    -0.7435693030     1.2506323083
    9      H       2.2469208836    -0.1551805105    -0.1833866954
   10      H       1.2505937194    -1.6243733499    -0.2957456928
   11      H       1.3729810192    -0.7419754772     1.2505114282
 ----------------------------------------------------------------

    9    -217.4460909177      3.79e-07  Convergence criterion met
 Total energy in the final basis set =     -217.4460909177

                    Orbital Energies (a.u.)
 --------------------------------------------------------------

 Alpha MOs
 -- Occupied --
-24.871 -10.371 -10.140 -10.140  -1.693  -0.829  -0.824  -0.791
 -0.705  -0.632  -0.505  -0.389  -0.382  -0.364  -0.357  -0.230
 -0.229

 Beta MOs
 -- Occupied --
-24.871 -10.371 -10.140 -10.140  -1.693  -0.829  -0.824  -0.791
 -0.705  -0.632  -0.505  -0.389  -0.382  -0.364  -0.357  -0.230
 -0.229

          Ground-State Mulliken Net Atomic Charges

     Atom                 Charge (a.u.)    Spin (a.u.)
  --------------------------------------------------------
      1 F                     0.641394      -0.000000
      2 C                    -0.084566       0.000000
      3 C                    -0.467729      -0.000000
      4 C                    -0.467731      -0.000000
      5 H                    -0.136402      -0.000000
      6 H                     0.073659      -0.000000
      7 H                     0.105362       0.000000
      8 H                     0.078495      -0.000000
      9 H                     0.073649       0.000000
     10 H                     0.105363       0.000000
     11 H                     0.078504       0.000000
  --------------------------------------------------------
  Sum of atomic charges =    -0.000000

                    Cartesian Multipole Moments
 -----------------------------------------------------------------
    Charge (ESU x 10^10)
                 0.0000
    Dipole Moment (Debye)
         X      -0.0015      Y       2.2238      Z       0.6536
       Tot       2.3179
    Quadrupole Moments (Debye-Ang)
        XX     -28.0697     XY      -0.0030     YY     -23.5970
        XZ      -0.0001     YZ       0.2898     ZZ     -27.4714

 Final energy is   -217.446090917670
 **  OPTIMIZATION CONVERGED  **
 Total job time:  94.35s(wall), 1019.43s(cpu)
        *  Thank you very much for using Q-Chem.  Have a nice day.  *
