 Q-Chem 5.1, Q-Chem, Inc., Pleasanton, CA (2018)
 Q-Chem 5.1.1 for Intel X86 EM64T Linux

User input:
--------------------------------------------------------------

$comment
potential surface scanner
$end

$rem
JOBTYPE  PES_SCAN
UNRESTRICTED TRUE
SYM_IGNORE  TRUE
GEOM_OPT_MAX_CYCLES 400
SCF_MAX_CYCLES 400
METHOD   B3LYP
BASIS   6-31G**
PDB_PRINT 2
SCF_CONVERGENCE 6
THRESH 14
SCF_PRINT 1
$end
$molecule
0 1
F -0.001013 1.483347 0.174310
C 0.000121 -0.114516 -0.406063
C -1.285379 -0.679352 0.117876
C 1.286427 -0.677544 0.117843
H -0.000020 0.061931 -1.481674
H -2.132901 -0.076286 -0.212916
H -1.421869 -1.702375 -0.255311
H -1.274496 -0.709315 1.210193
H 2.133101 -0.073324 -0.213016
H 1.424297 -1.700393 -0.255305
H 1.275634 -0.707472 1.210162
$end
$scan
stre 1 2 1.800000 1.801000 0.100000
$end
--------------------------------------------------------------

    9    -218.3609079318      3.89e-07  Convergence criterion met
 Total energy in the final basis set =     -218.3609079318
    9    -218.3468473936      4.22e-07  Convergence criterion met
 Total energy in the final basis set =     -218.3468473936
    9    -218.3466218253      4.32e-07  Convergence criterion met
 Total energy in the final basis set =     -218.3466218253
    9    -218.3467531340      4.45e-07  Convergence criterion met
 Total energy in the final basis set =     -218.3467531340
    9    -218.3467599732      4.46e-07  Convergence criterion met
 Total energy in the final basis set =     -218.3467599732

             Standard Nuclear Orientation (Angstroms)
    I     Atom           X                Y                Z
 ----------------------------------------------------------------
    1      F      -0.0010303070     1.5372687795     0.1980724103
    2      C       0.0001442957    -0.1531519601    -0.4203736837
    3      C      -1.2881331918    -0.6851619544     0.1160693150
    4      C       1.2891841320    -0.6833475221     0.1160375216
    5      H      -0.0000234035     0.0581778209    -1.4882637477
    6      H      -2.1259453311    -0.0694306221    -0.2147097349
    7      H      -1.4445423822    -1.7086662986    -0.2509355886
    8      H      -1.2699497538    -0.7098598781     1.2079762111
    9      H       2.1261276400    -0.0664822940    -0.2148279125
   10      H       1.4469813940    -1.7066625693    -0.2508940423
   11      H       1.2710889079    -0.7079825017     1.2079482517
 ----------------------------------------------------------------

    9    -218.3467608160      4.45e-07  Convergence criterion met
 Total energy in the final basis set =     -218.3467608160

                    Orbital Energies (a.u.)
 --------------------------------------------------------------

 Alpha MOs
 -- Occupied --
-24.596 -10.276 -10.196 -10.196  -1.039  -0.806  -0.712  -0.592
 -0.478  -0.451  -0.432  -0.407  -0.375  -0.372  -0.333  -0.293
 -0.292

 Beta MOs
 -- Occupied --
-24.596 -10.276 -10.196 -10.196  -1.039  -0.806  -0.712  -0.592
 -0.478  -0.451  -0.432  -0.407  -0.375  -0.372  -0.333  -0.293
 -0.292

          Ground-State Mulliken Net Atomic Charges

     Atom                 Charge (a.u.)    Spin (a.u.)
  --------------------------------------------------------
      1 F                    -0.406015      -0.000000
      2 C                     0.153230       0.000000
      3 C                    -0.324949      -0.000000
      4 C                    -0.324947      -0.000000
      5 H                     0.128486      -0.000000
      6 H                     0.141708       0.000000
      7 H                     0.111148       0.000000
      8 H                     0.134241      -0.000000
      9 H                     0.141705       0.000000
     10 H                     0.111148       0.000000
     11 H                     0.134245       0.000000
  --------------------------------------------------------
  Sum of atomic charges =     0.000000

                    Cartesian Multipole Moments
 -----------------------------------------------------------------
    Charge (ESU x 10^10)
                 0.0000
    Dipole Moment (Debye)
         X       0.0022      Y      -3.2072      Z      -0.8543
       Tot       3.3190
    Quadrupole Moments (Debye-Ang)
        XX     -23.1285     XY       0.0037     YY     -28.6610
        XZ       0.0004     YZ      -0.5939     ZZ     -23.7085

 Final energy is   -218.346760816004
 **  OPTIMIZATION CONVERGED  **
 Total job time:  18.65s(wall), 191.88s(cpu)
        *  Thank you very much for using Q-Chem.  Have a nice day.  *
