 Q-Chem 5.1, Q-Chem, Inc., Pleasanton, CA (2018)
 Q-Chem 5.1.1 for Intel X86 EM64T Linux

User input:
--------------------------------------------------------------

$comment
potential surface scanner
$end

$rem
JOBTYPE  PES_SCAN
UNRESTRICTED TRUE
SYM_IGNORE  TRUE
GEOM_OPT_MAX_CYCLES 400
SCF_MAX_CYCLES 400
METHOD   B3LYP
BASIS   6-31G**
PDB_PRINT 2
SCF_CONVERGENCE 6
THRESH 14
SCF_PRINT 1
$end
$molecule
0 1
F -0.001100 1.300300 0.128600
C -0.000000 0.030300 -0.363500
C -1.258200 -0.666200 0.117400
C 1.259300 -0.664500 0.117400
H -0.000100 0.100000 -1.455700
H -2.143900 -0.120600 -0.223400
H -1.313800 -1.692600 -0.257100
H -1.297200 -0.687600 1.211500
H 2.144200 -0.117700 -0.223400
H 1.316300 -1.690800 -0.257200
H 1.298400 -0.685900 1.211500
$end
$scan
stre 1 2 2.000000 2.001000 0.100000
$end
--------------------------------------------------------------

    8    -218.3864354562      7.09e-07  Convergence criterion met
 Total energy in the final basis set =     -218.3864354562
    9    -218.3825397508      2.81e-07  Convergence criterion met
 Total energy in the final basis set =     -218.3825397508
    9    -218.3651044002      2.91e-07  Convergence criterion met
 Total energy in the final basis set =     -218.3651044002
    9    -218.3441556255      3.93e-07  Convergence criterion met
 Total energy in the final basis set =     -218.3441556255
    9    -218.3245708760      5.70e-07  Convergence criterion met
 Total energy in the final basis set =     -218.3245708760
    9    -218.3157569226      8.23e-07  Convergence criterion met
 Total energy in the final basis set =     -218.3157569226
    9    -218.3161566066      8.47e-07  Convergence criterion met
 Total energy in the final basis set =     -218.3161566066
    9    -218.3166794269      8.94e-07  Convergence criterion met
   10    -218.3182646051      1.90e-07  Convergence criterion met
 Total energy in the final basis set =     -218.3182646051
   10    -218.3183074681      1.93e-07  Convergence criterion met
 Total energy in the final basis set =     -218.3183074681
   10    -218.3183269911      1.94e-07  Convergence criterion met
 Total energy in the final basis set =     -218.3183269911
   10    -218.3183342303      1.95e-07  Convergence criterion met
 Total energy in the final basis set =     -218.3183342303
   10    -218.3183372118      1.95e-07  Convergence criterion met
 Total energy in the final basis set =     -218.3183372118
   10    -218.3183388040      1.95e-07  Convergence criterion met
 Total energy in the final basis set =     -218.3183388040

             Standard Nuclear Orientation (Angstroms)
    I     Atom           X                Y                Z
 ----------------------------------------------------------------
    1      F      -0.0010875042     1.6505874795     0.2437379242
    2      C       0.0001897650    -0.2260845681    -0.4477099735
    3      C      -1.2921840850    -0.6965652765     0.1127925575
    4      C       1.2932418698    -0.6947216319     0.1127680854
    5      H      -0.0000195033     0.0394747327    -1.5019342327
    6      H      -2.1101939727    -0.0533577668    -0.2134968100
    7      H      -1.4910091453    -1.7173010676    -0.2470330773
    8      H      -1.2586076247    -0.7168136049     1.2037814313
    9      H       2.1103403147    -0.0504193160    -0.2136442878
   10      H       1.4934728303    -1.7152306638    -0.2469247074
   11      H       1.2597570555    -0.7148683168     1.2037630903
 ----------------------------------------------------------------

   10    -218.3183395160      1.95e-07  Convergence criterion met
 Total energy in the final basis set =     -218.3183395160

                    Orbital Energies (a.u.)
 --------------------------------------------------------------

 Alpha MOs
 -- Occupied --
-24.570 -10.285 -10.203 -10.203  -1.003  -0.816  -0.720  -0.597
 -0.484  -0.454  -0.437  -0.413  -0.382  -0.378  -0.298  -0.269
 -0.269

 Beta MOs
 -- Occupied --
-24.570 -10.285 -10.203 -10.203  -1.003  -0.816  -0.720  -0.597
 -0.484  -0.454  -0.437  -0.413  -0.382  -0.378  -0.298  -0.269
 -0.269

          Ground-State Mulliken Net Atomic Charges

     Atom                 Charge (a.u.)    Spin (a.u.)
  --------------------------------------------------------
      1 F                    -0.427413       0.000000
      2 C                     0.119427       0.000000
      3 C                    -0.328976      -0.000000
      4 C                    -0.328975       0.000000
      5 H                     0.142392      -0.000000
      6 H                     0.152983       0.000000
      7 H                     0.116329       0.000000
      8 H                     0.142461       0.000000
      9 H                     0.152978      -0.000000
     10 H                     0.116327      -0.000000
     11 H                     0.142468      -0.000000
  --------------------------------------------------------
  Sum of atomic charges =    -0.000000

                    Cartesian Multipole Moments
 -----------------------------------------------------------------
    Charge (ESU x 10^10)
                 0.0000
    Dipole Moment (Debye)
         X       0.0027      Y      -3.9579      Z      -1.0488
       Tot       4.0945
    Quadrupole Moments (Debye-Ang)
        XX     -22.5610     XY       0.0047     YY     -29.5685
        XZ       0.0006     YZ      -0.8209     ZZ     -23.4495

 Final energy is   -218.318339516012
 **  OPTIMIZATION CONVERGED  **
 Total job time:  61.75s(wall), 699.67s(cpu)
        *  Thank you very much for using Q-Chem.  Have a nice day.  *
