 Q-Chem 5.1, Q-Chem, Inc., Pleasanton, CA (2018)
 Q-Chem 5.1.1 for Intel X86 EM64T Linux

User input:
--------------------------------------------------------------

$comment
potential surface scanner
$end

$rem
JOBTYPE  PES_SCAN
UNRESTRICTED TRUE
SYM_IGNORE  TRUE
GEOM_OPT_MAX_CYCLES 400
SCF_MAX_CYCLES 400
METHOD   B3LYP
BASIS   6-31G**
PDB_PRINT 2
SCF_CONVERGENCE 6
THRESH 14
SCF_PRINT 1
$end
$molecule
0 1
F -0.001100 1.300300 0.128600
C -0.000000 0.030300 -0.363500
C -1.258200 -0.666200 0.117400
C 1.259300 -0.664500 0.117400
H -0.000100 0.100000 -1.455700
H -2.143900 -0.120600 -0.223400
H -1.313800 -1.692600 -0.257100
H -1.297200 -0.687600 1.211500
H 2.144200 -0.117700 -0.223400
H 1.316300 -1.690800 -0.257200
H 1.298400 -0.685900 1.211500
$end
$scan
stre 1 2 0.900000 0.901000 0.100000
$end
--------------------------------------------------------------

    8    -218.3864354562      7.09e-07  Convergence criterion met
 Total energy in the final basis set =     -218.3864354562
    8    -218.3639002981      5.81e-07  Convergence criterion met
 Total energy in the final basis set =     -218.3639002981
    9    -218.2685507818      3.14e-07  Convergence criterion met
 Total energy in the final basis set =     -218.2685507818
    9    -218.1499423666      3.01e-07  Convergence criterion met
 Total energy in the final basis set =     -218.1499423666
    9    -217.9475640011      3.21e-07  Convergence criterion met
 Total energy in the final basis set =     -217.9475640011
    9    -217.9201222317      3.18e-07  Convergence criterion met
 Total energy in the final basis set =     -217.9201222317
    9    -217.9068984799      3.10e-07  Convergence criterion met
 Total energy in the final basis set =     -217.9068984799
    9    -217.9085816979      3.07e-07  Convergence criterion met
    9    -217.9091146043      3.10e-07  Convergence criterion met
 Total energy in the final basis set =     -217.9091146043
    9    -217.9091218405      3.10e-07  Convergence criterion met
 Total energy in the final basis set =     -217.9091218405
    9    -217.9091275627      3.10e-07  Convergence criterion met
 Total energy in the final basis set =     -217.9091275627
    9    -217.9091298645      3.10e-07  Convergence criterion met
 Total energy in the final basis set =     -217.9091298645
    9    -217.9091305544      3.10e-07  Convergence criterion met
 Total energy in the final basis set =     -217.9091305544
    9    -217.9091310645      3.10e-07  Convergence criterion met
 Total energy in the final basis set =     -217.9091310645

             Standard Nuclear Orientation (Angstroms)
    I     Atom           X                Y                Z
 ----------------------------------------------------------------
    1      F      -0.0007217497     1.1029268312    -0.0282131339
    2      C      -0.0001309951     0.2452491763    -0.3009563291
    3      C      -1.2882529169    -0.6379139866     0.1447435987
    4      C       1.2892335561    -0.6361317980     0.1446683537
    5      H      -0.0000252288     0.0489096742    -1.4622256059
    6      H      -2.2106931204    -0.1437220525    -0.1917891546
    7      H      -1.2528191696    -1.6368225814    -0.2935239680
    8      H      -1.3382740636    -0.7319439854     1.2395107756
    9      H       2.2109756990    -0.1405480915    -0.1917338448
   10      H       1.2552657954    -1.6350056424    -0.2937982337
   11      H       1.3393421936    -0.7302975441     1.2394175419
 ----------------------------------------------------------------

    9    -217.9091316493      3.10e-07  Convergence criterion met
 Total energy in the final basis set =     -217.9091316493

                    Orbital Energies (a.u.)
 --------------------------------------------------------------

 Alpha MOs
 -- Occupied --
-24.800 -10.306 -10.149 -10.149  -1.572  -0.752  -0.738  -0.723
 -0.691  -0.621  -0.506  -0.397  -0.389  -0.370  -0.362  -0.250
 -0.249

 Beta MOs
 -- Occupied --
-24.800 -10.306 -10.149 -10.149  -1.572  -0.752  -0.738  -0.723
 -0.691  -0.621  -0.506  -0.397  -0.389  -0.370  -0.362  -0.250
 -0.249

          Ground-State Mulliken Net Atomic Charges

     Atom                 Charge (a.u.)    Spin (a.u.)
  --------------------------------------------------------
      1 F                     0.350098       0.000000
      2 C                     0.050171      -0.000000
      3 C                    -0.427906       0.000000
      4 C                    -0.427908       0.000000
      5 H                    -0.081917      -0.000000
      6 H                     0.081591      -0.000000
      7 H                     0.102831      -0.000000
      8 H                     0.084309       0.000000
      9 H                     0.081586      -0.000000
     10 H                     0.102831       0.000000
     11 H                     0.084314      -0.000000
  --------------------------------------------------------
  Sum of atomic charges =    -0.000000

                    Cartesian Multipole Moments
 -----------------------------------------------------------------
    Charge (ESU x 10^10)
                 0.0000
    Dipole Moment (Debye)
         X      -0.0009      Y       1.2793      Z       0.3908
       Tot       1.3377
    Quadrupole Moments (Debye-Ang)
        XX     -27.1105     XY      -0.0018     YY     -24.4262
        XZ      -0.0001     YZ       0.2088     ZZ     -26.6301

 Final energy is   -217.909131649339
 **  OPTIMIZATION CONVERGED  **
 Total job time:  89.71s(wall), 952.99s(cpu)
        *  Thank you very much for using Q-Chem.  Have a nice day.  *
