 Q-Chem 5.1, Q-Chem, Inc., Pleasanton, CA (2018)
 Q-Chem 5.1.1 for Intel X86 EM64T Linux

User input:
--------------------------------------------------------------

$comment
potential surface scanner
$end

$rem
JOBTYPE  PES_SCAN
UNRESTRICTED TRUE
SYM_IGNORE  TRUE
GEOM_OPT_MAX_CYCLES 400
SCF_MAX_CYCLES 400
METHOD   B3LYP
BASIS   6-31G**
PDB_PRINT 2
SCF_CONVERGENCE 6
THRESH 14
SCF_PRINT 1
$end
$molecule
0 1
F -0.001100 1.300300 0.128600
C -0.000000 0.030300 -0.363500
C -1.258200 -0.666200 0.117400
C 1.259300 -0.664500 0.117400
H -0.000100 0.100000 -1.455700
H -2.143900 -0.120600 -0.223400
H -1.313800 -1.692600 -0.257100
H -1.297200 -0.687600 1.211500
H 2.144200 -0.117700 -0.223400
H 1.316300 -1.690800 -0.257200
H 1.298400 -0.685900 1.211500
$end
$scan
stre 1 2 1.100000 1.101000 0.100000
$end
--------------------------------------------------------------

    8    -218.3864354562      7.09e-07  Convergence criterion met
 Total energy in the final basis set =     -218.3864354562
    8    -218.3639002981      5.81e-07  Convergence criterion met
 Total energy in the final basis set =     -218.3639002981
    9    -218.2888840347      3.23e-07  Convergence criterion met
 Total energy in the final basis set =     -218.2888840347
    9    -218.2852581803      3.30e-07  Convergence criterion met
 Total energy in the final basis set =     -218.2852581803
    8    -218.2877464463      9.62e-07  Convergence criterion met
 Total energy in the final basis set =     -218.2877464463
    8    -218.2877866242      9.43e-07  Convergence criterion met
 Total energy in the final basis set =     -218.2877866242
    8    -218.2878861168      8.89e-07  Convergence criterion met
 Total energy in the final basis set =     -218.2878861168
    8    -218.2878918528      8.89e-07  Convergence criterion met
    8    -218.2879241498      9.23e-07  Convergence criterion met
 Total energy in the final basis set =     -218.2879241498
    8    -218.2879343592      9.33e-07  Convergence criterion met
 Total energy in the final basis set =     -218.2879343592
    8    -218.2879422933      9.34e-07  Convergence criterion met
 Total energy in the final basis set =     -218.2879422933
    8    -218.2879461492      9.27e-07  Convergence criterion met
 Total energy in the final basis set =     -218.2879461492
    8    -218.2879489516      9.18e-07  Convergence criterion met
 Total energy in the final basis set =     -218.2879489516
    8    -218.2879505483      9.12e-07  Convergence criterion met
 Total energy in the final basis set =     -218.2879505483

             Standard Nuclear Orientation (Angstroms)
    I     Atom           X                Y                Z
 ----------------------------------------------------------------
    1      F      -0.0007812012     1.1891606654     0.0302069024
    2      C      -0.0000640786     0.1462369945    -0.3195212402
    3      C      -1.2695603799    -0.6463201013     0.1312079497
    4      C       1.2705502361    -0.6445516033     0.1311561584
    5      H      -0.0000235152     0.0524744232    -1.4439422907
    6      H      -2.1745918057    -0.1255100843    -0.2036531079
    7      H      -1.2796689437    -1.6569109269    -0.2837345934
    8      H      -1.3066611305    -0.7170435490     1.2259806734
    9      H       2.1748397241    -0.1224460580    -0.2036917735
   10      H       1.2820982602    -1.6551145238    -0.2838328366
   11      H       1.3077628346    -0.7152752365     1.2259241584
 ----------------------------------------------------------------

    8    -218.2879510449      9.10e-07  Convergence criterion met
 Total energy in the final basis set =     -218.2879510449

                    Orbital Energies (a.u.)
 --------------------------------------------------------------

 Alpha MOs
 -- Occupied --
-24.720 -10.260 -10.165 -10.165  -1.361  -0.759  -0.691  -0.638
 -0.574  -0.538  -0.498  -0.408  -0.394  -0.381  -0.369  -0.287
 -0.284

 Beta MOs
 -- Occupied --
-24.720 -10.260 -10.165 -10.165  -1.361  -0.759  -0.691  -0.638
 -0.574  -0.538  -0.498  -0.408  -0.394  -0.381  -0.369  -0.287
 -0.284

          Ground-State Mulliken Net Atomic Charges

     Atom                 Charge (a.u.)    Spin (a.u.)
  --------------------------------------------------------
      1 F                    -0.051178       0.000000
      2 C                     0.200827      -0.000000
      3 C                    -0.373151      -0.000000
      4 C                    -0.373154      -0.000000
      5 H                     0.004940       0.000000
      6 H                     0.097679       0.000000
      7 H                     0.100772      -0.000000
      8 H                     0.097405       0.000000
      9 H                     0.097680      -0.000000
     10 H                     0.100773       0.000000
     11 H                     0.097407       0.000000
  --------------------------------------------------------
  Sum of atomic charges =    -0.000000

                    Cartesian Multipole Moments
 -----------------------------------------------------------------
    Charge (ESU x 10^10)
                -0.0000
    Dipole Moment (Debye)
         X       0.0001      Y      -0.1788      Z      -0.0233
       Tot       0.1803
    Quadrupole Moments (Debye-Ang)
        XX     -25.7219     XY      -0.0000     YY     -25.7498
        XZ      -0.0000     YZ       0.0382     ZZ     -25.4510

 Final energy is   -218.287951044939
 **  OPTIMIZATION CONVERGED  **
 Total job time:  47.56s(wall), 512.67s(cpu)
        *  Thank you very much for using Q-Chem.  Have a nice day.  *
