 Q-Chem 5.1, Q-Chem, Inc., Pleasanton, CA (2018)
 Q-Chem 5.1.1 for Intel X86 EM64T Linux

User input:
--------------------------------------------------------------

$comment
potential surface scanner
$end

$rem
JOBTYPE  PES_SCAN
UNRESTRICTED TRUE
SYM_IGNORE  TRUE
GEOM_OPT_MAX_CYCLES 400
SCF_MAX_CYCLES 400
METHOD   B3LYP
BASIS   6-31G**
PDB_PRINT 2
SCF_CONVERGENCE 6
THRESH 14
SCF_PRINT 1
$end
$molecule
0 1
F -0.001100 1.300300 0.128600
C -0.000000 0.030300 -0.363500
C -1.258200 -0.666200 0.117400
C 1.259300 -0.664500 0.117400
H -0.000100 0.100000 -1.455700
H -2.143900 -0.120600 -0.223400
H -1.313800 -1.692600 -0.257100
H -1.297200 -0.687600 1.211500
H 2.144200 -0.117700 -0.223400
H 1.316300 -1.690800 -0.257200
H 1.298400 -0.685900 1.211500
$end
$scan
stre 1 2 1.200000 1.201000 0.100000
$end
--------------------------------------------------------------

    8    -218.3864354562      7.09e-07  Convergence criterion met
 Total energy in the final basis set =     -218.3864354562
    8    -218.3639002981      5.81e-07  Convergence criterion met
 Total energy in the final basis set =     -218.3639002981
    8    -218.3513830155      6.33e-07  Convergence criterion met
 Total energy in the final basis set =     -218.3513830155
    8    -218.3516071317      4.34e-07  Convergence criterion met
 Total energy in the final basis set =     -218.3516071317
    8    -218.3525454515      4.98e-07  Convergence criterion met
 Total energy in the final basis set =     -218.3525454515
    8    -218.3525742955      5.19e-07  Convergence criterion met
 Total energy in the final basis set =     -218.3525742955
    8    -218.3526213167      5.29e-07  Convergence criterion met
 Total energy in the final basis set =     -218.3526213167
    8    -218.3526249350      5.18e-07  Convergence criterion met
    8    -218.3526368635      4.83e-07  Convergence criterion met
 Total energy in the final basis set =     -218.3526368635
    8    -218.3526429299      4.77e-07  Convergence criterion met
 Total energy in the final basis set =     -218.3526429299
    8    -218.3526489892      4.75e-07  Convergence criterion met
 Total energy in the final basis set =     -218.3526489892
    8    -218.3526561857      4.75e-07  Convergence criterion met
 Total energy in the final basis set =     -218.3526561857
    8    -218.3526615095      4.75e-07  Convergence criterion met
 Total energy in the final basis set =     -218.3526615095
    8    -218.3526638840      4.77e-07  Convergence criterion met
 Total energy in the final basis set =     -218.3526638840

             Standard Nuclear Orientation (Angstroms)
    I     Atom           X                Y                Z
 ----------------------------------------------------------------
    1      F      -0.0008128526     1.2344100421     0.0593156988
    2      C      -0.0000322821     0.0998362835    -0.3315062489
    3      C      -1.2690623036    -0.6511785372     0.1273730613
    4      C       1.2700601824    -0.6494111564     0.1273257306
    5      H      -0.0000287906     0.0584263555    -1.4456688166
    6      H      -2.1649891232    -0.1183449246    -0.2092224346
    7      H      -1.2998124645    -1.6661655912    -0.2778077323
    8      H      -1.3001627662    -0.7125064481     1.2217440054
    9      H       2.1652242414    -0.1153038443    -0.2092803614
   10      H       1.3022483187    -1.6643534063    -0.2778676988
   11      H       1.3012678402    -0.7107087730     1.2216947964
 ----------------------------------------------------------------

    8    -218.3526646933      4.80e-07  Convergence criterion met
 Total energy in the final basis set =     -218.3526646933

                    Orbital Energies (a.u.)
 --------------------------------------------------------------

 Alpha MOs
 -- Occupied --
-24.695 -10.256 -10.171 -10.171  -1.281  -0.767  -0.691  -0.614
 -0.538  -0.499  -0.485  -0.409  -0.393  -0.386  -0.371  -0.301
 -0.298

 Beta MOs
 -- Occupied --
-24.695 -10.256 -10.171 -10.171  -1.281  -0.767  -0.691  -0.614
 -0.538  -0.499  -0.485  -0.409  -0.393  -0.386  -0.371  -0.301
 -0.298

          Ground-State Mulliken Net Atomic Charges

     Atom                 Charge (a.u.)    Spin (a.u.)
  --------------------------------------------------------
      1 F                    -0.184038       0.000000
      2 C                     0.239957       0.000000
      3 C                    -0.355490       0.000000
      4 C                    -0.355494      -0.000000
      5 H                     0.036625      -0.000000
      6 H                     0.104817      -0.000000
      7 H                     0.100842      -0.000000
      8 H                     0.103560      -0.000000
      9 H                     0.104818       0.000000
     10 H                     0.100843      -0.000000
     11 H                     0.103561      -0.000000
  --------------------------------------------------------
  Sum of atomic charges =    -0.000000

                    Cartesian Multipole Moments
 -----------------------------------------------------------------
    Charge (ESU x 10^10)
                -0.0000
    Dipole Moment (Debye)
         X       0.0005      Y      -0.7266      Z      -0.1826
       Tot       0.7492
    Quadrupole Moments (Debye-Ang)
        XX     -25.2217     XY       0.0007     YY     -26.2567
        XZ       0.0000     YZ      -0.0513     ZZ     -25.0500

 Final energy is   -218.352664693269
 **  OPTIMIZATION CONVERGED  **
 Total job time:  45.20s(wall), 482.72s(cpu)
        *  Thank you very much for using Q-Chem.  Have a nice day.  *
