 Q-Chem 5.1, Q-Chem, Inc., Pleasanton, CA (2018)
 Q-Chem 5.1.1 for Intel X86 EM64T Linux

User input:
--------------------------------------------------------------

$comment
potential surface scanner
$end

$rem
JOBTYPE  PES_SCAN
UNRESTRICTED TRUE
SYM_IGNORE  TRUE
GEOM_OPT_MAX_CYCLES 400
SCF_MAX_CYCLES 400
METHOD   B3LYP
BASIS   6-31G**
PDB_PRINT 2
SCF_CONVERGENCE 6
THRESH 14
SCF_PRINT 1
$end
$molecule
0 1
F -0.001100 1.300300 0.128600
C -0.000000 0.030300 -0.363500
C -1.258200 -0.666200 0.117400
C 1.259300 -0.664500 0.117400
H -0.000100 0.100000 -1.455700
H -2.143900 -0.120600 -0.223400
H -1.313800 -1.692600 -0.257100
H -1.297200 -0.687600 1.211500
H 2.144200 -0.117700 -0.223400
H 1.316300 -1.690800 -0.257200
H 1.298400 -0.685900 1.211500
$end
$scan
stre 1 2 1.000000 1.001000 0.100000
$end
--------------------------------------------------------------

    8    -218.3864354562      7.09e-07  Convergence criterion met
 Total energy in the final basis set =     -218.3864354562
    8    -218.3639002981      5.81e-07  Convergence criterion met
 Total energy in the final basis set =     -218.3639002981
    9    -218.2685507818      3.14e-07  Convergence criterion met
 Total energy in the final basis set =     -218.2685507818
    9    -218.1773649248      2.93e-07  Convergence criterion met
 Total energy in the final basis set =     -218.1773649248
    9    -218.1578966911      2.83e-07  Convergence criterion met
 Total energy in the final basis set =     -218.1578966911
    9    -218.1571539375      2.79e-07  Convergence criterion met
 Total energy in the final basis set =     -218.1571539375
    9    -218.1573258950      2.80e-07  Convergence criterion met
 Total energy in the final basis set =     -218.1573258950
    9    -218.1573903943      2.81e-07  Convergence criterion met
    9    -218.1574993294      2.83e-07  Convergence criterion met
 Total energy in the final basis set =     -218.1574993294
    9    -218.1575112582      2.83e-07  Convergence criterion met
 Total energy in the final basis set =     -218.1575112582
    9    -218.1575220201      2.83e-07  Convergence criterion met
 Total energy in the final basis set =     -218.1575220201
    9    -218.1575287117      2.83e-07  Convergence criterion met
 Total energy in the final basis set =     -218.1575287117
    9    -218.1575319623      2.83e-07  Convergence criterion met
 Total energy in the final basis set =     -218.1575319623
    9    -218.1575336961      2.83e-07  Convergence criterion met
 Total energy in the final basis set =     -218.1575336961

             Standard Nuclear Orientation (Angstroms)
    I     Atom           X                Y                Z
 ----------------------------------------------------------------
    1      F      -0.0007505744     1.1445172933     0.0021338394
    2      C      -0.0000968928     0.1939898877    -0.3085062599
    3      C      -1.2752759972    -0.6416920603     0.1365962166
    4      C       1.2762597247    -0.6399239589     0.1365330491
    5      H      -0.0000243215     0.0487851700    -1.4477095979
    6      H      -2.1888235167    -0.1336954780    -0.1991602204
    7      H      -1.2642092432    -1.6472586909    -0.2887519017
    8      H      -1.3195380272    -0.7228413234     1.2315620376
    9      H       2.1890846513    -0.1305837656    -0.1991544252
   10      H       1.2666519122    -1.6454617722    -0.2889315007
   11      H       1.3206222849    -0.7211353017     1.2314887630
 ----------------------------------------------------------------

    9    -218.1575345280      2.83e-07  Convergence criterion met
 Total energy in the final basis set =     -218.1575345280

                    Orbital Energies (a.u.)
 --------------------------------------------------------------

 Alpha MOs
 -- Occupied --
-24.753 -10.274 -10.158 -10.158  -1.459  -0.751  -0.699  -0.674
 -0.627  -0.584  -0.504  -0.403  -0.393  -0.376  -0.366  -0.270
 -0.267

 Beta MOs
 -- Occupied --
-24.753 -10.274 -10.158 -10.158  -1.459  -0.751  -0.699  -0.674
 -0.627  -0.584  -0.504  -0.403  -0.393  -0.376  -0.366  -0.270
 -0.267

          Ground-State Mulliken Net Atomic Charges

     Atom                 Charge (a.u.)    Spin (a.u.)
  --------------------------------------------------------
      1 F                     0.124554      -0.000000
      2 C                     0.139608       0.000000
      3 C                    -0.396973      -0.000000
      4 C                    -0.396976       0.000000
      5 H                    -0.034642       0.000000
      6 H                     0.089965       0.000000
      7 H                     0.101359       0.000000
      8 H                     0.090890       0.000000
      9 H                     0.089963       0.000000
     10 H                     0.101359       0.000000
     11 H                     0.090892      -0.000000
  --------------------------------------------------------
  Sum of atomic charges =     0.000000

                    Cartesian Multipole Moments
 -----------------------------------------------------------------
    Charge (ESU x 10^10)
                 0.0000
    Dipole Moment (Debye)
         X      -0.0003      Y       0.4783      Z       0.1662
       Tot       0.5064
    Quadrupole Moments (Debye-Ang)
        XX     -26.3329     XY      -0.0008     YY     -25.1492
        XZ      -0.0001     YZ       0.1240     ZZ     -25.9662

 Final energy is   -218.157534528009
 **  OPTIMIZATION CONVERGED  **
 Total job time:  58.76s(wall), 633.94s(cpu)
        *  Thank you very much for using Q-Chem.  Have a nice day.  *
