 Q-Chem 5.1, Q-Chem, Inc., Pleasanton, CA (2018)
 Q-Chem 5.1.1 for Intel X86 EM64T Linux

User input:
--------------------------------------------------------------

$comment
potential surface scanner
$end

$rem
JOBTYPE  PES_SCAN
UNRESTRICTED TRUE
SYM_IGNORE  TRUE
GEOM_OPT_MAX_CYCLES 400
SCF_MAX_CYCLES 400
METHOD   B3LYP
BASIS   6-31G**
PDB_PRINT 2
SCF_CONVERGENCE 6
THRESH 14
SCF_PRINT 1
$end
$molecule
0 1
F -0.001100 1.300300 0.128600
C -0.000000 0.030300 -0.363500
C -1.258200 -0.666200 0.117400
C 1.259300 -0.664500 0.117400
H -0.000100 0.100000 -1.455700
H -2.143900 -0.120600 -0.223400
H -1.313800 -1.692600 -0.257100
H -1.297200 -0.687600 1.211500
H 2.144200 -0.117700 -0.223400
H 1.316300 -1.690800 -0.257200
H 1.298400 -0.685900 1.211500
$end
$scan
stre 1 2 1.300000 1.301000 0.100000
$end
--------------------------------------------------------------

    8    -218.3864354562      7.09e-07  Convergence criterion met
 Total energy in the final basis set =     -218.3864354562
    8    -218.3802816076      5.53e-07  Convergence criterion met
 Total energy in the final basis set =     -218.3802816076
    8    -218.3804948467      8.38e-07  Convergence criterion met
 Total energy in the final basis set =     -218.3804948467
    8    -218.3805491548      8.14e-07  Convergence criterion met
 Total energy in the final basis set =     -218.3805491548
    8    -218.3805558377      7.95e-07  Convergence criterion met
 Total energy in the final basis set =     -218.3805558377
    8    -218.3805644209      7.77e-07  Convergence criterion met
 Total energy in the final basis set =     -218.3805644209
    8    -218.3805722698      7.72e-07  Convergence criterion met
 Total energy in the final basis set =     -218.3805722698
    8    -218.3805791724      7.84e-07  Convergence criterion met
 Total energy in the final basis set =     -218.3805791724
    8    -218.3805812783      8.00e-07  Convergence criterion met
 Total energy in the final basis set =     -218.3805812783

             Standard Nuclear Orientation (Angstroms)
    I     Atom           X                Y                Z
 ----------------------------------------------------------------
    1      F      -0.0008308899     1.2817353434     0.0848319811
    2      C      -0.0000033287     0.0551891655    -0.3459625937
    3      C      -1.2709352877    -0.6568887248     0.1243636717
    4      C       1.2719406038    -0.6551090322     0.1243190724
    5      H      -0.0000323812     0.0642121502    -1.4512598221
    6      H      -2.1581279087    -0.1108054334    -0.2107133819
    7      H      -1.3216479567    -1.6750622502    -0.2726870442
    8      H      -1.2938120036    -0.7097031798     1.2183825714
    9      H       2.1583515071    -0.1077670467    -0.2107741712
   10      H       1.3240846848    -1.6732084456    -0.2727377282
   11      H       1.2949129608    -0.7078925466     1.2183374446
 ----------------------------------------------------------------

    8    -218.3805815420      8.06e-07  Convergence criterion met
 Total energy in the final basis set =     -218.3805815420

                    Orbital Energies (a.u.)
 --------------------------------------------------------------

 Alpha MOs
 -- Occupied --
-24.675 -10.256 -10.176 -10.176  -1.216  -0.775  -0.693  -0.599
 -0.514  -0.470  -0.469  -0.405  -0.390  -0.390  -0.371  -0.312
 -0.308

 Beta MOs
 -- Occupied --
-24.675 -10.256 -10.176 -10.176  -1.216  -0.775  -0.693  -0.599
 -0.514  -0.470  -0.469  -0.405  -0.390  -0.390  -0.371  -0.312
 -0.308

          Ground-State Mulliken Net Atomic Charges

     Atom                 Charge (a.u.)    Spin (a.u.)
  --------------------------------------------------------
      1 F                    -0.275630       0.000000
      2 C                     0.255243       0.000000
      3 C                    -0.342987       0.000000
      4 C                    -0.342988      -0.000000
      5 H                     0.061713      -0.000000
      6 H                     0.111402      -0.000000
      7 H                     0.101601      -0.000000
      8 H                     0.109321      -0.000000
      9 H                     0.111403       0.000000
     10 H                     0.101600       0.000000
     11 H                     0.109321       0.000000
  --------------------------------------------------------
  Sum of atomic charges =    -0.000000

                    Cartesian Multipole Moments
 -----------------------------------------------------------------
    Charge (ESU x 10^10)
                 0.0000
    Dipole Moment (Debye)
         X       0.0008      Y      -1.1994      Z      -0.3185
       Tot       1.2410
    Quadrupole Moments (Debye-Ang)
        XX     -24.8008     XY       0.0013     YY     -26.6933
        XZ       0.0001     YZ      -0.1359     ZZ     -24.7316

 Final energy is   -218.380581542026
 **  OPTIMIZATION CONVERGED  **
 Total job time:  27.38s(wall), 297.77s(cpu)
        *  Thank you very much for using Q-Chem.  Have a nice day.  *
