 Q-Chem 5.1, Q-Chem, Inc., Pleasanton, CA (2018)
 Q-Chem 5.1.1 for Intel X86 EM64T Linux

User input:
--------------------------------------------------------------

$comment
potential surface scanner
$end

$rem
JOBTYPE  PES_SCAN
UNRESTRICTED TRUE
SYM_IGNORE  TRUE
GEOM_OPT_MAX_CYCLES 400
SCF_MAX_CYCLES 400
METHOD   B3LYP
BASIS   6-31G**
PDB_PRINT 2
SCF_CONVERGENCE 6
THRESH 14
SCF_PRINT 1
$end
$molecule
0 1
F -0.001100 1.300300 0.128600
C -0.000000 0.030300 -0.363500
C -1.258200 -0.666200 0.117400
C 1.259300 -0.664500 0.117400
H -0.000100 0.100000 -1.455700
H -2.143900 -0.120600 -0.223400
H -1.313800 -1.692600 -0.257100
H -1.297200 -0.687600 1.211500
H 2.144200 -0.117700 -0.223400
H 1.316300 -1.690800 -0.257200
H 1.298400 -0.685900 1.211500
$end
$scan
stre 1 2 0.700000 0.701000 0.100000
$end
--------------------------------------------------------------

    8    -218.3864354562      7.09e-07  Convergence criterion met
 Total energy in the final basis set =     -218.3864354562
    8    -218.3639002981      5.81e-07  Convergence criterion met
 Total energy in the final basis set =     -218.3639002981
    9    -218.2685507818      3.14e-07  Convergence criterion met
 Total energy in the final basis set =     -218.2685507818
    9    -218.1499423666      3.01e-07  Convergence criterion met
 Total energy in the final basis set =     -218.1499423666
    9    -217.8882100520      3.32e-07  Convergence criterion met
 Total energy in the final basis set =     -217.8882100520
    9    -217.6697615112      3.52e-07  Convergence criterion met
 Total energy in the final basis set =     -217.6697615112
    9    -217.4593828134      3.69e-07  Convergence criterion met
 Total energy in the final basis set =     -217.4593828134
    9    -217.2461808833      3.92e-07  Convergence criterion met
    9    -216.5846762953      4.96e-07  Convergence criterion met
 Total energy in the final basis set =     -216.5846762953
    9    -216.5846786922      4.97e-07  Convergence criterion met
 Total energy in the final basis set =     -216.5846786922
    9    -216.5846803217      4.97e-07  Convergence criterion met
 Total energy in the final basis set =     -216.5846803217
    9    -216.5846813347      4.97e-07  Convergence criterion met
 Total energy in the final basis set =     -216.5846813347
    9    -216.5846823779      4.97e-07  Convergence criterion met
 Total energy in the final basis set =     -216.5846823779
    9    -216.5846836424      4.97e-07  Convergence criterion met
 Total energy in the final basis set =     -216.5846836424

             Standard Nuclear Orientation (Angstroms)
    I     Atom           X                Y                Z
 ----------------------------------------------------------------
    1      F      -0.0006432898     1.0218543372    -0.0862981863
    2      C      -0.0002110606     0.3537224566    -0.2951029120
    3      C      -1.3624674822    -0.6344369210     0.1753690233
    4      C       1.3634364595    -0.6325900543     0.1752547043
    5      H      -0.0000838406     0.0950380916    -1.5599941861
    6      H      -2.3018878441    -0.1812455191    -0.1774824199
    7      H      -1.2504959657    -1.6137893426    -0.2913113299
    8      H      -1.4288418262    -0.7578203420     1.2674692573
    9      H       2.3022206675    -0.1778446251    -0.1773056255
   10      H       1.2530246487    -1.6119296946    -0.2918137157
   11      H       1.4298495335    -0.7562583867     1.2673153905
 ----------------------------------------------------------------

    9    -216.5846845895      4.97e-07  Convergence criterion met
 Total energy in the final basis set =     -216.5846845895

                    Orbital Energies (a.u.)
 --------------------------------------------------------------

 Alpha MOs
 -- Occupied --
-24.985 -10.495 -10.133 -10.133  -1.797  -0.969  -0.968  -0.853
 -0.693  -0.631  -0.503  -0.380  -0.374  -0.359  -0.352  -0.213
 -0.209

 Beta MOs
 -- Occupied --
-24.985 -10.495 -10.133 -10.133  -1.797  -0.969  -0.968  -0.853
 -0.693  -0.631  -0.503  -0.380  -0.374  -0.359  -0.352  -0.213
 -0.209

          Ground-State Mulliken Net Atomic Charges

     Atom                 Charge (a.u.)    Spin (a.u.)
  --------------------------------------------------------
      1 F                     1.003560      -0.000000
      2 C                    -0.279695      -0.000000
      3 C                    -0.515267       0.000000
      4 C                    -0.515278       0.000000
      5 H                    -0.200553       0.000000
      6 H                     0.068933       0.000000
      7 H                     0.110020      -0.000000
      8 H                     0.074665      -0.000000
      9 H                     0.068915       0.000000
     10 H                     0.110019       0.000000
     11 H                     0.074680       0.000000
  --------------------------------------------------------
  Sum of atomic charges =    -0.000000

                    Cartesian Multipole Moments
 -----------------------------------------------------------------
    Charge (ESU x 10^10)
                -0.0000
    Dipole Moment (Debye)
         X      -0.0022      Y       3.2137      Z       0.9810
       Tot       3.3601
    Quadrupole Moments (Debye-Ang)
        XX     -29.1303     XY      -0.0042     YY     -22.7324
        XZ      -0.0002     YZ       0.3853     ZZ     -28.5613

 Final energy is   -216.584684589525
 **  OPTIMIZATION CONVERGED  **
 Total job time:  107.15s(wall), 1171.37s(cpu)
        *  Thank you very much for using Q-Chem.  Have a nice day.  *
