 Q-Chem 5.1, Q-Chem, Inc., Pleasanton, CA (2018)
 Q-Chem 5.1.1 for Intel X86 EM64T Linux

User input:
--------------------------------------------------------------

$comment
potential surface scanner
$end

$rem
JOBTYPE  PES_SCAN
UNRESTRICTED TRUE
SYM_IGNORE  TRUE
GEOM_OPT_MAX_CYCLES 400
SCF_MAX_CYCLES 400
METHOD   B3LYP
BASIS   6-31G**
PDB_PRINT 2
SCF_CONVERGENCE 6
THRESH 14
SCF_PRINT 1
$end
$molecule
0 1
F -0.001100 1.300300 0.128600
C -0.000000 0.030300 -0.363500
C -1.258200 -0.666200 0.117400
C 1.259300 -0.664500 0.117400
H -0.000100 0.100000 -1.455700
H -2.143900 -0.120600 -0.223400
H -1.313800 -1.692600 -0.257100
H -1.297200 -0.687600 1.211500
H 2.144200 -0.117700 -0.223400
H 1.316300 -1.690800 -0.257200
H 1.298400 -0.685900 1.211500
$end
$scan
stre 1 2 1.900000 1.901000 0.100000
$end
--------------------------------------------------------------

    8    -218.3864354562      7.09e-07  Convergence criterion met
 Total energy in the final basis set =     -218.3864354562
    9    -218.3825397508      2.81e-07  Convergence criterion met
 Total energy in the final basis set =     -218.3825397508
    9    -218.3651044002      2.91e-07  Convergence criterion met
 Total energy in the final basis set =     -218.3651044002
    9    -218.3441556255      3.93e-07  Convergence criterion met
 Total energy in the final basis set =     -218.3441556255
    9    -218.3295295683      5.33e-07  Convergence criterion met
 Total energy in the final basis set =     -218.3295295683
    9    -218.3290596973      5.98e-07  Convergence criterion met
 Total energy in the final basis set =     -218.3290596973
    9    -218.3308700311      5.47e-07  Convergence criterion met
 Total energy in the final basis set =     -218.3308700311
    9    -218.3316242089      5.46e-07  Convergence criterion met
    9    -218.3323165668      5.74e-07  Convergence criterion met
 Total energy in the final basis set =     -218.3323165668
    9    -218.3323561494      5.82e-07  Convergence criterion met
 Total energy in the final basis set =     -218.3323561494
    9    -218.3323660714      5.82e-07  Convergence criterion met
 Total energy in the final basis set =     -218.3323660714
    9    -218.3323723246      5.79e-07  Convergence criterion met
 Total energy in the final basis set =     -218.3323723246
    9    -218.3323749013      5.77e-07  Convergence criterion met
 Total energy in the final basis set =     -218.3323749013
    9    -218.3323760595      5.75e-07  Convergence criterion met
 Total energy in the final basis set =     -218.3323760595

             Standard Nuclear Orientation (Angstroms)
    I     Atom           X                Y                Z
 ----------------------------------------------------------------
    1      F      -0.0010688669     1.5910852909     0.2382993270
    2      C       0.0001652358    -0.1859729371    -0.4340561770
    3      C      -1.2898928845    -0.6923844533     0.1113748605
    4      C       1.2909508527    -0.6905631019     0.1113422955
    5      H      -0.0000333859     0.0662958639    -1.4920967355
    6      H      -2.1218669455    -0.0736375533    -0.2273730863
    7      H      -1.4560077323    -1.7206720387    -0.2401537047
    8      H      -1.2688639592    -0.7010011776     1.2032006534
    9      H       2.1220412528    -0.0706578557    -0.2274579301
   10      H       1.4584983458    -1.7186292918    -0.2401499507
   11      H       1.2699780872    -0.6991627454     1.2031704480
 ----------------------------------------------------------------

    9    -218.3323770332      5.75e-07  Convergence criterion met
 Total energy in the final basis set =     -218.3323770332

                    Orbital Energies (a.u.)
 --------------------------------------------------------------

 Alpha MOs
 -- Occupied --
-24.583 -10.281 -10.199 -10.199  -1.020  -0.811  -0.716  -0.594
 -0.481  -0.452  -0.434  -0.410  -0.379  -0.375  -0.315  -0.281
 -0.281

 Beta MOs
 -- Occupied --
-24.583 -10.281 -10.199 -10.199  -1.020  -0.811  -0.716  -0.594
 -0.481  -0.452  -0.434  -0.410  -0.379  -0.375  -0.315  -0.281
 -0.281

          Ground-State Mulliken Net Atomic Charges

     Atom                 Charge (a.u.)    Spin (a.u.)
  --------------------------------------------------------
      1 F                    -0.416203       0.000000
      2 C                     0.133247      -0.000000
      3 C                    -0.326271      -0.000000
      4 C                    -0.326271       0.000000
      5 H                     0.136343      -0.000000
      6 H                     0.146363       0.000000
      7 H                     0.113678       0.000000
      8 H                     0.139536       0.000000
      9 H                     0.146361       0.000000
     10 H                     0.113678       0.000000
     11 H                     0.139538      -0.000000
  --------------------------------------------------------
  Sum of atomic charges =    -0.000000

                    Cartesian Multipole Moments
 -----------------------------------------------------------------
    Charge (ESU x 10^10)
                -0.0000
    Dipole Moment (Debye)
         X       0.0025      Y      -3.5771      Z      -0.9786
       Tot       3.7085
    Quadrupole Moments (Debye-Ang)
        XX     -22.8558     XY       0.0042     YY     -29.0838
        XZ       0.0005     YZ      -0.7660     ZZ     -23.5804

 Final energy is   -218.332377033158
 **  OPTIMIZATION CONVERGED  **
 Total job time:  45.61s(wall), 502.14s(cpu)
        *  Thank you very much for using Q-Chem.  Have a nice day.  *
