 Q-Chem 5.1, Q-Chem, Inc., Pleasanton, CA (2018)
 Q-Chem 5.1.1 for Intel X86 EM64T Linux

User input:
--------------------------------------------------------------

$comment
potential surface scanner
$end

$rem
JOBTYPE  PES_SCAN
UNRESTRICTED TRUE
SYM_IGNORE  TRUE
GEOM_OPT_MAX_CYCLES 400
SCF_MAX_CYCLES 400
METHOD   B3LYP
BASIS   6-31G**
PDB_PRINT 2
SCF_CONVERGENCE 6
THRESH 14
SCF_PRINT 1
$end
$molecule
0 1
F -0.000876 1.330279 0.106506
C 0.000030 0.010776 -0.361372
C -1.274350 -0.662245 0.122648
C 1.275368 -0.660457 0.122606
H -0.000028 0.064939 -1.459199
H -2.151929 -0.101263 -0.210273
H -1.347492 -1.682198 -0.268440
H -1.287867 -0.709196 1.216247
H 2.152149 -0.098241 -0.210336
H 1.349922 -1.680301 -0.268492
H 1.288975 -0.707393 1.216205
$end
$scan
stre 1 2 1.500000 1.501000 0.100000
$end
--------------------------------------------------------------

    9    -218.3878756874      3.55e-07  Convergence criterion met
 Total energy in the final basis set =     -218.3878756874
    9    -218.3834212000      2.92e-07  Convergence criterion met
 Total energy in the final basis set =     -218.3834212000
    9    -218.3837374528      3.38e-07  Convergence criterion met
 Total energy in the final basis set =     -218.3837374528
    9    -218.3838594199      3.73e-07  Convergence criterion met
 Total energy in the final basis set =     -218.3838594199
    9    -218.3838646477      3.72e-07  Convergence criterion met
 Total energy in the final basis set =     -218.3838646477

             Standard Nuclear Orientation (Angstroms)
    I     Atom           X                Y                Z
 ----------------------------------------------------------------
    1      F      -0.0009212861     1.3799186160     0.1289015777
    2      C       0.0000616487    -0.0323641138    -0.3765247392
    3      C      -1.2782871617    -0.6678606060     0.1210437963
    4      C       1.2793164409    -0.6660655295     0.1210051496
    5      H      -0.0000250786     0.0651628872    -1.4671030834
    6      H      -2.1459159097    -0.0923961843    -0.2107517924
    7      H      -1.3731150443    -1.6892012287    -0.2640027690
    8      H      -1.2832427200    -0.7088200021     1.2142188374
    9      H       2.1461290985    -0.0893899206    -0.2108211129
   10      H       1.3755419684    -1.6872688690    -0.2640461781
   11      H       1.2843600438    -0.7070150494     1.2141803140
 ----------------------------------------------------------------

    9    -218.3838651680      3.71e-07  Convergence criterion met
 Total energy in the final basis set =     -218.3838651680

                    Orbital Energies (a.u.)
 --------------------------------------------------------------

 Alpha MOs
 -- Occupied --
-24.641 -10.263 -10.185 -10.185  -1.123  -0.788  -0.700  -0.589
 -0.483  -0.456  -0.437  -0.397  -0.386  -0.374  -0.368  -0.319
 -0.317

 Beta MOs
 -- Occupied --
-24.641 -10.263 -10.185 -10.185  -1.123  -0.788  -0.700  -0.589
 -0.483  -0.456  -0.437  -0.397  -0.386  -0.374  -0.368  -0.319
 -0.317

          Ground-State Mulliken Net Atomic Charges

     Atom                 Charge (a.u.)    Spin (a.u.)
  --------------------------------------------------------
      1 F                    -0.364493      -0.000000
      2 C                     0.229722       0.000000
      3 C                    -0.329211      -0.000000
      4 C                    -0.329208      -0.000000
      5 H                     0.096624      -0.000000
      6 H                     0.123932       0.000000
      7 H                     0.104517       0.000000
      8 H                     0.119835       0.000000
      9 H                     0.123932       0.000000
     10 H                     0.104516       0.000000
     11 H                     0.119834      -0.000000
  --------------------------------------------------------
  Sum of atomic charges =     0.000000

                    Cartesian Multipole Moments
 -----------------------------------------------------------------
    Charge (ESU x 10^10)
                 0.0000
    Dipole Moment (Debye)
         X       0.0014      Y      -2.0365      Z      -0.5466
       Tot       2.1086
    Quadrupole Moments (Debye-Ang)
        XX     -24.0771     XY       0.0023     YY     -27.4750
        XZ       0.0002     YZ      -0.3003     ZZ     -24.2417

 Final energy is   -218.383865168047
 **  OPTIMIZATION CONVERGED  **
 Total job time:  18.12s(wall), 192.26s(cpu)
        *  Thank you very much for using Q-Chem.  Have a nice day.  *
