 Q-Chem 5.1, Q-Chem, Inc., Pleasanton, CA (2018)
 Q-Chem 5.1.1 for Intel X86 EM64T Linux

User input:
--------------------------------------------------------------

$comment
potential surface scanner
$end

$rem
JOBTYPE  PES_SCAN
UNRESTRICTED TRUE
SYM_IGNORE  TRUE
GEOM_OPT_MAX_CYCLES 400
SCF_MAX_CYCLES 400
METHOD   B3LYP
BASIS   6-31G**
PDB_PRINT 2
SCF_CONVERGENCE 6
THRESH 14
SCF_PRINT 1
$end
$molecule
0 3
H 0.430376 0.909265 1.546461
C -0.106020 -0.224505 -0.381452
H 0.684953 0.513463 -0.402898
H -0.357916 -0.759668 -1.290384
H -0.651497 -0.438654 0.528072
$end
$scan
stre 1 2 2.200000 2.201000 0.100000
$end
--------------------------------------------------------------

    8     -40.3376716362      4.05e-07  Convergence criterion met
 Total energy in the final basis set =      -40.3376716362
    8     -40.3351221138      4.94e-07  Convergence criterion met
 Total energy in the final basis set =      -40.3351221138
    8     -40.3354283961      5.13e-07  Convergence criterion met
 Total energy in the final basis set =      -40.3354283961
    8     -40.3355924112      5.48e-07  Convergence criterion met
 Total energy in the final basis set =      -40.3355924112
    8     -40.3356176180      5.44e-07  Convergence criterion met
 Total energy in the final basis set =      -40.3356176180

             Standard Nuclear Orientation (Angstroms)
    I     Atom           X                Y                Z
 ----------------------------------------------------------------
    1      H       0.4123125434     0.8709056641     1.4808612795
    2      C      -0.1009348791    -0.2137715063    -0.3630624835
    3      H       0.6906059552     0.5232647270    -0.3890975435
    4      H      -0.3529480228    -0.7492031067    -1.2727784120
    5      H      -0.6491395968    -0.4312947780     0.5438761595
 ----------------------------------------------------------------

    8     -40.3356221627      5.19e-07  Convergence criterion met
 Total energy in the final basis set =      -40.3356221627

                    Orbital Energies (a.u.)
 --------------------------------------------------------------

 Alpha MOs
 -- Occupied --
-10.198  -0.691  -0.434  -0.426  -0.284  -0.231

 Beta MOs
 -- Occupied --
-10.183  -0.646  -0.414  -0.411

          Ground-State Mulliken Net Atomic Charges

     Atom                 Charge (a.u.)    Spin (a.u.)
  --------------------------------------------------------
      1 H                    -0.021962       0.966588
      2 C                    -0.361389       1.156636
      3 H                     0.131674      -0.050802
      4 H                     0.119992      -0.021645
      5 H                     0.131685      -0.050777
  --------------------------------------------------------
  Sum of atomic charges =    -0.000000

                    Cartesian Multipole Moments
 -----------------------------------------------------------------
    Charge (ESU x 10^10)
                -0.0000
    Dipole Moment (Debye)
         X      -0.0692      Y      -0.1444      Z      -0.2469
       Tot       0.2943
    Quadrupole Moments (Debye-Ang)
        XX      -8.9652     XY       0.7052     YY      -9.2233
        XZ      -0.4293     YZ      -0.0711     ZZ      -8.8521

 Final energy is   -40.3356221626558
 **  OPTIMIZATION CONVERGED  **
 Total job time:  13.75s(wall), 137.93s(cpu)
        *  Thank you very much for using Q-Chem.  Have a nice day.  *
