 Q-Chem 5.1, Q-Chem, Inc., Pleasanton, CA (2018)
 Q-Chem 5.1.1 for Intel X86 EM64T Linux

User input:
--------------------------------------------------------------

$comment
potential surface scanner
$end

$rem
JOBTYPE  PES_SCAN
UNRESTRICTED TRUE
SYM_IGNORE  TRUE
GEOM_OPT_MAX_CYCLES 400
SCF_MAX_CYCLES 400
METHOD   B3LYP
BASIS   6-31G**
PDB_PRINT 2
SCF_CONVERGENCE 6
THRESH 14
SCF_PRINT 1
$end
$molecule
0 3
H 0.358173 0.757577 1.288132
C -0.084542 -0.179276 -0.304449
H 0.709792 0.551944 -0.355057
H -0.337962 -0.716741 -1.218029
H -0.645565 -0.413603 0.589203
$end
$scan
stre 1 2 1.800000 1.801000 0.100000
$end
--------------------------------------------------------------

    8     -40.3250954384      5.86e-07  Convergence criterion met
 Total energy in the final basis set =      -40.3250954384
    8     -40.3192173588      5.11e-07  Convergence criterion met
 Total energy in the final basis set =      -40.3192173588
    8     -40.3193868302      5.11e-07  Convergence criterion met
 Total energy in the final basis set =      -40.3193868302
    8     -40.3194446504      5.17e-07  Convergence criterion met
 Total energy in the final basis set =      -40.3194446504
    8     -40.3194588273      5.25e-07  Convergence criterion met
 Total energy in the final basis set =      -40.3194588273
    8     -40.3194665067      5.36e-07  Convergence criterion met
 Total energy in the final basis set =      -40.3194665067

             Standard Nuclear Orientation (Angstroms)
    I     Atom           X                Y                Z
 ----------------------------------------------------------------
    1      H       0.3407080346     0.7210066737     1.2260936783
    2      C      -0.0784877077    -0.1664668082    -0.2827687890
    3      H       0.7174971426     0.5614248835    -0.3478268655
    4      H      -0.3327024277    -0.7054088348    -1.1987763411
    5      H      -0.6471190418    -0.4106549141     0.6030783173
 ----------------------------------------------------------------

    8     -40.3194670919      5.38e-07  Convergence criterion met
 Total energy in the final basis set =      -40.3194670919

                    Orbital Energies (a.u.)
 --------------------------------------------------------------

 Alpha MOs
 -- Occupied --
-10.207  -0.707  -0.453  -0.445  -0.240  -0.235

 Beta MOs
 -- Occupied --
-10.191  -0.658  -0.429  -0.420

          Ground-State Mulliken Net Atomic Charges

     Atom                 Charge (a.u.)    Spin (a.u.)
  --------------------------------------------------------
      1 H                    -0.066816       0.927534
      2 C                    -0.356280       1.147231
      3 H                     0.153830      -0.046051
      4 H                     0.115432       0.017337
      5 H                     0.153834      -0.046052
  --------------------------------------------------------
  Sum of atomic charges =     0.000000

                    Cartesian Multipole Moments
 -----------------------------------------------------------------
    Charge (ESU x 10^10)
                 0.0000
    Dipole Moment (Debye)
         X      -0.1504      Y      -0.3169      Z      -0.5398
       Tot       0.6437
    Quadrupole Moments (Debye-Ang)
        XX      -8.8398     XY       0.6892     YY      -9.3392
        XZ      -0.7017     YZ      -0.5232     ZZ      -9.4014

 Final energy is   -40.3194670918914
 **  OPTIMIZATION CONVERGED  **
 Total job time:  16.66s(wall), 158.47s(cpu)
        *  Thank you very much for using Q-Chem.  Have a nice day.  *
