 Q-Chem 5.1, Q-Chem, Inc., Pleasanton, CA (2018)
 Q-Chem 5.1.1 for Intel X86 EM64T Linux

User input:
--------------------------------------------------------------

$comment
potential surface scanner
$end

$rem
JOBTYPE  PES_SCAN
UNRESTRICTED TRUE
SYM_IGNORE  TRUE
GEOM_OPT_MAX_CYCLES 400
SCF_MAX_CYCLES 400
METHOD   B3LYP
BASIS   6-31G**
PDB_PRINT 2
SCF_CONVERGENCE 6
THRESH 14
SCF_PRINT 1
$end
$molecule
0 3
H 0.340708 0.721007 1.226094
C -0.078488 -0.166467 -0.282769
H 0.717497 0.561425 -0.347827
H -0.332702 -0.705409 -1.198776
H -0.647119 -0.410655 0.603078
$end
$scan
stre 1 2 1.700000 1.701000 0.100000
$end
--------------------------------------------------------------

    8     -40.3194671401      5.38e-07  Convergence criterion met
 Total energy in the final basis set =      -40.3194671401
    8     -40.3121966036      4.94e-07  Convergence criterion met
 Total energy in the final basis set =      -40.3121966036
    8     -40.3123119453      5.06e-07  Convergence criterion met
 Total energy in the final basis set =      -40.3123119453
    8     -40.3123479427      5.13e-07  Convergence criterion met
 Total energy in the final basis set =      -40.3123479427
    8     -40.3123540354      5.15e-07  Convergence criterion met
 Total energy in the final basis set =      -40.3123540354
    8     -40.3123588193      5.18e-07  Convergence criterion met
 Total energy in the final basis set =      -40.3123588193

             Standard Nuclear Orientation (Angstroms)
    I     Atom           X                Y                Z
 ----------------------------------------------------------------
    1      H       0.3238932207     0.6857223214     1.1662147683
    2      C      -0.0718131128    -0.1523965710    -0.2589074447
    3      H       0.7261880492     0.5706000455    -0.3444859069
    4      H      -0.3271544374    -0.6934740725    -1.1784755879
    5      H      -0.6512177197    -0.4105507234     0.6154541711
 ----------------------------------------------------------------

    8     -40.3123591499      5.18e-07  Convergence criterion met
 Total energy in the final basis set =      -40.3123591499

                    Orbital Energies (a.u.)
 --------------------------------------------------------------

 Alpha MOs
 -- Occupied --
-10.210  -0.713  -0.458  -0.452  -0.244  -0.217

 Beta MOs
 -- Occupied --
-10.194  -0.663  -0.434  -0.423

          Ground-State Mulliken Net Atomic Charges

     Atom                 Charge (a.u.)    Spin (a.u.)
  --------------------------------------------------------
      1 H                    -0.083096       0.912656
      2 C                    -0.353320       1.136854
      3 H                     0.162049      -0.042055
      4 H                     0.112303       0.034606
      5 H                     0.162064      -0.042060
  --------------------------------------------------------
  Sum of atomic charges =    -0.000000

                    Cartesian Multipole Moments
 -----------------------------------------------------------------
    Charge (ESU x 10^10)
                -0.0000
    Dipole Moment (Debye)
         X      -0.1693      Y      -0.3571      Z      -0.6081
       Tot       0.7252
    Quadrupole Moments (Debye-Ang)
        XX      -8.7802     XY       0.6930     YY      -9.3652
        XZ      -0.8001     YZ      -0.6781     ZZ      -9.5703

 Final energy is   -40.3123591499394
 **  OPTIMIZATION CONVERGED  **
 Total job time:  16.04s(wall), 160.13s(cpu)
        *  Thank you very much for using Q-Chem.  Have a nice day.  *
