 Q-Chem 5.1, Q-Chem, Inc., Pleasanton, CA (2018)
 Q-Chem 5.1.1 for Intel X86 EM64T Linux

User input:
--------------------------------------------------------------

$comment
potential surface scanner
$end

$rem
JOBTYPE  PES_SCAN
UNRESTRICTED TRUE
SYM_IGNORE  TRUE
GEOM_OPT_MAX_CYCLES 400
SCF_MAX_CYCLES 400
METHOD   B3LYP
BASIS   6-31G**
PDB_PRINT 2
SCF_CONVERGENCE 6
THRESH 14
SCF_PRINT 1
$end
$molecule
0 1
H 0.799927 0.243624 1.415698
C -0.124455 -0.037923 -0.220227
H 0.170589 0.842057 -0.778864
H 0.304814 -0.979255 -0.541327
H -1.150975 -0.068605 0.124522
$end
$scan
stre 1 2 2.000000 2.001000 0.100000
$end
--------------------------------------------------------------

    8     -40.4089882375      2.32e-07  Convergence criterion met
 Total energy in the final basis set =      -40.4089882375
    8     -40.3955311175      2.66e-07  Convergence criterion met
 Total energy in the final basis set =      -40.3955311175
    8     -40.3952506537      2.75e-07  Convergence criterion met
 Total energy in the final basis set =      -40.3952506537

             Standard Nuclear Orientation (Angstroms)
    I     Atom           X                Y                Z
 ----------------------------------------------------------------
    1      H       0.8328767432     0.2536252748     1.4739430090
    2      C      -0.1401925868    -0.0427105395    -0.2480677804
    3      H       0.1659990039     0.8429814503    -0.7901127505
    4      H       0.3006549488    -0.9836545886    -0.5518348250
    5      H      -1.1594381092    -0.0703435970     0.1158743469
 ----------------------------------------------------------------

    8     -40.3952568370      2.79e-07  Convergence criterion met
 Total energy in the final basis set =      -40.3952568370

                    Orbital Energies (a.u.)
 --------------------------------------------------------------

 Alpha MOs
 -- Occupied --
-10.231  -0.685  -0.425  -0.425  -0.266

 Beta MOs
 -- Occupied --
-10.231  -0.685  -0.425  -0.425  -0.266

          Ground-State Mulliken Net Atomic Charges

     Atom                 Charge (a.u.)    Spin (a.u.)
  --------------------------------------------------------
      1 H                    -0.088689       0.000000
      2 C                    -0.353326      -0.000000
      3 H                     0.147343      -0.000000
      4 H                     0.147337      -0.000000
      5 H                     0.147335       0.000000
  --------------------------------------------------------
  Sum of atomic charges =     0.000000

                    Cartesian Multipole Moments
 -----------------------------------------------------------------
    Charge (ESU x 10^10)
                 0.0000
    Dipole Moment (Debye)
         X      -0.5892      Y      -0.1794      Z      -1.0427
       Tot       1.2111
    Quadrupole Moments (Debye-Ang)
        XX      -8.6351     XY      -0.0973     YY      -8.3456
        XZ      -0.5655     YZ      -0.1722     ZZ      -9.3168

 Final energy is   -40.3952568370453
 **  OPTIMIZATION CONVERGED  **
 Total job time:  9.93s(wall), 92.74s(cpu)
        *  Thank you very much for using Q-Chem.  Have a nice day.  *
