 Q-Chem 5.1, Q-Chem, Inc., Pleasanton, CA (2018)
 Q-Chem 5.1.1 for Intel X86 EM64T Linux

User input:
--------------------------------------------------------------

$comment
potential surface scanner
$end

$rem
JOBTYPE  PES_SCAN
UNRESTRICTED TRUE
SYM_IGNORE  TRUE
GEOM_OPT_MAX_CYCLES 400
SCF_MAX_CYCLES 400
METHOD   B3LYP
BASIS   6-31G**
PDB_PRINT 2
SCF_CONVERGENCE 6
THRESH 14
SCF_PRINT 1
$end
$molecule
0 1
H 0.668939 0.203724 1.183873
C -0.060831 -0.018549 -0.107649
H 0.187093 0.835289 -0.733415
H 0.319312 -0.958803 -0.499427
H -1.114613 -0.061762 0.156419
$end
$scan
stre 1 2 1.600000 1.601000 0.100000
$end
--------------------------------------------------------------

    7     -40.4733131131      8.67e-07  Convergence criterion met
 Total energy in the final basis set =      -40.4733131131
    8     -40.4566598946      5.42e-08  Convergence criterion met
 Total energy in the final basis set =      -40.4566598946
    8     -40.4561236320      5.54e-08  Convergence criterion met
 Total energy in the final basis set =      -40.4561236320
    8     -40.4561783838      5.62e-08  Convergence criterion met
 Total energy in the final basis set =      -40.4561783838

             Standard Nuclear Orientation (Angstroms)
    I     Atom           X                Y                Z
 ----------------------------------------------------------------
    1      H       0.7017697748     0.2137457906     1.2420355211
    2      C      -0.0766236655    -0.0233579455    -0.1356020348
    3      H       0.1830331786     0.8372564304    -0.7450396619
    4      H       0.3157793832    -0.9642482996    -0.5101098273
    5      H      -1.1240586710    -0.0634969759     0.1485170030
 ----------------------------------------------------------------

    8     -40.4562123442      5.69e-08  Convergence criterion met
 Total energy in the final basis set =      -40.4562123442

                    Orbital Energies (a.u.)
 --------------------------------------------------------------

 Alpha MOs
 -- Occupied --
-10.209  -0.678  -0.407  -0.407  -0.309

 Beta MOs
 -- Occupied --
-10.209  -0.678  -0.407  -0.407  -0.309

          Ground-State Mulliken Net Atomic Charges

     Atom                 Charge (a.u.)    Spin (a.u.)
  --------------------------------------------------------
      1 H                    -0.005542       0.000000
      2 C                    -0.399847       0.000000
      3 H                     0.135130       0.000000
      4 H                     0.135130      -0.000000
      5 H                     0.135128      -0.000000
  --------------------------------------------------------
  Sum of atomic charges =    -0.000000

                    Cartesian Multipole Moments
 -----------------------------------------------------------------
    Charge (ESU x 10^10)
                -0.0000
    Dipole Moment (Debye)
         X      -0.2765      Y      -0.0842      Z      -0.4894
       Tot       0.5683
    Quadrupole Moments (Debye-Ang)
        XX      -8.4834     XY      -0.0345     YY      -8.3803
        XZ      -0.2010     YZ      -0.0611     ZZ      -8.7253

 Final energy is   -40.4562123442274
 **  OPTIMIZATION CONVERGED  **
 Total job time:  13.33s(wall), 126.66s(cpu)
        *  Thank you very much for using Q-Chem.  Have a nice day.  *
