 Q-Chem 5.1, Q-Chem, Inc., Pleasanton, CA (2018)
 Q-Chem 5.1.1 for Intel X86 EM64T Linux

User input:
--------------------------------------------------------------

$comment
potential surface scanner
$end

$rem
JOBTYPE  PES_SCAN
UNRESTRICTED TRUE
SYM_IGNORE  TRUE
GEOM_OPT_MAX_CYCLES 400
SCF_MAX_CYCLES 400
METHOD   B3LYP
BASIS   6-31G**
PDB_PRINT 2
SCF_CONVERGENCE 6
THRESH 14
SCF_PRINT 1
$end
$molecule
0 1
H 0.832877 0.253625 1.473943
C -0.140193 -0.042711 -0.248068
H 0.165999 0.842981 -0.790113
H 0.300655 -0.983655 -0.551835
H -1.159438 -0.070344 0.115874
$end
$scan
stre 1 2 2.100000 2.101000 0.100000
$end
--------------------------------------------------------------

    8     -40.3952567664      2.79e-07  Convergence criterion met
 Total energy in the final basis set =      -40.3952567664
    8     -40.3828249703      2.12e-07  Convergence criterion met
 Total energy in the final basis set =      -40.3828249703
    8     -40.3825778711      2.27e-07  Convergence criterion met
 Total energy in the final basis set =      -40.3825778711

             Standard Nuclear Orientation (Angstroms)
    I     Atom           X                Y                Z
 ----------------------------------------------------------------
    1      H       0.8660824176     0.2637228692     1.5327026036
    2      C      -0.1556382182    -0.0474139721    -0.2754126590
    3      H       0.1610671046     0.8434918384    -0.8015575763
    4      H       0.2960873678    -0.9877665970    -0.5626515644
    5      H      -1.1676986718    -0.0721381386     0.1067201960
 ----------------------------------------------------------------

    8     -40.3825842179      2.36e-07  Convergence criterion met
 Total energy in the final basis set =      -40.3825842179

                    Orbital Energies (a.u.)
 --------------------------------------------------------------

 Alpha MOs
 -- Occupied --
-10.234  -0.687  -0.429  -0.429  -0.258

 Beta MOs
 -- Occupied --
-10.234  -0.687  -0.429  -0.429  -0.258

          Ground-State Mulliken Net Atomic Charges

     Atom                 Charge (a.u.)    Spin (a.u.)
  --------------------------------------------------------
      1 H                    -0.103989      -0.000000
      2 C                    -0.345582      -0.000000
      3 H                     0.149862       0.000000
      4 H                     0.149859       0.000000
      5 H                     0.149850       0.000000
  --------------------------------------------------------
  Sum of atomic charges =    -0.000000

                    Cartesian Multipole Moments
 -----------------------------------------------------------------
    Charge (ESU x 10^10)
                 0.0000
    Dipole Moment (Debye)
         X      -0.6647      Y      -0.2025      Z      -1.1765
       Tot       1.3664
    Quadrupole Moments (Debye-Ang)
        XX      -8.6775     XY      -0.1165     YY      -8.3309
        XZ      -0.6766     YZ      -0.2061     ZZ      -9.4930

 Final energy is   -40.3825842179448
 **  OPTIMIZATION CONVERGED  **
 Total job time:  9.35s(wall), 90.94s(cpu)
        *  Thank you very much for using Q-Chem.  Have a nice day.  *
