 Q-Chem 5.1, Q-Chem, Inc., Pleasanton, CA (2018)
 Q-Chem 5.1.1 for Intel X86 EM64T Linux

User input:
--------------------------------------------------------------

$comment
potential surface scanner
$end

$rem
JOBTYPE  PES_SCAN
UNRESTRICTED TRUE
SYM_IGNORE  TRUE
GEOM_OPT_MAX_CYCLES 400
SCF_MAX_CYCLES 400
METHOD   B3LYP
BASIS   6-31G**
PDB_PRINT 2
SCF_CONVERGENCE 6
THRESH 14
SCF_PRINT 1
$end
$molecule
0 1
H 0.635843 0.193637 1.125267
C -0.045291 -0.013823 -0.080144
H 0.191270 0.833218 -0.721431
H 0.322926 -0.953157 -0.488444
H -1.104848 -0.059976 0.164553
$end
$scan
stre 1 2 1.500000 1.501000 0.100000
$end
--------------------------------------------------------------

    7     -40.4902244935      6.78e-07  Convergence criterion met
 Total energy in the final basis set =      -40.4902244935
    7     -40.4737723295      9.70e-07  Convergence criterion met
 Total energy in the final basis set =      -40.4737723295
    7     -40.4732967743      9.07e-07  Convergence criterion met
 Total energy in the final basis set =      -40.4732967743

             Standard Nuclear Orientation (Angstroms)
    I     Atom           X                Y                Z
 ----------------------------------------------------------------
    1      H       0.6689393148     0.2037241782     1.1838733203
    2      C      -0.0608311743    -0.0185492960    -0.1076488467
    3      H       0.1870933073     0.8352889988    -0.7334153768
    4      H       0.3193117662    -0.9588031521    -0.4994272122
    5      H      -1.1146132140    -0.0617617290     0.1564191154
 ----------------------------------------------------------------

    7     -40.4733130356      8.67e-07  Convergence criterion met
 Total energy in the final basis set =      -40.4733130356

                    Orbital Energies (a.u.)
 --------------------------------------------------------------

 Alpha MOs
 -- Occupied --
-10.203  -0.677  -0.403  -0.403  -0.323

 Beta MOs
 -- Occupied --
-10.203  -0.677  -0.403  -0.403  -0.323

          Ground-State Mulliken Net Atomic Charges

     Atom                 Charge (a.u.)    Spin (a.u.)
  --------------------------------------------------------
      1 H                     0.019447      -0.000000
      2 C                    -0.414362       0.000000
      3 H                     0.131638       0.000000
      4 H                     0.131643      -0.000000
      5 H                     0.131634      -0.000000
  --------------------------------------------------------
  Sum of atomic charges =    -0.000000

                    Cartesian Multipole Moments
 -----------------------------------------------------------------
    Charge (ESU x 10^10)
                -0.0000
    Dipole Moment (Debye)
         X      -0.2046      Y      -0.0623      Z      -0.3621
       Tot       0.4206
    Quadrupole Moments (Debye-Ang)
        XX      -8.4448     XY      -0.0235     YY      -8.3748
        XZ      -0.1366     YZ      -0.0415     ZZ      -8.6095

 Final energy is   -40.4733130356260
 **  OPTIMIZATION CONVERGED  **
 Total job time:  10.58s(wall), 99.53s(cpu)
        *  Thank you very much for using Q-Chem.  Have a nice day.  *
