 Q-Chem 5.1, Q-Chem, Inc., Pleasanton, CA (2018)
 Q-Chem 5.1.1 for Intel X86 EM64T Linux

User input:
--------------------------------------------------------------

$comment
potential surface scanner
$end

$rem
JOBTYPE  PES_SCAN
UNRESTRICTED TRUE
SYM_IGNORE  TRUE
GEOM_OPT_MAX_CYCLES 400
SCF_MAX_CYCLES 400
METHOD   B3LYP
BASIS   6-31G**
PDB_PRINT 2
SCF_CONVERGENCE 6
THRESH 14
SCF_PRINT 1
$end
$molecule
0 3
H 1.198838 0.372105 2.129265
C -0.304704 -0.094664 -0.541220
H 0.108048 0.835212 -0.909688
H 0.233287 -1.021789 -0.688898
H -1.235571 -0.090963 0.010341
$end
$scan
stre 1 2 3.000000 3.001000 0.100000
$end
--------------------------------------------------------------

    7     -40.3416589069      9.96e-07  Convergence criterion met
 Total energy in the final basis set =      -40.3416589069
    8     -40.3408429636      3.06e-07  Convergence criterion met
 Total energy in the final basis set =      -40.3408429636
    8     -40.3410794608      3.06e-07  Convergence criterion met
 Total energy in the final basis set =      -40.3410794608
    8     -40.3411507821      2.99e-07  Convergence criterion met
 Total energy in the final basis set =      -40.3411507821
    8     -40.3411539193      2.95e-07  Convergence criterion met
 Total energy in the final basis set =      -40.3411539193
    7     -40.3411849085      9.23e-07  Convergence criterion met
 Total energy in the final basis set =      -40.3411849085

             Standard Nuclear Orientation (Angstroms)
    I     Atom           X                Y                Z
 ----------------------------------------------------------------
    1      H       1.1581194008     0.3609532484     2.0585382812
    2      C      -0.2959766221    -0.0922812421    -0.5260671829
    3      H       0.1192879123     0.8382612296    -0.8900068153
    4      H       0.2425894872    -1.0192273297    -0.6727216130
    5      H      -1.2241221782    -0.0878049063     0.0300573300
 ----------------------------------------------------------------

    7     -40.3411852158      9.76e-07  Convergence criterion met
 Total energy in the final basis set =      -40.3411852158

                    Orbital Energies (a.u.)
 --------------------------------------------------------------

 Alpha MOs
 -- Occupied --
-10.191  -0.681  -0.415  -0.415  -0.314  -0.220

 Beta MOs
 -- Occupied --
-10.176  -0.639  -0.405  -0.405

          Ground-State Mulliken Net Atomic Charges

     Atom                 Charge (a.u.)    Spin (a.u.)
  --------------------------------------------------------
      1 H                     0.000519       0.999191
      2 C                    -0.367139       1.145375
      3 H                     0.122185      -0.048190
      4 H                     0.122256      -0.048183
      5 H                     0.122179      -0.048192
  --------------------------------------------------------
  Sum of atomic charges =     0.000000

                    Cartesian Multipole Moments
 -----------------------------------------------------------------
    Charge (ESU x 10^10)
                 0.0000
    Dipole Moment (Debye)
         X       0.0218      Y       0.0059      Z       0.0377
       Tot       0.0439
    Quadrupole Moments (Debye-Ang)
        XX      -8.7069     XY      -0.1144     YY      -8.3211
        XZ      -0.7187     YZ      -0.1947     ZZ      -9.5391

 Final energy is   -40.3411852158161
 **  OPTIMIZATION CONVERGED  **
 Total job time:  15.26s(wall), 153.37s(cpu)
        *  Thank you very much for using Q-Chem.  Have a nice day.  *
