 Q-Chem 5.1, Q-Chem, Inc., Pleasanton, CA (2018)
 Q-Chem 5.1.1 for Intel X86 EM64T Linux

User input:
--------------------------------------------------------------

$comment
potential surface scanner
$end

$rem
JOBTYPE  PES_SCAN
UNRESTRICTED TRUE
SYM_IGNORE  TRUE
GEOM_OPT_MAX_CYCLES 400
SCF_MAX_CYCLES 400
METHOD   B3LYP
BASIS   6-31G**
PDB_PRINT 2
SCF_CONVERGENCE 6
THRESH 14
SCF_PRINT 1
$end
$molecule
0 1
H 0.734500 0.223733 1.299999
C -0.092528 -0.028203 -0.163747
H 0.179004 0.839136 -0.756487
H 0.312261 -0.969557 -0.520641
H -1.133337 -0.065211 0.140677
$end
$scan
stre 1 2 1.800000 1.801000 0.100000
$end
--------------------------------------------------------------

    8     -40.4395822492      9.93e-08  Convergence criterion met
 Total energy in the final basis set =      -40.4395822492
    8     -40.4241439346      1.56e-07  Convergence criterion met
 Total energy in the final basis set =      -40.4241439346
    8     -40.4237798422      1.60e-07  Convergence criterion met
 Total energy in the final basis set =      -40.4237798422

             Standard Nuclear Orientation (Angstroms)
    I     Atom           X                Y                Z
 ----------------------------------------------------------------
    1      H       0.7671653482     0.2336760283     1.3577819628
    2      C      -0.1085310479    -0.0330773128    -0.1920562462
    3      H       0.1748988997     0.8407552360    -0.7676933054
    4      H       0.3086497932    -0.9745540952    -0.5309786636
    5      H      -1.1422829932    -0.0669018562     0.1327472524
 ----------------------------------------------------------------

    8     -40.4237833160      1.61e-07  Convergence criterion met
 Total energy in the final basis set =      -40.4237833160

                    Orbital Energies (a.u.)
 --------------------------------------------------------------

 Alpha MOs
 -- Occupied --
-10.221  -0.681  -0.416  -0.416  -0.285

 Beta MOs
 -- Occupied --
-10.221  -0.681  -0.416  -0.416  -0.285

          Ground-State Mulliken Net Atomic Charges

     Atom                 Charge (a.u.)    Spin (a.u.)
  --------------------------------------------------------
      1 H                    -0.051111       0.000000
      2 C                    -0.373919      -0.000000
      3 H                     0.141680       0.000000
      4 H                     0.141669       0.000000
      5 H                     0.141681       0.000000
  --------------------------------------------------------
  Sum of atomic charges =     0.000000

                    Cartesian Multipole Moments
 -----------------------------------------------------------------
    Charge (ESU x 10^10)
                 0.0000
    Dipole Moment (Debye)
         X      -0.4317      Y      -0.1315      Z      -0.7641
       Tot       0.8874
    Quadrupole Moments (Debye-Ang)
        XX      -8.5578     XY      -0.0626     YY      -8.3713
        XZ      -0.3643     YZ      -0.1108     ZZ      -8.9965

 Final energy is   -40.4237833160054
 **  OPTIMIZATION CONVERGED  **
 Total job time:  10.07s(wall), 94.49s(cpu)
        *  Thank you very much for using Q-Chem.  Have a nice day.  *
