 Q-Chem 5.1, Q-Chem, Inc., Pleasanton, CA (2018)
 Q-Chem 5.1.1 for Intel X86 EM64T Linux

User input:
--------------------------------------------------------------

$comment
potential surface scanner
$end

$rem
JOBTYPE  PES_SCAN
UNRESTRICTED TRUE
SYM_IGNORE  TRUE
GEOM_OPT_MAX_CYCLES 400
SCF_MAX_CYCLES 400
METHOD   B3LYP
BASIS   6-31G**
PDB_PRINT 2
SCF_CONVERGENCE 6
THRESH 14
SCF_PRINT 1
$end
$molecule
0 1
H 0.528800 0.161000 0.935900
C 0.000000 0.000000 0.000000
H 0.205100 0.824000 -0.678600
H 0.334500 -0.931400 -0.449600
H -1.068500 -0.053700 0.192100
$end
$scan
stre 1 2 0.800000 0.801000 0.100000
$end
--------------------------------------------------------------

    6     -40.5239421989      2.32e-07  Convergence criterion met
 Total energy in the final basis set =      -40.5239421989
    7     -40.5032411225      1.27e-07  Convergence criterion met
 Total energy in the final basis set =      -40.5032411225
    7     -40.4333741713      1.67e-07  Convergence criterion met
 Total energy in the final basis set =      -40.4333741713
    7     -40.4260977530      1.71e-07  Convergence criterion met
 Total energy in the final basis set =      -40.4260977530

             Standard Nuclear Orientation (Angstroms)
    I     Atom           X                Y                Z
 ----------------------------------------------------------------
    1      H       0.4260765932     0.1298170127     0.7542969533
    2      C       0.0370389504     0.0112212163     0.0653952744
    3      H       0.2248902583     0.8258068010    -0.6378264119
    4      H       0.3535207054    -0.9198993395    -0.4101580774
    5      H      -1.0416265073    -0.0470456905     0.2280922616
 ----------------------------------------------------------------

    7     -40.4251250918      1.71e-07  Convergence criterion met
 Total energy in the final basis set =      -40.4251250918

                    Orbital Energies (a.u.)
 --------------------------------------------------------------

 Alpha MOs
 -- Occupied --
-10.140  -0.725  -0.437  -0.384  -0.384

 Beta MOs
 -- Occupied --
-10.140  -0.725  -0.437  -0.384  -0.384

          Ground-State Mulliken Net Atomic Charges

     Atom                 Charge (a.u.)    Spin (a.u.)
  --------------------------------------------------------
      1 H                     0.118321       0.000000
      2 C                    -0.434961      -0.000000
      3 H                     0.105548       0.000000
      4 H                     0.105560      -0.000000
      5 H                     0.105531      -0.000000
  --------------------------------------------------------
  Sum of atomic charges =    -0.000000

                    Cartesian Multipole Moments
 -----------------------------------------------------------------
    Charge (ESU x 10^10)
                -0.0000
    Dipole Moment (Debye)
         X       0.0270      Y       0.0083      Z       0.0480
       Tot       0.0557
    Quadrupole Moments (Debye-Ang)
        XX      -8.0140     XY      -0.0022     YY      -8.0067
        XZ      -0.0130     YZ      -0.0037     ZZ      -8.0286

 Final energy is   -40.4251250917766
 **  OPTIMIZATION CONVERGED  **
 Total job time:  14.03s(wall), 123.21s(cpu)
        *  Thank you very much for using Q-Chem.  Have a nice day.  *
