 Q-Chem 5.1, Q-Chem, Inc., Pleasanton, CA (2018)
 Q-Chem 5.1.1 for Intel X86 EM64T Linux

User input:
--------------------------------------------------------------

$comment
potential surface scanner
$end

$rem
JOBTYPE  PES_SCAN
UNRESTRICTED TRUE
SYM_IGNORE  TRUE
GEOM_OPT_MAX_CYCLES 400
SCF_MAX_CYCLES 400
METHOD   B3LYP
BASIS   6-31G**
PDB_PRINT 2
SCF_CONVERGENCE 6
THRESH 14
SCF_PRINT 1
$end
$molecule
0 1
H 0.534022 0.162631 0.945132
C -0.001148 -0.000345 -0.001985
H 0.205647 0.827814 -0.682782
H 0.335612 -0.936055 -0.452722
H -1.074233 -0.054145 0.192157
$end
$scan
stre 1 2 1.200000 1.201000 0.100000
$end
--------------------------------------------------------------

    6     -40.5239646651      3.24e-07  Convergence criterion met
 Total energy in the final basis set =      -40.5239646651
    7     -40.5182744429      1.77e-07  Convergence criterion met
 Total energy in the final basis set =      -40.5182744429
    7     -40.5181370536      1.89e-07  Convergence criterion met
 Total energy in the final basis set =      -40.5181370536

             Standard Nuclear Orientation (Angstroms)
    I     Atom           X                Y                Z
 ----------------------------------------------------------------
    1      H       0.5684799842     0.1731374295     1.0061045875
    2      C      -0.0153360206    -0.0046901408    -0.0271118573
    3      H       0.2004372645     0.8293389909    -0.6962073718
    4      H       0.3309341768    -0.9416937183    -0.4652322689
    5      H      -1.0846154049    -0.0561925614     0.1822469105
 ----------------------------------------------------------------

    7     -40.5181422514      1.78e-07  Convergence criterion met
 Total energy in the final basis set =      -40.5181422514

                    Orbital Energies (a.u.)
 --------------------------------------------------------------

 Alpha MOs
 -- Occupied --
-10.178  -0.684  -0.391  -0.391  -0.370

 Beta MOs
 -- Occupied --
-10.178  -0.684  -0.391  -0.391  -0.370

          Ground-State Mulliken Net Atomic Charges

     Atom                 Charge (a.u.)    Spin (a.u.)
  --------------------------------------------------------
      1 H                     0.095245       0.000000
      2 C                    -0.459235      -0.000000
      3 H                     0.121332       0.000000
      4 H                     0.121325      -0.000000
      5 H                     0.121332      -0.000000
  --------------------------------------------------------
  Sum of atomic charges =     0.000000

                    Cartesian Multipole Moments
 -----------------------------------------------------------------
    Charge (ESU x 10^10)
                 0.0000
    Dipole Moment (Debye)
         X      -0.0366      Y      -0.0112      Z      -0.0648
       Tot       0.0753
    Quadrupole Moments (Debye-Ang)
        XX      -8.3086     XY      -0.0028     YY      -8.3003
        XZ      -0.0167     YZ      -0.0050     ZZ      -8.3288

 Final energy is   -40.5181422514388
 **  OPTIMIZATION CONVERGED  **
 Total job time:  12.40s(wall), 98.47s(cpu)
        *  Thank you very much for using Q-Chem.  Have a nice day.  *
