 Q-Chem 5.1, Q-Chem, Inc., Pleasanton, CA (2018)
 Q-Chem 5.1.1 for Intel X86 EM64T Linux

User input:
--------------------------------------------------------------

$comment
potential surface scanner
$end

$rem
JOBTYPE  PES_SCAN
UNRESTRICTED TRUE
SYM_IGNORE  TRUE
GEOM_OPT_MAX_CYCLES 400
SCF_MAX_CYCLES 400
METHOD   B3LYP
BASIS   6-31G**
PDB_PRINT 2
SCF_CONVERGENCE 6
THRESH 14
SCF_PRINT 1
$end
$molecule
0 3
H 1.032627 0.329647 1.844475
C -0.270867 -0.085983 -0.483218
H 0.155468 0.847073 -0.827501
H 0.269047 -1.012531 -0.627471
H -1.186378 -0.078304 0.093513
$end
$scan
stre 1 2 2.600000 2.601000 0.100000
$end
--------------------------------------------------------------

    7     -40.3387118536      7.91e-07  Convergence criterion met
 Total energy in the final basis set =      -40.3387118536
    8     -40.3370422321      3.05e-07  Convergence criterion met
 Total energy in the final basis set =      -40.3370422321
    8     -40.3372579974      2.98e-07  Convergence criterion met
 Total energy in the final basis set =      -40.3372579974
    8     -40.3373109716      2.96e-07  Convergence criterion met
 Total energy in the final basis set =      -40.3373109716
    8     -40.3373150056      2.98e-07  Convergence criterion met
 Total energy in the final basis set =      -40.3373150056
    8     -40.3373536888      2.49e-07  Convergence criterion met
 Total energy in the final basis set =      -40.3373536888

             Standard Nuclear Orientation (Angstroms)
    I     Atom           X                Y                Z
 ----------------------------------------------------------------
    1      H       0.9890977052     0.3207308926     1.7725550124
    2      C      -0.2628148030    -0.0843202860    -0.4699102639
    3      H       0.1688370078     0.8497080439    -0.8048797554
    4      H       0.2767850211    -1.0109789259    -0.6147293938
    5      H      -1.1720079312    -0.0752377246     0.1167624007
 ----------------------------------------------------------------

    8     -40.3373543120      2.52e-07  Convergence criterion met
 Total energy in the final basis set =      -40.3373543120

                    Orbital Energies (a.u.)
 --------------------------------------------------------------

 Alpha MOs
 -- Occupied --
-10.190  -0.681  -0.415  -0.415  -0.318  -0.213

 Beta MOs
 -- Occupied --
-10.175  -0.640  -0.405  -0.405

          Ground-State Mulliken Net Atomic Charges

     Atom                 Charge (a.u.)    Spin (a.u.)
  --------------------------------------------------------
      1 H                     0.000119       0.998957
      2 C                    -0.367126       1.144489
      3 H                     0.122262      -0.047818
      4 H                     0.122506      -0.047808
      5 H                     0.122239      -0.047820
  --------------------------------------------------------
  Sum of atomic charges =     0.000000

                    Cartesian Multipole Moments
 -----------------------------------------------------------------
    Charge (ESU x 10^10)
                 0.0000
    Dipole Moment (Debye)
         X       0.0414      Y       0.0080      Z       0.0680
       Tot       0.0800
    Quadrupole Moments (Debye-Ang)
        XX      -8.7810     XY      -0.1231     YY      -8.3209
        XZ      -0.8283     YZ      -0.2034     ZZ      -9.7081

 Final energy is   -40.3373543119624
 **  OPTIMIZATION CONVERGED  **
 Total job time:  15.80s(wall), 158.61s(cpu)
        *  Thank you very much for using Q-Chem.  Have a nice day.  *
