 Q-Chem 5.1, Q-Chem, Inc., Pleasanton, CA (2018)
 Q-Chem 5.1.1 for Intel X86 EM64T Linux

User input:
--------------------------------------------------------------

$comment
potential surface scanner
$end

$rem
JOBTYPE  PES_SCAN
UNRESTRICTED TRUE
SYM_IGNORE  TRUE
GEOM_OPT_MAX_CYCLES 400
SCF_MAX_CYCLES 400
METHOD   B3LYP
BASIS   6-31G**
PDB_PRINT 2
SCF_CONVERGENCE 6
THRESH 14
SCF_PRINT 1
$end
$molecule
0 3
H 0.285853 0.605654 1.029632
C -0.039929 -0.084662 -0.143965
H 0.771889 0.590554 -0.413644
H -0.303852 -0.643683 -1.094031
H -0.714067 -0.467963 0.621810
$end
$scan
stre 1 2 1.300000 1.301000 0.100000
$end
--------------------------------------------------------------

    9     -40.2822348206      1.74e-07  Convergence criterion met
 Total energy in the final basis set =      -40.2822348206
    8     -40.2725319431      8.94e-07  Convergence criterion met
 Total energy in the final basis set =      -40.2725319431
    8     -40.2696998996      4.89e-07  Convergence criterion met
 Total energy in the final basis set =      -40.2696998996
    8     -40.2670509306      5.19e-07  Convergence criterion met
 Total energy in the final basis set =      -40.2670509306
    9     -40.2676786645      3.09e-07  Convergence criterion met
 Total energy in the final basis set =      -40.2676786645
    9     -40.2633314142      5.08e-07  Convergence criterion met
 Total energy in the final basis set =      -40.2633314142
    8     -40.2654069574      9.40e-07  Convergence criterion met
 Total energy in the final basis set =      -40.2654069574
    8     -40.2659499811      6.35e-07  Convergence criterion met
    8     -40.2751526243      8.71e-07  Convergence criterion met
 Total energy in the final basis set =      -40.2751526243
    8     -40.2751684628      8.64e-07  Convergence criterion met
 Total energy in the final basis set =      -40.2751684628
    8     -40.2751808792      8.57e-07  Convergence criterion met
 Total energy in the final basis set =      -40.2751808792
    8     -40.2751847948      8.56e-07  Convergence criterion met
 Total energy in the final basis set =      -40.2751847948
    8     -40.2751857780      8.57e-07  Convergence criterion met
 Total energy in the final basis set =      -40.2751857780
    8     -40.2751491327      8.53e-07  Convergence criterion met
 Total energy in the final basis set =      -40.2751491327

             Standard Nuclear Orientation (Angstroms)
    I     Atom           X                Y                Z
 ----------------------------------------------------------------
    1      H       0.2862417213     0.6038971757     1.0231253935
    2      C      -0.0180288360    -0.0385258726    -0.0653193956
    3      H       0.7981729244     0.5845557995    -0.5077360353
    4      H      -0.2926148618    -0.6165195375    -1.0434084013
    5      H      -0.7738769480    -0.5335075651     0.5931404387
 ----------------------------------------------------------------

    8     -40.2751492287      8.53e-07  Convergence criterion met
 Total energy in the final basis set =      -40.2751492287

                    Orbital Energies (a.u.)
 --------------------------------------------------------------

 Alpha MOs
 -- Occupied --
-10.235  -0.724  -0.482  -0.453  -0.252  -0.149

 Beta MOs
 -- Occupied --
-10.224  -0.669  -0.446  -0.404

          Ground-State Mulliken Net Atomic Charges

     Atom                 Charge (a.u.)    Spin (a.u.)
  --------------------------------------------------------
      1 H                    -0.004901       0.544349
      2 C                    -0.392259       0.961407
      3 H                     0.161643       0.127058
      4 H                     0.073858       0.239897
      5 H                     0.161659       0.127289
  --------------------------------------------------------
  Sum of atomic charges =     0.000000

                    Cartesian Multipole Moments
 -----------------------------------------------------------------
    Charge (ESU x 10^10)
                 0.0000
    Dipole Moment (Debye)
         X      -0.0672      Y      -0.1402      Z      -0.2373
       Tot       0.2837
    Quadrupole Moments (Debye-Ang)
        XX      -8.7471     XY       0.6905     YY      -9.3461
        XZ      -0.8169     YZ      -0.7023     ZZ      -9.5640

 Final energy is   -40.2751492286689
 **  OPTIMIZATION CONVERGED  **
 Total job time:  52.13s(wall), 529.69s(cpu)
        *  Thank you very much for using Q-Chem.  Have a nice day.  *
