 Q-Chem 5.1, Q-Chem, Inc., Pleasanton, CA (2018)
 Q-Chem 5.1.1 for Intel X86 EM64T Linux

User input:
--------------------------------------------------------------

$comment
potential surface scanner
$end

$rem
JOBTYPE  PES_SCAN
UNRESTRICTED TRUE
SYM_IGNORE  TRUE
GEOM_OPT_MAX_CYCLES 400
SCF_MAX_CYCLES 400
METHOD   B3LYP
BASIS   6-31G**
PDB_PRINT 2
SCF_CONVERGENCE 6
THRESH 14
SCF_PRINT 1
$end
$molecule
0 3
H 0.412313 0.870906 1.480861
C -0.100935 -0.213772 -0.363062
H 0.690606 0.523265 -0.389098
H -0.352948 -0.749203 -1.272778
H -0.649140 -0.431295 0.543876
$end
$scan
stre 1 2 2.100000 2.101000 0.100000
$end
--------------------------------------------------------------

    8     -40.3356221586      5.19e-07  Convergence criterion met
 Total energy in the final basis set =      -40.3356221586
    8     -40.3325053297      5.25e-07  Convergence criterion met
 Total energy in the final basis set =      -40.3325053297
    8     -40.3327806184      5.42e-07  Convergence criterion met
 Total energy in the final basis set =      -40.3327806184
    8     -40.3329233639      5.74e-07  Convergence criterion met
 Total energy in the final basis set =      -40.3329233639
    8     -40.3329476322      5.85e-07  Convergence criterion met
 Total energy in the final basis set =      -40.3329476322

             Standard Nuclear Orientation (Angstroms)
    I     Atom           X                Y                Z
 ----------------------------------------------------------------
    1      H       0.3942451959     0.8328150178     1.4157639489
    2      C      -0.0956883671    -0.2027744528    -0.3442138237
    3      H       0.6966019415     0.5329780533    -0.3762592208
    4      H      -0.3479929271    -0.7385548465    -1.2549516857
    5      H      -0.6472698433    -0.4245627717     0.5594597813
 ----------------------------------------------------------------

    8     -40.3329522551      5.78e-07  Convergence criterion met
 Total energy in the final basis set =      -40.3329522551

                    Orbital Energies (a.u.)
 --------------------------------------------------------------

 Alpha MOs
 -- Occupied --
-10.200  -0.694  -0.438  -0.430  -0.275  -0.233

 Beta MOs
 -- Occupied --
-10.184  -0.648  -0.417  -0.413

          Ground-State Mulliken Net Atomic Charges

     Atom                 Charge (a.u.)    Spin (a.u.)
  --------------------------------------------------------
      1 H                    -0.030022       0.959104
      2 C                    -0.361003       1.156708
      3 H                     0.135761      -0.050457
      4 H                     0.119494      -0.014931
      5 H                     0.135769      -0.050424
  --------------------------------------------------------
  Sum of atomic charges =     0.000000

                    Cartesian Multipole Moments
 -----------------------------------------------------------------
    Charge (ESU x 10^10)
                 0.0000
    Dipole Moment (Debye)
         X      -0.0876      Y      -0.1831      Z      -0.3127
       Tot       0.3728
    Quadrupole Moments (Debye-Ang)
        XX      -8.9469     XY       0.6989     YY      -9.2523
        XZ      -0.4820     YZ      -0.1614     ZZ      -8.9693

 Final energy is   -40.3329522551023
 **  OPTIMIZATION CONVERGED  **
 Total job time:  13.89s(wall), 137.67s(cpu)
        *  Thank you very much for using Q-Chem.  Have a nice day.  *
