 Q-Chem 5.1, Q-Chem, Inc., Pleasanton, CA (2018)
 Q-Chem 5.1.1 for Intel X86 EM64T Linux

User input:
--------------------------------------------------------------

$comment
potential surface scanner
$end

$rem
JOBTYPE  PES_SCAN
UNRESTRICTED TRUE
SYM_IGNORE  TRUE
GEOM_OPT_MAX_CYCLES 400
SCF_MAX_CYCLES 400
METHOD   B3LYP
BASIS   6-31G**
PDB_PRINT 2
SCF_CONVERGENCE 6
THRESH 14
SCF_PRINT 1
$end
$molecule
0 1
H 0.967808 0.294824 1.713044
C -0.199681 -0.060861 -0.353464
H 0.143981 0.842569 -0.837727
H 0.279626 -0.998645 -0.597706
H -1.191835 -0.077991 0.075653
$end
$scan
stre 1 2 2.500000 2.501000 0.100000
$end
--------------------------------------------------------------

    9     -40.3504863484      2.11e-07  Convergence criterion met
 Total energy in the final basis set =      -40.3504863484
    9     -40.3417142467      4.66e-07  Convergence criterion met
 Total energy in the final basis set =      -40.3417142467
    9     -40.3415568438      4.51e-07  Convergence criterion met
 Total energy in the final basis set =      -40.3415568438

             Standard Nuclear Orientation (Angstroms)
    I     Atom           X                Y                Z
 ----------------------------------------------------------------
    1      H       1.0025702621     0.3054795118     1.7746425147
    2      C      -0.2135243365    -0.0650933446    -0.3779811481
    3      H       0.1375111857     0.8415339055    -0.8505036483
    4      H       0.2732372265    -1.0018962405    -0.6103260676
    5      H      -1.1998953379    -0.0801278322     0.0639683493
 ----------------------------------------------------------------

    9     -40.3415610696      4.35e-07  Convergence criterion met
 Total energy in the final basis set =      -40.3415610696

                    Orbital Energies (a.u.)
 --------------------------------------------------------------

 Alpha MOs
 -- Occupied --
-10.245  -0.696  -0.441  -0.441  -0.234

 Beta MOs
 -- Occupied --
-10.245  -0.696  -0.441  -0.441  -0.234

          Ground-State Mulliken Net Atomic Charges

     Atom                 Charge (a.u.)    Spin (a.u.)
  --------------------------------------------------------
      1 H                    -0.143549       0.000000
      2 C                    -0.331100      -0.000000
      3 H                     0.158222      -0.000000
      4 H                     0.158210       0.000000
      5 H                     0.158218       0.000000
  --------------------------------------------------------
  Sum of atomic charges =     0.000000

                    Cartesian Multipole Moments
 -----------------------------------------------------------------
    Charge (ESU x 10^10)
                 0.0000
    Dipole Moment (Debye)
         X      -0.9278      Y      -0.2826      Z      -1.6421
       Tot       1.9072
    Quadrupole Moments (Debye-Ang)
        XX      -8.8885     XY      -0.2022     YY      -8.2857
        XZ      -1.1756     YZ      -0.3577     ZZ     -10.3040

 Final energy is   -40.3415610695993
 **  OPTIMIZATION CONVERGED  **
 Total job time:  10.02s(wall), 98.87s(cpu)
        *  Thank you very much for using Q-Chem.  Have a nice day.  *
