 Q-Chem 5.1, Q-Chem, Inc., Pleasanton, CA (2018)
 Q-Chem 5.1.1 for Intel X86 EM64T Linux

User input:
--------------------------------------------------------------

$comment
potential surface scanner
$end

$rem
JOBTYPE  PES_SCAN
UNRESTRICTED TRUE
SYM_IGNORE  TRUE
GEOM_OPT_MAX_CYCLES 400
SCF_MAX_CYCLES 400
METHOD   B3LYP
BASIS   6-31G**
PDB_PRINT 2
SCF_CONVERGENCE 6
THRESH 14
SCF_PRINT 1
$end
$molecule
0 1
H 1.109612 0.338262 1.964028
C -0.252463 -0.076992 -0.446847
H 0.115879 0.836737 -0.891321
H 0.251667 -1.011004 -0.651014
H -1.224795 -0.087106 0.024954
$end
$scan
stre 1 2 2.900000 2.901000 0.100000
$end
--------------------------------------------------------------

   10     -40.3191874458      3.29e-07  Convergence criterion met
 Total energy in the final basis set =      -40.3191874458
   10     -40.3124520555      1.46e-07  Convergence criterion met
 Total energy in the final basis set =      -40.3124520555
   10     -40.3127220505      1.90e-07  Convergence criterion met
 Total energy in the final basis set =      -40.3127220505
   10     -40.3129602982      1.73e-07  Convergence criterion met
 Total energy in the final basis set =      -40.3129602982
   10     -40.3129695804      1.79e-07  Convergence criterion met
 Total energy in the final basis set =      -40.3129695804
   10     -40.3129861191      1.72e-07  Convergence criterion met
 Total energy in the final basis set =      -40.3129861191
   10     -40.3129894039      1.60e-07  Convergence criterion met
 Total energy in the final basis set =      -40.3129894039

             Standard Nuclear Orientation (Angstroms)
    I     Atom           X                Y                Z
 ----------------------------------------------------------------
    1      H       1.1461445468     0.3494673616     2.0286193120
    2      C      -0.2646158840    -0.0807119444    -0.4683189671
    3      H       0.1080422056     0.8347476297    -0.9057683287
    4      H       0.2437831826    -1.0139945900    -0.6655415124
    5      H      -1.2334540510    -0.0896114569     0.0108094963
 ----------------------------------------------------------------

   10     -40.3129898616      1.55e-07  Convergence criterion met
 Total energy in the final basis set =      -40.3129898616

                    Orbital Energies (a.u.)
 --------------------------------------------------------------

 Alpha MOs
 -- Occupied --
-10.251  -0.702  -0.448  -0.448  -0.220

 Beta MOs
 -- Occupied --
-10.251  -0.702  -0.448  -0.448  -0.220

          Ground-State Mulliken Net Atomic Charges

     Atom                 Charge (a.u.)    Spin (a.u.)
  --------------------------------------------------------
      1 H                    -0.158595       0.000000
      2 C                    -0.331668      -0.000000
      3 H                     0.163438       0.000000
      4 H                     0.163399       0.000000
      5 H                     0.163426       0.000000
  --------------------------------------------------------
  Sum of atomic charges =    -0.000000

                    Cartesian Multipole Moments
 -----------------------------------------------------------------
    Charge (ESU x 10^10)
                -0.0000
    Dipole Moment (Debye)
         X      -1.1267      Y      -0.3434      Z      -1.9943
       Tot       2.3161
    Quadrupole Moments (Debye-Ang)
        XX      -9.1788     XY      -0.3024     YY      -8.2769
        XZ      -1.7596     YZ      -0.5354     ZZ     -11.2985

 Final energy is   -40.3129898616097
 **  OPTIMIZATION CONVERGED  **
 Total job time:  21.60s(wall), 213.80s(cpu)
        *  Thank you very much for using Q-Chem.  Have a nice day.  *
