 Q-Chem 5.1, Q-Chem, Inc., Pleasanton, CA (2018)
 Q-Chem 5.1.1 for Intel X86 EM64T Linux

User input:
--------------------------------------------------------------

$comment
potential surface scanner
$end

$rem
JOBTYPE  PES_SCAN
UNRESTRICTED TRUE
SYM_IGNORE  TRUE
GEOM_OPT_MAX_CYCLES 400
SCF_MAX_CYCLES 400
METHOD   B3LYP
BASIS   6-31G**
PDB_PRINT 2
SCF_CONVERGENCE 6
THRESH 14
SCF_PRINT 1
$end
$molecule
0 3
H 1.358431 0.417715 2.408592
C -0.341624 -0.105160 -0.605777
H 0.065616 0.823063 -0.984314
H 0.195877 -1.032413 -0.754331
H -1.278401 -0.103305 -0.064370
$end
$scan
stre 1 2 3.400000 3.401000 0.100000
$end
--------------------------------------------------------------

    7     -40.3426592917      8.80e-07  Convergence criterion met
 Total energy in the final basis set =      -40.3426592917
    8     -40.3421668880      2.95e-07  Convergence criterion met
 Total energy in the final basis set =      -40.3421668880
    8     -40.3423952029      3.00e-07  Convergence criterion met
 Total energy in the final basis set =      -40.3423952029
    8     -40.3424703328      2.95e-07  Convergence criterion met
 Total energy in the final basis set =      -40.3424703328
    8     -40.3424732790      2.90e-07  Convergence criterion met
 Total energy in the final basis set =      -40.3424732790
    7     -40.3425011312      8.58e-07  Convergence criterion met
 Total energy in the final basis set =      -40.3425011312

             Standard Nuclear Orientation (Angstroms)
    I     Atom           X                Y                Z
 ----------------------------------------------------------------
    1      H       1.3187729867     0.4062253951     2.3391398250
    2      C      -0.3321855584    -0.1024438792    -0.5892716230
    3      H       0.0759634334     0.8260801814    -0.9661193829
    4      H       0.2052241402    -1.0297337550    -0.7379799242
    5      H      -1.2678760020    -0.1002279423    -0.0459688950
 ----------------------------------------------------------------

    7     -40.3425014645      9.23e-07  Convergence criterion met
 Total energy in the final basis set =      -40.3425014645

                    Orbital Energies (a.u.)
 --------------------------------------------------------------

 Alpha MOs
 -- Occupied --
-10.191  -0.681  -0.415  -0.415  -0.313  -0.223

 Beta MOs
 -- Occupied --
-10.177  -0.640  -0.405  -0.405

          Ground-State Mulliken Net Atomic Charges

     Atom                 Charge (a.u.)    Spin (a.u.)
  --------------------------------------------------------
      1 H                     0.000328       0.999568
      2 C                    -0.367794       1.145513
      3 H                     0.122482      -0.048358
      4 H                     0.122502      -0.048361
      5 H                     0.122482      -0.048362
  --------------------------------------------------------
  Sum of atomic charges =     0.000000

                    Cartesian Multipole Moments
 -----------------------------------------------------------------
    Charge (ESU x 10^10)
                -0.0000
    Dipole Moment (Debye)
         X       0.0096      Y       0.0029      Z       0.0170
       Tot       0.0197
    Quadrupole Moments (Debye-Ang)
        XX      -8.6793     XY      -0.1115     YY      -8.3218
        XZ      -0.6780     YZ      -0.1927     ZZ      -9.4762

 Final energy is   -40.3425014644925
 **  OPTIMIZATION CONVERGED  **
 Total job time:  16.06s(wall), 156.42s(cpu)
        *  Thank you very much for using Q-Chem.  Have a nice day.  *
