 Q-Chem 5.1, Q-Chem, Inc., Pleasanton, CA (2018)
 Q-Chem 5.1.1 for Intel X86 EM64T Linux

User input:
--------------------------------------------------------------

$comment
potential surface scanner
$end

$rem
JOBTYPE  PES_SCAN
UNRESTRICTED TRUE
SYM_IGNORE  TRUE
GEOM_OPT_MAX_CYCLES 400
SCF_MAX_CYCLES 400
METHOD   B3LYP
BASIS   6-31G**
PDB_PRINT 2
SCF_CONVERGENCE 6
THRESH 14
SCF_PRINT 1
$end
$molecule
0 1
H 0.528800 0.161000 0.935900
C 0.000000 0.000000 0.000000
H 0.205100 0.824000 -0.678600
H 0.334500 -0.931400 -0.449600
H -1.068500 -0.053700 0.192100
$end
$scan
stre 1 2 0.900000 0.901000 0.100000
$end
--------------------------------------------------------------

    6     -40.5239421989      2.32e-07  Convergence criterion met
 Total energy in the final basis set =      -40.5239421989
    7     -40.5032411225      1.27e-07  Convergence criterion met
 Total energy in the final basis set =      -40.5032411225
    7     -40.4903806061      1.41e-07  Convergence criterion met
 Total energy in the final basis set =      -40.4903806061
    7     -40.4901251174      1.43e-07  Convergence criterion met
 Total energy in the final basis set =      -40.4901251174

             Standard Nuclear Orientation (Angstroms)
    I     Atom           X                Y                Z
 ----------------------------------------------------------------
    1      H       0.4628964754     0.1409792534     0.8193610204
    2      C       0.0251215734     0.0076399818     0.0443940702
    3      H       0.2178369563     0.8260982588    -0.6537074473
    4      H       0.3468857809    -0.9252326607    -0.4252695730
    5      H      -1.0528407860    -0.0495848334     0.2150219297
 ----------------------------------------------------------------

    7     -40.4901242716      1.43e-07  Convergence criterion met
 Total energy in the final basis set =      -40.4901242716

                    Orbital Energies (a.u.)
 --------------------------------------------------------------

 Alpha MOs
 -- Occupied --
-10.148  -0.710  -0.421  -0.385  -0.385

 Beta MOs
 -- Occupied --
-10.148  -0.710  -0.421  -0.385  -0.385

          Ground-State Mulliken Net Atomic Charges

     Atom                 Charge (a.u.)    Spin (a.u.)
  --------------------------------------------------------
      1 H                     0.133374      -0.000000
      2 C                    -0.463718       0.000000
      3 H                     0.110118      -0.000000
      4 H                     0.110122      -0.000000
      5 H                     0.110105      -0.000000
  --------------------------------------------------------
  Sum of atomic charges =    -0.000000

                    Cartesian Multipole Moments
 -----------------------------------------------------------------
    Charge (ESU x 10^10)
                -0.0000
    Dipole Moment (Debye)
         X       0.0292      Y       0.0089      Z       0.0517
       Tot       0.0601
    Quadrupole Moments (Debye-Ang)
        XX      -8.1053     XY      -0.0000     YY      -8.1049
        XZ      -0.0005     YZ      -0.0001     ZZ      -8.1053

 Final energy is   -40.4901242716241
 **  OPTIMIZATION CONVERGED  **
 Total job time:  14.26s(wall), 125.55s(cpu)
        *  Thank you very much for using Q-Chem.  Have a nice day.  *
