 Q-Chem 5.1, Q-Chem, Inc., Pleasanton, CA (2018)
 Q-Chem 5.1.1 for Intel X86 EM64T Linux

User input:
--------------------------------------------------------------

$comment
potential surface scanner
$end

$rem
JOBTYPE  PES_SCAN
UNRESTRICTED TRUE
SYM_IGNORE  TRUE
GEOM_OPT_MAX_CYCLES 400
SCF_MAX_CYCLES 400
METHOD   B3LYP
BASIS   6-31G**
PDB_PRINT 2
SCF_CONVERGENCE 6
THRESH 14
SCF_PRINT 1
$end
$molecule
0 3
H 0.394245 0.832815 1.415764
C -0.095688 -0.202774 -0.344214
H 0.696602 0.532978 -0.376259
H -0.347993 -0.738555 -1.254952
H -0.647270 -0.424563 0.559460
$end
$scan
stre 1 2 2.000000 2.001000 0.100000
$end
--------------------------------------------------------------

    8     -40.3329522498      5.78e-07  Convergence criterion met
 Total energy in the final basis set =      -40.3329522498
    8     -40.3291253592      5.41e-07  Convergence criterion met
 Total energy in the final basis set =      -40.3291253592
    8     -40.3293629684      5.55e-07  Convergence criterion met
 Total energy in the final basis set =      -40.3293629684
    8     -40.3294818084      5.82e-07  Convergence criterion met
 Total energy in the final basis set =      -40.3294818084
    8     -40.3295047012      5.98e-07  Convergence criterion met
 Total energy in the final basis set =      -40.3295047012

             Standard Nuclear Orientation (Angstroms)
    I     Atom           X                Y                Z
 ----------------------------------------------------------------
    1      H       0.3761514744     0.7949834158     1.3514126609
    2      C      -0.0902491133    -0.1913463618    -0.3247812826
    3      H       0.7030413914     0.5426068676    -0.3647682310
    4      H      -0.3430303437    -0.7277666341    -1.2367898151
    5      H      -0.6460174089    -0.4185762874     0.5747256678
 ----------------------------------------------------------------

    8     -40.3295093815      6.00e-07  Convergence criterion met
 Total energy in the final basis set =      -40.3295093815

                    Orbital Energies (a.u.)
 --------------------------------------------------------------

 Alpha MOs
 -- Occupied --
-10.202  -0.698  -0.443  -0.434  -0.264  -0.235

 Beta MOs
 -- Occupied --
-10.186  -0.651  -0.420  -0.415

          Ground-State Mulliken Net Atomic Charges

     Atom                 Charge (a.u.)    Spin (a.u.)
  --------------------------------------------------------
      1 H                    -0.040074       0.950206
      2 C                    -0.360184       1.155730
      3 H                     0.140784      -0.049715
      4 H                     0.118690      -0.006533
      5 H                     0.140783      -0.049688
  --------------------------------------------------------
  Sum of atomic charges =     0.000000

                    Cartesian Multipole Moments
 -----------------------------------------------------------------
    Charge (ESU x 10^10)
                 0.0000
    Dipole Moment (Debye)
         X      -0.1078      Y      -0.2260      Z      -0.3858
       Tot       0.4599
    Quadrupole Moments (Debye-Ang)
        XX      -8.9213     XY       0.6936     YY      -9.2821
        XZ      -0.5442     YZ      -0.2660     ZZ      -9.1002

 Final energy is   -40.3295093815241
 **  OPTIMIZATION CONVERGED  **
 Total job time:  13.70s(wall), 136.66s(cpu)
        *  Thank you very much for using Q-Chem.  Have a nice day.  *
