 Q-Chem 5.1, Q-Chem, Inc., Pleasanton, CA (2018)
 Q-Chem 5.1.1 for Intel X86 EM64T Linux

User input:
--------------------------------------------------------------

$comment
potential surface scanner
$end

$rem
JOBTYPE  PES_SCAN
UNRESTRICTED TRUE
SYM_IGNORE  TRUE
GEOM_OPT_MAX_CYCLES 400
SCF_MAX_CYCLES 400
METHOD   B3LYP
BASIS   6-31G**
PDB_PRINT 2
SCF_CONVERGENCE 6
THRESH 14
SCF_PRINT 1
$end
$molecule
0 1
H 0.528800 0.161000 0.935900
C 0.000000 0.000000 0.000000
H 0.205100 0.824000 -0.678600
H 0.334500 -0.931400 -0.449600
H -1.068500 -0.053700 0.192100
$end
$scan
stre 1 2 1.000000 1.001000 0.100000
$end
--------------------------------------------------------------

    6     -40.5239421989      2.32e-07  Convergence criterion met
 Total energy in the final basis set =      -40.5239421989
    7     -40.5179096803      1.17e-07  Convergence criterion met
 Total energy in the final basis set =      -40.5179096803
    7     -40.5177459621      1.26e-07  Convergence criterion met
 Total energy in the final basis set =      -40.5177459621

             Standard Nuclear Orientation (Angstroms)
    I     Atom           X                Y                Z
 ----------------------------------------------------------------
    1      H       0.4988500561     0.1519073553     0.8829300164
    2      C       0.0123635916     0.0037801159     0.0218903888
    3      H       0.2114271501     0.8267344828    -0.6686544881
    4      H       0.3409172633    -0.9305756469    -0.4394249732
    5      H      -1.0636580611    -0.0519463071     0.2030590560
 ----------------------------------------------------------------

    7     -40.5177480823      1.30e-07  Convergence criterion met
 Total energy in the final basis set =      -40.5177480823

                    Orbital Energies (a.u.)
 --------------------------------------------------------------

 Alpha MOs
 -- Occupied --
-10.158  -0.698  -0.404  -0.386  -0.386

 Beta MOs
 -- Occupied --
-10.158  -0.698  -0.404  -0.386  -0.386

          Ground-State Mulliken Net Atomic Charges

     Atom                 Charge (a.u.)    Spin (a.u.)
  --------------------------------------------------------
      1 H                     0.130479       0.000000
      2 C                    -0.473072      -0.000000
      3 H                     0.114202       0.000000
      4 H                     0.114197       0.000000
      5 H                     0.114195      -0.000000
  --------------------------------------------------------
  Sum of atomic charges =    -0.000000

                    Cartesian Multipole Moments
 -----------------------------------------------------------------
    Charge (ESU x 10^10)
                -0.0000
    Dipole Moment (Debye)
         X       0.0197      Y       0.0059      Z       0.0348
       Tot       0.0404
    Quadrupole Moments (Debye-Ang)
        XX      -8.1836     XY       0.0008     YY      -8.1859
        XZ       0.0041     YZ       0.0012     ZZ      -8.1784

 Final energy is   -40.5177480822975
 **  OPTIMIZATION CONVERGED  **
 Total job time:  11.69s(wall), 98.70s(cpu)
        *  Thank you very much for using Q-Chem.  Have a nice day.  *
