 Q-Chem 5.1, Q-Chem, Inc., Pleasanton, CA (2018)
 Q-Chem 5.1.1 for Intel X86 EM64T Linux

User input:
--------------------------------------------------------------

$comment
potential surface scanner
$end

$rem
JOBTYPE  PES_SCAN
UNRESTRICTED TRUE
SYM_IGNORE  TRUE
GEOM_OPT_MAX_CYCLES 400
SCF_MAX_CYCLES 400
METHOD   B3LYP
BASIS   6-31G**
PDB_PRINT 2
SCF_CONVERGENCE 6
THRESH 14
SCF_PRINT 1
$end
$molecule
0 1
H 0.866082 0.263723 1.532703
C -0.155638 -0.047414 -0.275413
H 0.161067 0.843492 -0.801558
H 0.296087 -0.987767 -0.562652
H -1.167699 -0.072138 0.106720
$end
$scan
stre 1 2 2.200000 2.201000 0.100000
$end
--------------------------------------------------------------

    8     -40.3825841756      2.36e-07  Convergence criterion met
 Total energy in the final basis set =      -40.3825841756
    8     -40.3711475001      1.07e-07  Convergence criterion met
 Total energy in the final basis set =      -40.3711475001
    8     -40.3709284536      1.05e-07  Convergence criterion met
 Total energy in the final basis set =      -40.3709284536

             Standard Nuclear Orientation (Angstroms)
    I     Atom           X                Y                Z
 ----------------------------------------------------------------
    1      H       0.8996016569     0.2739471153     1.5921014962
    2      C      -0.1707220377    -0.0520138163    -0.3021409365
    3      H       0.1557590970     0.8435806001    -0.8132819051
    4      H       0.2910641242    -0.9916151253    -0.5738780104
    5      H      -1.1758038404    -0.0740027738     0.0969993558
 ----------------------------------------------------------------

    8     -40.3709346100      1.06e-07  Convergence criterion met
 Total energy in the final basis set =      -40.3709346100

                    Orbital Energies (a.u.)
 --------------------------------------------------------------

 Alpha MOs
 -- Occupied --
-10.238  -0.690  -0.432  -0.432  -0.250

 Beta MOs
 -- Occupied --
-10.238  -0.690  -0.432  -0.432  -0.250

          Ground-State Mulliken Net Atomic Charges

     Atom                 Charge (a.u.)    Spin (a.u.)
  --------------------------------------------------------
      1 H                    -0.116955       0.000000
      2 C                    -0.339645       0.000000
      3 H                     0.152204      -0.000000
      4 H                     0.152203       0.000000
      5 H                     0.152192      -0.000000
  --------------------------------------------------------
  Sum of atomic charges =     0.000000

                    Cartesian Multipole Moments
 -----------------------------------------------------------------
    Charge (ESU x 10^10)
                 0.0000
    Dipole Moment (Debye)
         X      -0.7368      Y      -0.2244      Z      -1.3040
       Tot       1.5145
    Quadrupole Moments (Debye-Ang)
        XX      -8.7235     XY      -0.1366     YY      -8.3169
        XZ      -0.7935     YZ      -0.2416     ZZ      -9.6795

 Final energy is   -40.3709346100159
 **  OPTIMIZATION CONVERGED  **
 Total job time:  9.26s(wall), 90.61s(cpu)
        *  Thank you very much for using Q-Chem.  Have a nice day.  *
