 Q-Chem 5.1, Q-Chem, Inc., Pleasanton, CA (2018)
 Q-Chem 5.1.1 for Intel X86 EM64T Linux

User input:
--------------------------------------------------------------

$comment
potential surface scanner
$end

$rem
JOBTYPE  PES_SCAN
UNRESTRICTED TRUE
SYM_IGNORE  TRUE
GEOM_OPT_MAX_CYCLES 400
SCF_MAX_CYCLES 400
METHOD   B3LYP
BASIS   6-31G**
PDB_PRINT 2
SCF_CONVERGENCE 6
THRESH 14
SCF_PRINT 1
$end
$molecule
0 3
H 1.116918 0.350036 1.987506
C -0.287424 -0.090016 -0.511330
H 0.130849 0.841278 -0.869873
H 0.251738 -1.016777 -0.656913
H -1.212183 -0.084620 0.050409
$end
$scan
stre 1 2 2.800000 2.801000 0.100000
$end
--------------------------------------------------------------

    7     -40.3405655024      9.22e-07  Convergence criterion met
 Total energy in the final basis set =      -40.3405655024
    8     -40.3394265939      3.22e-07  Convergence criterion met
 Total energy in the final basis set =      -40.3394265939
    8     -40.3396572927      3.14e-07  Convergence criterion met
 Total energy in the final basis set =      -40.3396572927
    8     -40.3397213315      3.09e-07  Convergence criterion met
 Total energy in the final basis set =      -40.3397213315
    8     -40.3397247361      3.09e-07  Convergence criterion met
 Total energy in the final basis set =      -40.3397247361
    7     -40.3397586382      8.21e-07  Convergence criterion met
 Total energy in the final basis set =      -40.3397586382

             Standard Nuclear Orientation (Angstroms)
    I     Atom           X                Y                Z
 ----------------------------------------------------------------
    1      H       1.0751442745     0.3395170049     1.9161483373
    2      C      -0.2790569007    -0.0878993260    -0.4970355611
    3      H       0.1428562074     0.8442334667    -0.8491088240
    4      H       0.2606184642    -1.0145078236    -0.6416999189
    5      H      -1.1996640454    -0.0814423221     0.0714949667
 ----------------------------------------------------------------

    7     -40.3397589433      8.31e-07  Convergence criterion met
 Total energy in the final basis set =      -40.3397589433

                    Orbital Energies (a.u.)
 --------------------------------------------------------------

 Alpha MOs
 -- Occupied --
-10.190  -0.681  -0.415  -0.415  -0.316  -0.217

 Beta MOs
 -- Occupied --
-10.176  -0.640  -0.405  -0.405

          Ground-State Mulliken Net Atomic Charges

     Atom                 Charge (a.u.)    Spin (a.u.)
  --------------------------------------------------------
      1 H                     0.000472       0.999028
      2 C                    -0.366927       1.145105
      3 H                     0.122113      -0.048048
      4 H                     0.122242      -0.048035
      5 H                     0.122101      -0.048050
  --------------------------------------------------------
  Sum of atomic charges =     0.000000

                    Cartesian Multipole Moments
 -----------------------------------------------------------------
    Charge (ESU x 10^10)
                 0.0000
    Dipole Moment (Debye)
         X       0.0311      Y       0.0075      Z       0.0528
       Tot       0.0617
    Quadrupole Moments (Debye-Ang)
        XX      -8.7366     XY      -0.1182     YY      -8.3212
        XZ      -0.7629     YZ      -0.1988     ZZ      -9.6081

 Final energy is   -40.3397589433117
 **  OPTIMIZATION CONVERGED  **
 Total job time:  17.34s(wall), 156.46s(cpu)
        *  Thank you very much for using Q-Chem.  Have a nice day.  *
