 Q-Chem 5.1, Q-Chem, Inc., Pleasanton, CA (2018)
 Q-Chem 5.1.1 for Intel X86 EM64T Linux

User input:
--------------------------------------------------------------

$comment
potential surface scanner
$end

$rem
JOBTYPE  PES_SCAN
UNRESTRICTED TRUE
SYM_IGNORE  TRUE
GEOM_OPT_MAX_CYCLES 400
SCF_MAX_CYCLES 400
METHOD   B3LYP
BASIS   6-31G**
PDB_PRINT 2
SCF_CONVERGENCE 6
THRESH 14
SCF_PRINT 1
$end
$molecule
0 3
H 1.555737 0.474940 2.755149
C -0.389284 -0.118831 -0.689314
H 0.014061 0.807932 -1.075278
H 0.149338 -1.045671 -0.835880
H -1.329952 -0.118470 -0.154876
$end
$scan
stre 1 2 3.900000 3.901000 0.100000
$end
--------------------------------------------------------------

    7     -40.3430158099      7.47e-07  Convergence criterion met
 Total energy in the final basis set =      -40.3430158099
    8     -40.3426658798      3.12e-07  Convergence criterion met
 Total energy in the final basis set =      -40.3426658798
    8     -40.3428732110      3.07e-07  Convergence criterion met
 Total energy in the final basis set =      -40.3428732110
    8     -40.3429438597      3.01e-07  Convergence criterion met
 Total energy in the final basis set =      -40.3429438597
    8     -40.3429468338      3.01e-07  Convergence criterion met
 Total energy in the final basis set =      -40.3429468338
    7     -40.3429743941      7.41e-07  Convergence criterion met
 Total energy in the final basis set =      -40.3429743941

             Standard Nuclear Orientation (Angstroms)
    I     Atom           X                Y                Z
 ----------------------------------------------------------------
    1      H       1.5165086225     0.4634649801     2.6861407867
    2      C      -0.3795454433    -0.1160438179    -0.6723038846
    3      H       0.0241437554     0.8110019417    -1.0573800784
    4      H       0.1586348146    -1.0430847148    -0.8195673768
    5      H      -1.3198417492    -0.1154383891    -0.1370884469
 ----------------------------------------------------------------

    7     -40.3429745513      7.54e-07  Convergence criterion met
 Total energy in the final basis set =      -40.3429745513

                    Orbital Energies (a.u.)
 --------------------------------------------------------------

 Alpha MOs
 -- Occupied --
-10.192  -0.681  -0.415  -0.415  -0.314  -0.224

 Beta MOs
 -- Occupied --
-10.178  -0.640  -0.405  -0.405

          Ground-State Mulliken Net Atomic Charges

     Atom                 Charge (a.u.)    Spin (a.u.)
  --------------------------------------------------------
      1 H                     0.000106       0.999870
      2 C                    -0.368073       1.145478
      3 H                     0.122659      -0.048447
      4 H                     0.122656      -0.048453
      5 H                     0.122652      -0.048448
  --------------------------------------------------------
  Sum of atomic charges =     0.000000

                    Cartesian Multipole Moments
 -----------------------------------------------------------------
    Charge (ESU x 10^10)
                 0.0000
    Dipole Moment (Debye)
         X       0.0019      Y       0.0006      Z       0.0033
       Tot       0.0038
    Quadrupole Moments (Debye-Ang)
        XX      -8.6690     XY      -0.1131     YY      -8.3242
        XZ      -0.6658     YZ      -0.1986     ZZ      -9.4634

 Final energy is   -40.3429745513265
 **  OPTIMIZATION CONVERGED  **
 Total job time:  15.43s(wall), 154.13s(cpu)
        *  Thank you very much for using Q-Chem.  Have a nice day.  *
