 Q-Chem 5.1, Q-Chem, Inc., Pleasanton, CA (2018)
 Q-Chem 5.1.1 for Intel X86 EM64T Linux

User input:
--------------------------------------------------------------

$comment
potential surface scanner
$end

$rem
JOBTYPE  PES_SCAN
UNRESTRICTED TRUE
SYM_IGNORE  TRUE
GEOM_OPT_MAX_CYCLES 400
SCF_MAX_CYCLES 400
METHOD   B3LYP
BASIS   6-31G**
PDB_PRINT 2
SCF_CONVERGENCE 6
THRESH 14
SCF_PRINT 1
$end
$molecule
0 3
H 1.075144 0.339517 1.916148
C -0.279057 -0.087899 -0.497036
H 0.142856 0.844233 -0.849109
H 0.260618 -1.014508 -0.641700
H -1.199664 -0.081442 0.071495
$end
$scan
stre 1 2 2.700000 2.701000 0.100000
$end
--------------------------------------------------------------

    7     -40.3397589430      8.31e-07  Convergence criterion met
 Total energy in the final basis set =      -40.3397589430
    8     -40.3383882458      3.17e-07  Convergence criterion met
 Total energy in the final basis set =      -40.3383882458
    8     -40.3386128793      3.09e-07  Convergence criterion met
 Total energy in the final basis set =      -40.3386128793
    8     -40.3386717592      3.05e-07  Convergence criterion met
 Total energy in the final basis set =      -40.3386717592
    8     -40.3386754226      3.07e-07  Convergence criterion met
 Total energy in the final basis set =      -40.3386754226
    7     -40.3387114487      7.94e-07  Convergence criterion met
 Total energy in the final basis set =      -40.3387114487

             Standard Nuclear Orientation (Angstroms)
    I     Atom           X                Y                Z
 ----------------------------------------------------------------
    1      H       1.0326268653     0.3296471448     1.8444754825
    2      C      -0.2708665910    -0.0859828471    -0.4832183372
    3      H       0.1554675350     0.8470726038    -0.8275008310
    4      H       0.2690468149    -1.0125314670    -0.6274708355
    5      H      -1.1863776241    -0.0783044344     0.0935125212
 ----------------------------------------------------------------

    7     -40.3387118589      7.91e-07  Convergence criterion met
 Total energy in the final basis set =      -40.3387118589

                    Orbital Energies (a.u.)
 --------------------------------------------------------------

 Alpha MOs
 -- Occupied --
-10.190  -0.681  -0.415  -0.415  -0.317  -0.215

 Beta MOs
 -- Occupied --
-10.175  -0.640  -0.405  -0.405

          Ground-State Mulliken Net Atomic Charges

     Atom                 Charge (a.u.)    Spin (a.u.)
  --------------------------------------------------------
      1 H                     0.000351       0.998976
      2 C                    -0.366939       1.144849
      3 H                     0.122142      -0.047946
      4 H                     0.122320      -0.047932
      5 H                     0.122126      -0.047948
  --------------------------------------------------------
  Sum of atomic charges =    -0.000000

                    Cartesian Multipole Moments
 -----------------------------------------------------------------
    Charge (ESU x 10^10)
                -0.0000
    Dipole Moment (Debye)
         X       0.0362      Y       0.0080      Z       0.0606
       Tot       0.0711
    Quadrupole Moments (Debye-Ang)
        XX      -8.7567     XY      -0.1206     YY      -8.3212
        XZ      -0.7927     YZ      -0.2012     ZZ      -9.6541

 Final energy is   -40.3387118588910
 **  OPTIMIZATION CONVERGED  **
 Total job time:  15.66s(wall), 155.57s(cpu)
        *  Thank you very much for using Q-Chem.  Have a nice day.  *
