 Q-Chem 5.1, Q-Chem, Inc., Pleasanton, CA (2018)
 Q-Chem 5.1.1 for Intel X86 EM64T Linux

User input:
--------------------------------------------------------------

$comment
potential surface scanner
$end

$rem
JOBTYPE  PES_SCAN
UNRESTRICTED TRUE
SYM_IGNORE  TRUE
GEOM_OPT_MAX_CYCLES 400
SCF_MAX_CYCLES 400
METHOD   B3LYP
BASIS   6-31G**
PDB_PRINT 2
SCF_CONVERGENCE 6
THRESH 14
SCF_PRINT 1
$end
$molecule
0 3
H 1.437715 0.440636 2.547649
C -0.360424 -0.110545 -0.638712
H 0.044786 0.817009 -1.021002
H 0.177170 -1.037765 -0.787069
H -1.299348 -0.109435 -0.101065
$end
$scan
stre 1 2 3.600000 3.601000 0.100000
$end
--------------------------------------------------------------

    7     -40.3428616975      7.97e-07  Convergence criterion met
 Total energy in the final basis set =      -40.3428616975
    8     -40.3424488968      3.06e-07  Convergence criterion met
 Total energy in the final basis set =      -40.3424488968
    8     -40.3426706692      3.06e-07  Convergence criterion met
 Total energy in the final basis set =      -40.3426706692
    8     -40.3427446564      3.00e-07  Convergence criterion met
 Total energy in the final basis set =      -40.3427446564
    8     -40.3427476461      2.98e-07  Convergence criterion met
 Total energy in the final basis set =      -40.3427476461
    7     -40.3427760289      7.90e-07  Convergence criterion met
 Total energy in the final basis set =      -40.3427760289

             Standard Nuclear Orientation (Angstroms)
    I     Atom           X                Y                Z
 ----------------------------------------------------------------
    1      H       1.3980982984     0.4291981038     2.4780914089
    2      C      -0.3510373583    -0.1078613284    -0.6222462758
    3      H       0.0552398316     0.8200418177    -1.0025749930
    4      H       0.1865180142    -1.0350930651    -0.7706966136
    5      H      -1.2889197860    -0.1063855280    -0.0827725265
 ----------------------------------------------------------------

    7     -40.3427762867      8.38e-07  Convergence criterion met
 Total energy in the final basis set =      -40.3427762867

                    Orbital Energies (a.u.)
 --------------------------------------------------------------

 Alpha MOs
 -- Occupied --
-10.192  -0.681  -0.415  -0.415  -0.313  -0.224

 Beta MOs
 -- Occupied --
-10.178  -0.640  -0.405  -0.405

          Ground-State Mulliken Net Atomic Charges

     Atom                 Charge (a.u.)    Spin (a.u.)
  --------------------------------------------------------
      1 H                     0.000221       0.999718
      2 C                    -0.367951       1.145504
      3 H                     0.122573      -0.048405
      4 H                     0.122583      -0.048411
      5 H                     0.122573      -0.048407
  --------------------------------------------------------
  Sum of atomic charges =     0.000000

                    Cartesian Multipole Moments
 -----------------------------------------------------------------
    Charge (ESU x 10^10)
                -0.0000
    Dipole Moment (Debye)
         X       0.0060      Y       0.0018      Z       0.0106
       Tot       0.0123
    Quadrupole Moments (Debye-Ang)
        XX      -8.6735     XY      -0.1117     YY      -8.3227
        XZ      -0.6708     YZ      -0.1943     ZZ      -9.4675

 Final energy is   -40.3427762867119
 **  OPTIMIZATION CONVERGED  **
 Total job time:  15.69s(wall), 155.09s(cpu)
        *  Thank you very much for using Q-Chem.  Have a nice day.  *
