 Q-Chem 5.1, Q-Chem, Inc., Pleasanton, CA (2018)
 Q-Chem 5.1.1 for Intel X86 EM64T Linux

User input:
--------------------------------------------------------------

$comment
potential surface scanner
$end

$rem
JOBTYPE  PES_SCAN
UNRESTRICTED TRUE
SYM_IGNORE  TRUE
GEOM_OPT_MAX_CYCLES 400
SCF_MAX_CYCLES 400
METHOD   B3LYP
BASIS   6-31G**
PDB_PRINT 2
SCF_CONVERGENCE 6
THRESH 14
SCF_PRINT 1
$end
$molecule
0 1
H 0.767165 0.233676 1.357782
C -0.108531 -0.033077 -0.192056
H 0.174899 0.840755 -0.767693
H 0.308650 -0.974554 -0.530979
H -1.142283 -0.066902 0.132747
$end
$scan
stre 1 2 1.900000 1.901000 0.100000
$end
--------------------------------------------------------------

    8     -40.4237833808      1.61e-07  Convergence criterion met
 Total energy in the final basis set =      -40.4237833808
    8     -40.4093027932      2.24e-07  Convergence criterion met
 Total energy in the final basis set =      -40.4093027932
    8     -40.4089829203      2.30e-07  Convergence criterion met
 Total energy in the final basis set =      -40.4089829203

             Standard Nuclear Orientation (Angstroms)
    I     Atom           X                Y                Z
 ----------------------------------------------------------------
    1      H       0.7999266572     0.2436243710     1.4156976019
    2      C      -0.1244552405    -0.0379229608    -0.2202269693
    3      H       0.1705892000     0.8420567212    -0.7788644257
    4      H       0.3048143776    -0.9792553165    -0.5413271085
    5      H      -1.1509749943    -0.0686048149     0.1245219015
 ----------------------------------------------------------------

    8     -40.4089882903      2.32e-07  Convergence criterion met
 Total energy in the final basis set =      -40.4089882903

                    Orbital Energies (a.u.)
 --------------------------------------------------------------

 Alpha MOs
 -- Occupied --
-10.226  -0.683  -0.421  -0.421  -0.275

 Beta MOs
 -- Occupied --
-10.226  -0.683  -0.421  -0.421  -0.275

          Ground-State Mulliken Net Atomic Charges

     Atom                 Charge (a.u.)    Spin (a.u.)
  --------------------------------------------------------
      1 H                    -0.071027      -0.000000
      2 C                    -0.362834      -0.000000
      3 H                     0.144625       0.000000
      4 H                     0.144615       0.000000
      5 H                     0.144622       0.000000
  --------------------------------------------------------
  Sum of atomic charges =     0.000000

                    Cartesian Multipole Moments
 -----------------------------------------------------------------
    Charge (ESU x 10^10)
                 0.0000
    Dipole Moment (Debye)
         X      -0.5110      Y      -0.1556      Z      -0.9045
       Tot       1.0505
    Quadrupole Moments (Debye-Ang)
        XX      -8.5955     XY      -0.0793     YY      -8.3596
        XZ      -0.4610     YZ      -0.1403     ZZ      -9.1510

 Final energy is   -40.4089882902616
 **  OPTIMIZATION CONVERGED  **
 Total job time:  9.28s(wall), 91.07s(cpu)
        *  Thank you very much for using Q-Chem.  Have a nice day.  *
