 Q-Chem 5.1, Q-Chem, Inc., Pleasanton, CA (2018)
 Q-Chem 5.1.1 for Intel X86 EM64T Linux

User input:
--------------------------------------------------------------

$comment
potential surface scanner
$end

$rem
JOBTYPE  PES_SCAN
UNRESTRICTED TRUE
SYM_IGNORE  TRUE
GEOM_OPT_MAX_CYCLES 400
SCF_MAX_CYCLES 400
METHOD   B3LYP
BASIS   6-31G**
PDB_PRINT 2
SCF_CONVERGENCE 6
THRESH 14
SCF_PRINT 1
$end
$molecule
0 3
H 1.477182 0.452044 2.617024
C -0.369923 -0.113260 -0.655381
H 0.034406 0.813983 -1.039333
H 0.167882 -1.040413 -0.803359
H -1.309647 -0.112454 -0.119149
$end
$scan
stre 1 2 3.700000 3.701000 0.100000
$end
--------------------------------------------------------------

    7     -40.3429249484      7.69e-07  Convergence criterion met
 Total energy in the final basis set =      -40.3429249484
    8     -40.3425397079      3.09e-07  Convergence criterion met
 Total energy in the final basis set =      -40.3425397079
    8     -40.3427571744      3.07e-07  Convergence criterion met
 Total energy in the final basis set =      -40.3427571744
    8     -40.3428304621      3.01e-07  Convergence criterion met
 Total energy in the final basis set =      -40.3428304621
    8     -40.3428334381      3.00e-07  Convergence criterion met
 Total energy in the final basis set =      -40.3428334381
    7     -40.3428614629      7.62e-07  Convergence criterion met
 Total energy in the final basis set =      -40.3428614629

             Standard Nuclear Orientation (Angstroms)
    I     Atom           X                Y                Z
 ----------------------------------------------------------------
    1      H       1.4377154821     0.4406363278     2.5476494551
    2      C      -0.3604237092    -0.1105453460    -0.6387115317
    3      H       0.0447861924     0.8170094703    -1.0210019103
    4      H       0.1771703248    -1.0377651898    -0.7870689936
    5      H      -1.2993482900    -0.1094352623    -0.1010650194
 ----------------------------------------------------------------

    7     -40.3428616976      7.97e-07  Convergence criterion met
 Total energy in the final basis set =      -40.3428616976

                    Orbital Energies (a.u.)
 --------------------------------------------------------------

 Alpha MOs
 -- Occupied --
-10.192  -0.681  -0.415  -0.415  -0.313  -0.224

 Beta MOs
 -- Occupied --
-10.178  -0.640  -0.405  -0.405

          Ground-State Mulliken Net Atomic Charges

     Atom                 Charge (a.u.)    Spin (a.u.)
  --------------------------------------------------------
      1 H                     0.000176       0.999779
      2 C                    -0.368017       1.145500
      3 H                     0.122613      -0.048423
      4 H                     0.122618      -0.048430
      5 H                     0.122610      -0.048425
  --------------------------------------------------------
  Sum of atomic charges =     0.000000

                    Cartesian Multipole Moments
 -----------------------------------------------------------------
    Charge (ESU x 10^10)
                 0.0000
    Dipole Moment (Debye)
         X       0.0041      Y       0.0013      Z       0.0073
       Tot       0.0085
    Quadrupole Moments (Debye-Ang)
        XX      -8.6714     XY      -0.1120     YY      -8.3231
        XZ      -0.6682     YZ      -0.1956     ZZ      -9.4646

 Final energy is   -40.3428616975940
 **  OPTIMIZATION CONVERGED  **
 Total job time:  16.21s(wall), 154.67s(cpu)
        *  Thank you very much for using Q-Chem.  Have a nice day.  *
