 Q-Chem 5.1, Q-Chem, Inc., Pleasanton, CA (2018)
 Q-Chem 5.1.1 for Intel X86 EM64T Linux

User input:
--------------------------------------------------------------

$comment
potential surface scanner
$end

$rem
JOBTYPE  PES_SCAN
UNRESTRICTED TRUE
SYM_IGNORE  TRUE
GEOM_OPT_MAX_CYCLES 400
SCF_MAX_CYCLES 400
METHOD   B3LYP
BASIS   6-31G**
PDB_PRINT 2
SCF_CONVERGENCE 6
THRESH 14
SCF_PRINT 1
$end
$molecule
0 1
H 1.037803 0.316277 1.837018
C -0.226929 -0.069191 -0.401702
H 0.130659 0.840192 -0.863687
H 0.266428 -1.005018 -0.623424
H -1.208062 -0.082363 0.051595
$end
$scan
stre 1 2 2.700000 2.701000 0.100000
$end
--------------------------------------------------------------

    9     -40.3334128810      5.89e-07  Convergence criterion met
 Total energy in the final basis set =      -40.3334128810
   10     -40.3261019360      1.52e-07  Convergence criterion met
 Total energy in the final basis set =      -40.3261019360
   10     -40.3259730368      1.50e-07  Convergence criterion met
 Total energy in the final basis set =      -40.3259730368

             Standard Nuclear Orientation (Angstroms)
    I     Atom           X                Y                Z
 ----------------------------------------------------------------
    1      H       1.0734965304     0.3272078717     1.9001605244
    2      C      -0.2399008469    -0.0731545349    -0.4246398178
    3      H       0.1234387235     0.8385801913    -0.8772944424
    4      H       0.2592249451    -1.0080440679    -0.6369929694
    5      H      -1.2163603521    -0.0846924601     0.0385667052
 ----------------------------------------------------------------

   10     -40.3259757884      1.45e-07  Convergence criterion met
 Total energy in the final basis set =      -40.3259757884

                    Orbital Energies (a.u.)
 --------------------------------------------------------------

 Alpha MOs
 -- Occupied --
-10.249  -0.699  -0.445  -0.445  -0.226

 Beta MOs
 -- Occupied --
-10.249  -0.699  -0.445  -0.445  -0.226

          Ground-State Mulliken Net Atomic Charges

     Atom                 Charge (a.u.)    Spin (a.u.)
  --------------------------------------------------------
      1 H                    -0.153273      -0.000000
      2 C                    -0.330512       0.000000
      3 H                     0.161273      -0.000000
      4 H                     0.161247      -0.000000
      5 H                     0.161266      -0.000000
  --------------------------------------------------------
  Sum of atomic charges =     0.000000

                    Cartesian Multipole Moments
 -----------------------------------------------------------------
    Charge (ESU x 10^10)
                 0.0000
    Dipole Moment (Debye)
         X      -1.0345      Y      -0.3152      Z      -1.8310
       Tot       2.1265
    Quadrupole Moments (Debye-Ang)
        XX      -9.0239     XY      -0.2505     YY      -8.2768
        XZ      -1.4571     YZ      -0.4433     ZZ     -10.7788

 Final energy is   -40.3259757884268
 **  OPTIMIZATION CONVERGED  **
 Total job time:  12.25s(wall), 106.08s(cpu)
        *  Thank you very much for using Q-Chem.  Have a nice day.  *
