 Q-Chem 5.1, Q-Chem, Inc., Pleasanton, CA (2018)
 Q-Chem 5.1.1 for Intel X86 EM64T Linux

User input:
--------------------------------------------------------------

$comment
potential surface scanner
$end

$rem
JOBTYPE  PES_SCAN
UNRESTRICTED TRUE
SYM_IGNORE  TRUE
GEOM_OPT_MAX_CYCLES 400
SCF_MAX_CYCLES 400
METHOD   B3LYP
BASIS   6-31G**
PDB_PRINT 2
SCF_CONVERGENCE 6
THRESH 14
SCF_PRINT 1
$end
$molecule
0 3
H 1.398098 0.429198 2.478091
C -0.351037 -0.107861 -0.622246
H 0.055240 0.820042 -1.002575
H 0.186518 -1.035093 -0.770697
H -1.288920 -0.106386 -0.082773
$end
$scan
stre 1 2 3.500000 3.501000 0.100000
$end
--------------------------------------------------------------

    7     -40.3427762858      8.38e-07  Convergence criterion met
 Total energy in the final basis set =      -40.3427762858
    8     -40.3423281470      3.01e-07  Convergence criterion met
 Total energy in the final basis set =      -40.3423281470
    8     -40.3425533189      3.04e-07  Convergence criterion met
 Total energy in the final basis set =      -40.3425533189
    8     -40.3426278541      2.98e-07  Convergence criterion met
 Total energy in the final basis set =      -40.3426278541
    8     -40.3426308256      2.95e-07  Convergence criterion met
 Total energy in the final basis set =      -40.3426308256
    7     -40.3426590072      8.24e-07  Convergence criterion met
 Total energy in the final basis set =      -40.3426590072

             Standard Nuclear Orientation (Angstroms)
    I     Atom           X                Y                Z
 ----------------------------------------------------------------
    1      H       1.3584305884     0.4177153208     2.4085916293
    2      C      -0.3416240164    -0.1051602071    -0.6057769066
    3      H       0.0656164647     0.8230631828    -0.9843143140
    4      H       0.1958765315    -1.0324130848    -0.7543306112
    5      H      -1.2784005682    -0.1033052118    -0.0643697975
 ----------------------------------------------------------------

    7     -40.3426592911      8.80e-07  Convergence criterion met
 Total energy in the final basis set =      -40.3426592911

                    Orbital Energies (a.u.)
 --------------------------------------------------------------

 Alpha MOs
 -- Occupied --
-10.191  -0.681  -0.415  -0.415  -0.313  -0.223

 Beta MOs
 -- Occupied --
-10.177  -0.640  -0.405  -0.405

          Ground-State Mulliken Net Atomic Charges

     Atom                 Charge (a.u.)    Spin (a.u.)
  --------------------------------------------------------
      1 H                     0.000272       0.999648
      2 C                    -0.367874       1.145507
      3 H                     0.122529      -0.048382
      4 H                     0.122544      -0.048387
      5 H                     0.122529      -0.048385
  --------------------------------------------------------
  Sum of atomic charges =    -0.000000

                    Cartesian Multipole Moments
 -----------------------------------------------------------------
    Charge (ESU x 10^10)
                -0.0000
    Dipole Moment (Debye)
         X       0.0079      Y       0.0024      Z       0.0139
       Tot       0.0161
    Quadrupole Moments (Debye-Ang)
        XX      -8.6762     XY      -0.1115     YY      -8.3222
        XZ      -0.6739     YZ      -0.1934     ZZ      -9.4711

 Final energy is   -40.3426592910613
 **  OPTIMIZATION CONVERGED  **
 Total job time:  14.98s(wall), 152.00s(cpu)
        *  Thank you very much for using Q-Chem.  Have a nice day.  *
