 Q-Chem 5.1, Q-Chem, Inc., Pleasanton, CA (2018)
 Q-Chem 5.1.1 for Intel X86 EM64T Linux

User input:
--------------------------------------------------------------

$comment
potential surface scanner
$end

$rem
JOBTYPE  PES_SCAN
UNRESTRICTED TRUE
SYM_IGNORE  TRUE
GEOM_OPT_MAX_CYCLES 400
SCF_MAX_CYCLES 400
METHOD   B3LYP
BASIS   6-31G**
PDB_PRINT 2
SCF_CONVERGENCE 6
THRESH 14
SCF_PRINT 1
$end
$molecule
0 1
H 1.073497 0.327208 1.900161
C -0.239901 -0.073155 -0.424640
H 0.123439 0.838580 -0.877294
H 0.259225 -1.008044 -0.636993
H -1.216360 -0.084692 0.038567
$end
$scan
stre 1 2 2.800000 2.801000 0.100000
$end
--------------------------------------------------------------

   10     -40.3259757204      1.45e-07  Convergence criterion met
 Total energy in the final basis set =      -40.3259757204
   10     -40.3193023397      3.04e-07  Convergence criterion met
 Total energy in the final basis set =      -40.3193023397
   10     -40.3191853451      3.21e-07  Convergence criterion met
 Total energy in the final basis set =      -40.3191853451

             Standard Nuclear Orientation (Angstroms)
    I     Atom           X                Y                Z
 ----------------------------------------------------------------
    1      H       1.1096116102     0.3382618311     1.9640281484
    2      C      -0.2524627640    -0.0769922527    -0.4468465757
    3      H       0.1158792211     0.8367373985    -0.8913205896
    4      H       0.2516670310    -1.0110042986    -0.6510137055
    5      H      -1.2247950983    -0.0871056783     0.0249537223
 ----------------------------------------------------------------

   10     -40.3191874801      3.29e-07  Convergence criterion met
 Total energy in the final basis set =      -40.3191874801

                    Orbital Energies (a.u.)
 --------------------------------------------------------------

 Alpha MOs
 -- Occupied --
-10.250  -0.701  -0.447  -0.447  -0.223

 Beta MOs
 -- Occupied --
-10.250  -0.701  -0.447  -0.447  -0.223

          Ground-State Mulliken Net Atomic Charges

     Atom                 Charge (a.u.)    Spin (a.u.)
  --------------------------------------------------------
      1 H                    -0.156393       0.000000
      2 C                    -0.330977      -0.000000
      3 H                     0.162470       0.000000
      4 H                     0.162439       0.000000
      5 H                     0.162461       0.000000
  --------------------------------------------------------
  Sum of atomic charges =    -0.000000

                    Cartesian Multipole Moments
 -----------------------------------------------------------------
    Charge (ESU x 10^10)
                -0.0000
    Dipole Moment (Debye)
         X      -1.0823      Y      -0.3298      Z      -1.9155
       Tot       2.2247
    Quadrupole Moments (Debye-Ang)
        XX      -9.0991     XY      -0.2760     YY      -8.2758
        XZ      -1.6059     YZ      -0.4886     ZZ     -11.0335

 Final energy is   -40.3191874801294
 **  OPTIMIZATION CONVERGED  **
 Total job time:  10.67s(wall), 106.05s(cpu)
        *  Thank you very much for using Q-Chem.  Have a nice day.  *
