 Q-Chem 5.1, Q-Chem, Inc., Pleasanton, CA (2018)
 Q-Chem 5.1.1 for Intel X86 EM64T Linux

User input:
--------------------------------------------------------------

$comment
potential surface scanner
$end

$rem
JOBTYPE  PES_SCAN
UNRESTRICTED TRUE
SYM_IGNORE  TRUE
GEOM_OPT_MAX_CYCLES 400
SCF_MAX_CYCLES 400
METHOD   B3LYP
BASIS   6-31G**
PDB_PRINT 2
SCF_CONVERGENCE 6
THRESH 14
SCF_PRINT 1
$end
$molecule
0 1
H 0.899602 0.273947 1.592101
C -0.170722 -0.052014 -0.302141
H 0.155759 0.843581 -0.813282
H 0.291064 -0.991615 -0.573878
H -1.175804 -0.074003 0.096999
$end
$scan
stre 1 2 2.300000 2.301000 0.100000
$end
--------------------------------------------------------------

    8     -40.3709346358      1.06e-07  Convergence criterion met
 Total energy in the final basis set =      -40.3709346358
    8     -40.3604453560      5.91e-07  Convergence criterion met
 Total energy in the final basis set =      -40.3604453560
    8     -40.3602500787      5.51e-07  Convergence criterion met
 Total energy in the final basis set =      -40.3602500787

             Standard Nuclear Orientation (Angstroms)
    I     Atom           X                Y                Z
 ----------------------------------------------------------------
    1      H       0.9334957141     0.2843133325     1.6522051215
    2      C      -0.1854087014    -0.0564988616    -0.3281731773
    3      H       0.1500637693     0.8432631305    -0.8253292567
    4      H       0.2855739117    -0.9952301871    -0.5855593307
    5      H      -1.1838256937    -0.0759514143     0.0866556432
 ----------------------------------------------------------------

    8     -40.3602557105      5.19e-07  Convergence criterion met
 Total energy in the final basis set =      -40.3602557105

                    Orbital Energies (a.u.)
 --------------------------------------------------------------

 Alpha MOs
 -- Occupied --
-10.241  -0.692  -0.435  -0.435  -0.244

 Beta MOs
 -- Occupied --
-10.241  -0.692  -0.435  -0.435  -0.244

          Ground-State Mulliken Net Atomic Charges

     Atom                 Charge (a.u.)    Spin (a.u.)
  --------------------------------------------------------
      1 H                    -0.127725       0.000000
      2 C                    -0.335409      -0.000000
      3 H                     0.154381       0.000000
      4 H                     0.154379       0.000000
      5 H                     0.154373      -0.000000
  --------------------------------------------------------
  Sum of atomic charges =    -0.000000

                    Cartesian Multipole Moments
 -----------------------------------------------------------------
    Charge (ESU x 10^10)
                 0.0000
    Dipole Moment (Debye)
         X      -0.8048      Y      -0.2451      Z      -1.4243
       Tot       1.6542
    Quadrupole Moments (Debye-Ang)
        XX      -8.7737     XY      -0.1576     YY      -8.3043
        XZ      -0.9156     YZ      -0.2787     ZZ      -9.8764

 Final energy is   -40.3602557105328
 **  OPTIMIZATION CONVERGED  **
 Total job time:  9.75s(wall), 92.50s(cpu)
        *  Thank you very much for using Q-Chem.  Have a nice day.  *
