 Q-Chem 5.1, Q-Chem, Inc., Pleasanton, CA (2018)
 Q-Chem 5.1.1 for Intel X86 EM64T Linux

User input:
--------------------------------------------------------------

$comment
potential surface scanner
$end

$rem
JOBTYPE  PES_SCAN
UNRESTRICTED TRUE
SYM_IGNORE  TRUE
GEOM_OPT_MAX_CYCLES 400
SCF_MAX_CYCLES 400
METHOD   B3LYP
BASIS   6-31G**
PDB_PRINT 2
SCF_CONVERGENCE 6
THRESH 14
SCF_PRINT 1
$end
$molecule
0 3
H 1.516509 0.463465 2.686141
C -0.379545 -0.116044 -0.672304
H 0.024144 0.811002 -1.057380
H 0.158635 -1.043085 -0.819567
H -1.319842 -0.115438 -0.137088
$end
$scan
stre 1 2 3.800000 3.801000 0.100000
$end
--------------------------------------------------------------

    7     -40.3429745520      7.54e-07  Convergence criterion met
 Total energy in the final basis set =      -40.3429745520
    8     -40.3426095340      3.11e-07  Convergence criterion met
 Total energy in the final basis set =      -40.3426095340
    8     -40.3428219788      3.07e-07  Convergence criterion met
 Total energy in the final basis set =      -40.3428219788
    8     -40.3428941757      3.01e-07  Convergence criterion met
 Total energy in the final basis set =      -40.3428941757
    8     -40.3428971375      3.01e-07  Convergence criterion met
 Total energy in the final basis set =      -40.3428971375
    7     -40.3429247553      7.46e-07  Convergence criterion met
 Total energy in the final basis set =      -40.3429247553

             Standard Nuclear Orientation (Angstroms)
    I     Atom           X                Y                Z
 ----------------------------------------------------------------
    1      H       1.4771824725     0.4520441905     2.6170237250
    2      C      -0.3699229701    -0.1132598968    -0.6553813360
    3      H       0.0344059038     0.8139833618    -1.0393325285
    4      H       0.1678823122    -1.0404132228    -0.8033590670
    5      H      -1.3096467185    -0.1124544327    -0.1191487935
 ----------------------------------------------------------------

    7     -40.3429249486      7.69e-07  Convergence criterion met
 Total energy in the final basis set =      -40.3429249486

                    Orbital Energies (a.u.)
 --------------------------------------------------------------

 Alpha MOs
 -- Occupied --
-10.192  -0.681  -0.415  -0.415  -0.314  -0.224

 Beta MOs
 -- Occupied --
-10.178  -0.640  -0.405  -0.405

          Ground-State Mulliken Net Atomic Charges

     Atom                 Charge (a.u.)    Spin (a.u.)
  --------------------------------------------------------
      1 H                     0.000138       0.999829
      2 C                    -0.368058       1.145490
      3 H                     0.122642      -0.048437
      4 H                     0.122641      -0.048443
      5 H                     0.122638      -0.048438
  --------------------------------------------------------
  Sum of atomic charges =    -0.000000

                    Cartesian Multipole Moments
 -----------------------------------------------------------------
    Charge (ESU x 10^10)
                -0.0000
    Dipole Moment (Debye)
         X       0.0027      Y       0.0008      Z       0.0048
       Tot       0.0056
    Quadrupole Moments (Debye-Ang)
        XX      -8.6699     XY      -0.1125     YY      -8.3237
        XZ      -0.6666     YZ      -0.1971     ZZ      -9.4632

 Final energy is   -40.3429249485725
 **  OPTIMIZATION CONVERGED  **
 Total job time:  17.31s(wall), 154.56s(cpu)
        *  Thank you very much for using Q-Chem.  Have a nice day.  *
