 Q-Chem 5.1, Q-Chem, Inc., Pleasanton, CA (2018)
 Q-Chem 5.1.1 for Intel X86 EM64T Linux

User input:
--------------------------------------------------------------

$comment
potential surface scanner
$end

$rem
JOBTYPE  PES_SCAN
UNRESTRICTED TRUE
SYM_IGNORE  TRUE
GEOM_OPT_MAX_CYCLES 400
SCF_MAX_CYCLES 400
METHOD   B3LYP
BASIS   6-31G**
PDB_PRINT 2
SCF_CONVERGENCE 6
THRESH 14
SCF_PRINT 1
$end
$molecule
0 1
H 0.701770 0.213746 1.242036
C -0.076624 -0.023358 -0.135602
H 0.183033 0.837256 -0.745040
H 0.315779 -0.964248 -0.510110
H -1.124059 -0.063497 0.148517
$end
$scan
stre 1 2 1.700000 1.701000 0.100000
$end
--------------------------------------------------------------

    8     -40.4562122266      5.69e-08  Convergence criterion met
 Total energy in the final basis set =      -40.4562122266
    8     -40.4399909758      9.57e-08  Convergence criterion met
 Total energy in the final basis set =      -40.4399909758
    8     -40.4395823324      9.91e-08  Convergence criterion met
 Total energy in the final basis set =      -40.4395823324

             Standard Nuclear Orientation (Angstroms)
    I     Atom           X                Y                Z
 ----------------------------------------------------------------
    1      H       0.7344995240     0.2237330751     1.2999991619
    2      C      -0.0925281020    -0.0282032657    -0.1637471911
    3      H       0.1790035873     0.8391363356    -0.7564873926
    4      H       0.3122613892    -0.9695565111    -0.5206409098
    5      H      -1.1333373985    -0.0652106339     0.1406773316
 ----------------------------------------------------------------

    8     -40.4395822212      9.93e-08  Convergence criterion met
 Total energy in the final basis set =      -40.4395822212

                    Orbital Energies (a.u.)
 --------------------------------------------------------------

 Alpha MOs
 -- Occupied --
-10.216  -0.679  -0.412  -0.412  -0.297

 Beta MOs
 -- Occupied --
-10.216  -0.679  -0.412  -0.412  -0.297

          Ground-State Mulliken Net Atomic Charges

     Atom                 Charge (a.u.)    Spin (a.u.)
  --------------------------------------------------------
      1 H                    -0.029166      -0.000000
      2 C                    -0.386321       0.000000
      3 H                     0.138497       0.000000
      4 H                     0.138491      -0.000000
      5 H                     0.138499      -0.000000
  --------------------------------------------------------
  Sum of atomic charges =     0.000000

                    Cartesian Multipole Moments
 -----------------------------------------------------------------
    Charge (ESU x 10^10)
                 0.0000
    Dipole Moment (Debye)
         X      -0.3529      Y      -0.1075      Z      -0.6245
       Tot       0.7253
    Quadrupole Moments (Debye-Ang)
        XX      -8.5208     XY      -0.0475     YY      -8.3789
        XZ      -0.2771     YZ      -0.0842     ZZ      -8.8542

 Final energy is   -40.4395822211584
 **  OPTIMIZATION CONVERGED  **
 Total job time:  10.42s(wall), 101.12s(cpu)
        *  Thank you very much for using Q-Chem.  Have a nice day.  *
