 Q-Chem 5.1, Q-Chem, Inc., Pleasanton, CA (2018)
 Q-Chem 5.1.1 for Intel X86 EM64T Linux

User input:
--------------------------------------------------------------

$comment
potential surface scanner
$end

$rem
JOBTYPE  PES_SCAN
UNRESTRICTED TRUE
SYM_IGNORE  TRUE
GEOM_OPT_MAX_CYCLES 400
SCF_MAX_CYCLES 400
METHOD   B3LYP
BASIS   6-31G**
PDB_PRINT 2
SCF_CONVERGENCE 6
THRESH 14
SCF_PRINT 1
$end
$molecule
0 1
H 0.528800 0.161000 0.935900
C 0.000000 0.000000 0.000000
H 0.205100 0.824000 -0.678600
H 0.334500 -0.931400 -0.449600
H -1.068500 -0.053700 0.192100
$end
$scan
stre 1 2 3.000000 3.001000 0.100000
$end
--------------------------------------------------------------

    6     -40.5239421989      2.32e-07  Convergence criterion met
 Total energy in the final basis set =      -40.5239421989
    7     -40.5138360631      2.49e-07  Convergence criterion met
 Total energy in the final basis set =      -40.5138360631
    7     -40.4917010470      5.57e-07  Convergence criterion met
 Total energy in the final basis set =      -40.4917010470
    8     -40.4660071351      3.90e-08  Convergence criterion met
 Total energy in the final basis set =      -40.4660071351
    8     -40.4405034111      9.49e-08  Convergence criterion met
 Total energy in the final basis set =      -40.4405034111
    8     -40.4168103145      1.91e-07  Convergence criterion met
 Total energy in the final basis set =      -40.4168103145
    8     -40.3954897770      2.73e-07  Convergence criterion met
 Total energy in the final basis set =      -40.3954897770
    8     -40.3766020925      1.48e-07  Convergence criterion met
    8     -40.3600136562      5.47e-07  Convergence criterion met
 Total energy in the final basis set =      -40.3600136562
    9     -40.3455210551      3.32e-07  Convergence criterion met
 Total energy in the final basis set =      -40.3455210551
    9     -40.3328957413      6.51e-07  Convergence criterion met
 Total energy in the final basis set =      -40.3328957413
   10     -40.3219069252      2.59e-07  Convergence criterion met
 Total energy in the final basis set =      -40.3219069252
   10     -40.3123408821      1.38e-07  Convergence criterion met
 Total energy in the final basis set =      -40.3123408821
    9     -40.3073956033      6.82e-07  Convergence criterion met
 Total energy in the final basis set =      -40.3073956033

             Standard Nuclear Orientation (Angstroms)
    I     Atom           X                Y                Z
 ----------------------------------------------------------------
    1      H       1.1827901233     0.3605753117     2.0935647014
    2      C      -0.2765768915    -0.0843358414    -0.4895152356
    3      H       0.0998886825     0.8325375586    -0.9205697226
    4      H       0.2357306695    -1.0167880491    -0.6801667132
    5      H      -1.2419325839    -0.0920889798    -0.0035130300
 ----------------------------------------------------------------

    9     -40.3073294588      5.75e-07  Convergence criterion met
 Total energy in the final basis set =      -40.3073294588

                    Orbital Energies (a.u.)
 --------------------------------------------------------------

 Alpha MOs
 -- Occupied --
-10.251  -0.703  -0.449  -0.449  -0.217

 Beta MOs
 -- Occupied --
-10.251  -0.703  -0.449  -0.449  -0.217

          Ground-State Mulliken Net Atomic Charges

     Atom                 Charge (a.u.)    Spin (a.u.)
  --------------------------------------------------------
      1 H                    -0.160086      -0.000000
      2 C                    -0.332481       0.000000
      3 H                     0.164203      -0.000000
      4 H                     0.164167      -0.000000
      5 H                     0.164197      -0.000000
  --------------------------------------------------------
  Sum of atomic charges =    -0.000000

                    Cartesian Multipole Moments
 -----------------------------------------------------------------
    Charge (ESU x 10^10)
                -0.0000
    Dipole Moment (Debye)
         X      -1.1677      Y      -0.3559      Z      -2.0669
       Tot       2.4004
    Quadrupole Moments (Debye-Ang)
        XX      -9.2625     XY      -0.3297     YY      -8.2793
        XZ      -1.9180     YZ      -0.5837     ZZ     -11.5729

 Final energy is   -40.3073294587840
 **  OPTIMIZATION CONVERGED  **
 Total job time:  35.80s(wall), 346.05s(cpu)
        *  Thank you very much for using Q-Chem.  Have a nice day.  *
