 Q-Chem 5.1, Q-Chem, Inc., Pleasanton, CA (2018)
 Q-Chem 5.1.1 for Intel X86 EM64T Linux

User input:
--------------------------------------------------------------

$comment
potential surface scanner
$end

$rem
JOBTYPE  PES_SCAN
UNRESTRICTED TRUE
SYM_IGNORE  TRUE
GEOM_OPT_MAX_CYCLES 400
SCF_MAX_CYCLES 400
METHOD   B3LYP
BASIS   6-31G**
PDB_PRINT 2
SCF_CONVERGENCE 6
THRESH 14
SCF_PRINT 1
$end
$molecule
0 3
H 0.323893 0.685722 1.166215
C -0.071813 -0.152397 -0.258907
H 0.726188 0.570600 -0.344486
H -0.327154 -0.693474 -1.178476
H -0.651218 -0.410551 0.615454
$end
$scan
stre 1 2 1.600000 1.601000 0.100000
$end
--------------------------------------------------------------

    8     -40.3123591338      5.18e-07  Convergence criterion met
 Total energy in the final basis set =      -40.3123591338
    8     -40.3034684310      5.79e-07  Convergence criterion met
 Total energy in the final basis set =      -40.3034684310
    8     -40.3035280628      6.20e-07  Convergence criterion met
 Total energy in the final basis set =      -40.3035280628
    8     -40.3035507417      6.36e-07  Convergence criterion met
 Total energy in the final basis set =      -40.3035507417

             Standard Nuclear Orientation (Angstroms)
    I     Atom           X                Y                Z
 ----------------------------------------------------------------
    1      H       0.3083855056     0.6528831622     1.1103585577
    2      C      -0.0640445128    -0.1359462664    -0.2309259302
    3      H       0.7367409383     0.5791790363    -0.3485715946
    4      H      -0.3209363394    -0.6802891127    -1.1560646829
    5      H      -0.6602495917    -0.4159268193     0.6250036499
 ----------------------------------------------------------------

    8     -40.3035509649      6.36e-07  Convergence criterion met
 Total energy in the final basis set =      -40.3035509649

                    Orbital Energies (a.u.)
 --------------------------------------------------------------

 Alpha MOs
 -- Occupied --
-10.214  -0.720  -0.461  -0.460  -0.247  -0.198

 Beta MOs
 -- Occupied --
-10.198  -0.668  -0.441  -0.423

          Ground-State Mulliken Net Atomic Charges

     Atom                 Charge (a.u.)    Spin (a.u.)
  --------------------------------------------------------
      1 H                    -0.099106       0.892338
      2 C                    -0.350929       1.118513
      3 H                     0.171479      -0.034423
      4 H                     0.107060       0.057999
      5 H                     0.171496      -0.034427
  --------------------------------------------------------
  Sum of atomic charges =    -0.000000

                    Cartesian Multipole Moments
 -----------------------------------------------------------------
    Charge (ESU x 10^10)
                 0.0000
    Dipole Moment (Debye)
         X      -0.1820      Y      -0.3838      Z      -0.6535
       Tot       0.7794
    Quadrupole Moments (Debye-Ang)
        XX      -8.7055     XY       0.7041     YY      -9.3870
        XZ      -0.9129     YZ      -0.8493     ZZ      -9.7459

 Final energy is   -40.3035509648510
 **  OPTIMIZATION CONVERGED  **
 Total job time:  12.08s(wall), 115.90s(cpu)
        *  Thank you very much for using Q-Chem.  Have a nice day.  *
