 Q-Chem 5.1, Q-Chem, Inc., Pleasanton, CA (2018)
 Q-Chem 5.1.1 for Intel X86 EM64T Linux

User input:
--------------------------------------------------------------

$comment
potential surface scanner
$end

$rem
JOBTYPE  PES_SCAN
UNRESTRICTED TRUE
SYM_IGNORE  TRUE
GEOM_OPT_MAX_CYCLES 400
SCF_MAX_CYCLES 400
METHOD   B3LYP
BASIS   6-31G**
PDB_PRINT 2
SCF_CONVERGENCE 6
THRESH 14
SCF_PRINT 1
$end
$molecule
0 3
H 0.286242 0.603897 1.023125
C -0.018029 -0.038526 -0.065319
H 0.798173 0.584556 -0.507736
H -0.292615 -0.616520 -1.043408
H -0.773877 -0.533508 0.593140
$end
$scan
stre 1 2 1.200000 1.201000 0.100000
$end
--------------------------------------------------------------

    8     -40.2751492079      8.53e-07  Convergence criterion met
 Total energy in the final basis set =      -40.2751492079
    8     -40.2721887613      5.66e-07  Convergence criterion met
 Total energy in the final basis set =      -40.2721887613
    8     -40.2727628729      5.63e-07  Convergence criterion met
 Total energy in the final basis set =      -40.2727628729
    8     -40.2736169604      4.18e-07  Convergence criterion met
 Total energy in the final basis set =      -40.2736169604
    8     -40.2737306040      3.20e-07  Convergence criterion met
 Total energy in the final basis set =      -40.2737306040
    8     -40.2739352164      1.73e-07  Convergence criterion met
 Total energy in the final basis set =      -40.2739352164
    8     -40.2739950264      1.80e-07  Convergence criterion met
 Total energy in the final basis set =      -40.2739950264
    8     -40.2740062822      2.09e-07  Convergence criterion met
 Total energy in the final basis set =      -40.2740062822

             Standard Nuclear Orientation (Angstroms)
    I     Atom           X                Y                Z
 ----------------------------------------------------------------
    1      H       0.2807320586     0.5918483944     1.0021742725
    2      C      -0.0006059963    -0.0013615478    -0.0022911890
    3      H       0.8177877051     0.5822190291    -0.5710243938
    4      H      -0.2809804445    -0.5922800515    -1.0027658996
    5      H      -0.8170393229    -0.5805268242     0.5737092099
 ----------------------------------------------------------------

    8     -40.2740068990      2.14e-07  Convergence criterion met
 Total energy in the final basis set =      -40.2740068990

                    Orbital Energies (a.u.)
 --------------------------------------------------------------

 Alpha MOs
 -- Occupied --
-10.239  -0.722  -0.473  -0.460  -0.251  -0.145

 Beta MOs
 -- Occupied --
-10.228  -0.665  -0.430  -0.413

          Ground-State Mulliken Net Atomic Charges

     Atom                 Charge (a.u.)    Spin (a.u.)
  --------------------------------------------------------
      1 H                     0.077380       0.314035
      2 C                    -0.404820       0.940055
      3 H                     0.123900       0.220648
      4 H                     0.079642       0.304572
      5 H                     0.123899       0.220690
  --------------------------------------------------------
  Sum of atomic charges =     0.000000

                    Cartesian Multipole Moments
 -----------------------------------------------------------------
    Charge (ESU x 10^10)
                -0.0000
    Dipole Moment (Debye)
         X      -0.0019      Y      -0.0037      Z      -0.0063
       Tot       0.0075
    Quadrupole Moments (Debye-Ang)
        XX      -9.0734     XY       0.5360     YY      -9.3219
        XZ      -0.3852     YZ      -0.1481     ZZ      -9.1230

 Final energy is   -40.2740068989734
 **  OPTIMIZATION CONVERGED  **
 Total job time:  20.16s(wall), 204.80s(cpu)
        *  Thank you very much for using Q-Chem.  Have a nice day.  *
