 Q-Chem 5.1, Q-Chem, Inc., Pleasanton, CA (2018)
 Q-Chem 5.1.1 for Intel X86 EM64T Linux

User input:
--------------------------------------------------------------

$comment
potential surface scanner
$end

$rem
JOBTYPE  PES_SCAN
UNRESTRICTED TRUE
SYM_IGNORE  TRUE
GEOM_OPT_MAX_CYCLES 400
SCF_MAX_CYCLES 400
METHOD   B3LYP
BASIS   6-31G**
PDB_PRINT 2
SCF_CONVERGENCE 6
THRESH 14
SCF_PRINT 1
$end
$molecule
0 1
H 0.568480 0.173137 1.006105
C -0.015336 -0.004690 -0.027112
H 0.200437 0.829339 -0.696207
H 0.330934 -0.941694 -0.465232
H -1.084615 -0.056193 0.182247
$end
$scan
stre 1 2 1.300000 1.301000 0.100000
$end
--------------------------------------------------------------

    7     -40.5181422132      1.78e-07  Convergence criterion met
 Total energy in the final basis set =      -40.5181422132
    7     -40.5061157879      2.61e-07  Convergence criterion met
 Total energy in the final basis set =      -40.5061157879
    7     -40.5058033405      1.53e-07  Convergence criterion met
 Total energy in the final basis set =      -40.5058033405

             Standard Nuclear Orientation (Angstroms)
    I     Atom           X                Y                Z
 ----------------------------------------------------------------
    1      H       0.6023931997     0.1834590544     1.0660755003
    2      C      -0.0300912418    -0.0091961398    -0.0532311593
    3      H       0.1956834378     0.8311890591    -0.7090533155
    4      H       0.3267537221    -0.9474249887    -0.4770906874
    5      H      -1.0948391178    -0.0581279849     0.1731006618
 ----------------------------------------------------------------

    7     -40.5058105491      3.25e-07  Convergence criterion met
 Total energy in the final basis set =      -40.5058105491

                    Orbital Energies (a.u.)
 --------------------------------------------------------------

 Alpha MOs
 -- Occupied --
-10.187  -0.680  -0.395  -0.395  -0.353

 Beta MOs
 -- Occupied --
-10.187  -0.680  -0.395  -0.395  -0.353

          Ground-State Mulliken Net Atomic Charges

     Atom                 Charge (a.u.)    Spin (a.u.)
  --------------------------------------------------------
      1 H                     0.070950      -0.000000
      2 C                    -0.445119      -0.000000
      3 H                     0.124724      -0.000000
      4 H                     0.124722      -0.000000
      5 H                     0.124723      -0.000000
  --------------------------------------------------------
  Sum of atomic charges =    -0.000000

                    Cartesian Multipole Moments
 -----------------------------------------------------------------
    Charge (ESU x 10^10)
                -0.0000
    Dipole Moment (Debye)
         X      -0.0828      Y      -0.0252      Z      -0.1465
       Tot       0.1701
    Quadrupole Moments (Debye-Ang)
        XX      -8.3590     XY      -0.0076     YY      -8.3363
        XZ      -0.0444     YZ      -0.0135     ZZ      -8.4128

 Final energy is   -40.5058105491499
 **  OPTIMIZATION CONVERGED  **
 Total job time:  10.64s(wall), 100.42s(cpu)
        *  Thank you very much for using Q-Chem.  Have a nice day.  *
