 Q-Chem 5.1, Q-Chem, Inc., Pleasanton, CA (2018)
 Q-Chem 5.1.1 for Intel X86 EM64T Linux

User input:
--------------------------------------------------------------

$comment
potential surface scanner
$end

$rem
JOBTYPE  PES_SCAN
UNRESTRICTED TRUE
SYM_IGNORE  TRUE
GEOM_OPT_MAX_CYCLES 400
SCF_MAX_CYCLES 400
METHOD   B3LYP
BASIS   6-31G**
PDB_PRINT 2
SCF_CONVERGENCE 6
THRESH 14
SCF_PRINT 1
$end
$molecule
0 3
H 0.989098 0.320731 1.772555
C -0.262815 -0.084320 -0.469910
H 0.168837 0.849708 -0.804880
H 0.276785 -1.010979 -0.614729
H -1.172008 -0.075238 0.116762
$end
$scan
stre 1 2 2.500000 2.501000 0.100000
$end
--------------------------------------------------------------

    8     -40.3373543117      2.52e-07  Convergence criterion met
 Total energy in the final basis set =      -40.3373543117
    8     -40.3353012826      2.95e-07  Convergence criterion met
 Total energy in the final basis set =      -40.3353012826
    8     -40.3355047345      2.88e-07  Convergence criterion met
 Total energy in the final basis set =      -40.3355047345
    8     -40.3355516532      2.86e-07  Convergence criterion met
 Total energy in the final basis set =      -40.3355516532
    8     -40.3355562498      2.88e-07  Convergence criterion met
 Total energy in the final basis set =      -40.3355562498
    8     -40.3355984186      3.26e-07  Convergence criterion met
 Total energy in the final basis set =      -40.3355984186
    8     -40.3355994847      3.26e-07  Convergence criterion met
 Total energy in the final basis set =      -40.3355994847
    8     -40.3356009718      3.25e-07  Convergence criterion met
 Total energy in the final basis set =      -40.3356009718

             Standard Nuclear Orientation (Angstroms)
    I     Atom           X                Y                Z
 ----------------------------------------------------------------
    1      H       0.9426627816     0.3150082108     1.7002355852
    2      C      -0.2555740070    -0.0824947889    -0.4575924284
    3      H       0.1859444274     0.8513589523    -0.7801163187
    4      H       0.2819315162    -1.0099653190    -0.6066499669
    5      H      -1.1550677182    -0.0740050553     0.1439211288
 ----------------------------------------------------------------

    8     -40.3356013758      3.24e-07  Convergence criterion met
 Total energy in the final basis set =      -40.3356013758

                    Orbital Energies (a.u.)
 --------------------------------------------------------------

 Alpha MOs
 -- Occupied --
-10.189  -0.682  -0.415  -0.415  -0.320  -0.210

 Beta MOs
 -- Occupied --
-10.175  -0.640  -0.405  -0.405

          Ground-State Mulliken Net Atomic Charges

     Atom                 Charge (a.u.)    Spin (a.u.)
  --------------------------------------------------------
      1 H                    -0.000296       0.998976
      2 C                    -0.367547       1.143960
      3 H                     0.122580      -0.047646
      4 H                     0.122699      -0.047640
      5 H                     0.122564      -0.047651
  --------------------------------------------------------
  Sum of atomic charges =     0.000000

                    Cartesian Multipole Moments
 -----------------------------------------------------------------
    Charge (ESU x 10^10)
                 0.0000
    Dipole Moment (Debye)
         X       0.0481      Y       0.0062      Z       0.0756
       Tot       0.0898
    Quadrupole Moments (Debye-Ang)
        XX      -8.8109     XY      -0.1181     YY      -8.3240
        XZ      -0.8750     YZ      -0.2046     ZZ      -9.7688

 Final energy is   -40.3356013758016
 **  OPTIMIZATION CONVERGED  **
 Total job time:  27.09s(wall), 209.52s(cpu)
        *  Thank you very much for using Q-Chem.  Have a nice day.  *
