 Q-Chem 5.1, Q-Chem, Inc., Pleasanton, CA (2018)
 Q-Chem 5.1.1 for Intel X86 EM64T Linux

User input:
--------------------------------------------------------------

$comment
potential surface scanner
$end

$rem
JOBTYPE  PES_SCAN
UNRESTRICTED TRUE
SYM_IGNORE  TRUE
GEOM_OPT_MAX_CYCLES 400
SCF_MAX_CYCLES 400
METHOD   B3LYP
BASIS   6-31G**
PDB_PRINT 2
SCF_CONVERGENCE 6
THRESH 14
SCF_PRINT 1
$end
$molecule
0 1
H 0.498850 0.151907 0.882930
C 0.012364 0.003780 0.021890
H 0.211427 0.826734 -0.668654
H 0.340917 -0.930576 -0.439425
H -1.063658 -0.051946 0.203059
$end
$scan
stre 1 2 1.100000 1.101000 0.100000
$end
--------------------------------------------------------------

    7     -40.5177480912      1.30e-07  Convergence criterion met
 Total energy in the final basis set =      -40.5177480912
    7     -40.5239250936      1.03e-07  Convergence criterion met
 Total energy in the final basis set =      -40.5239250936
    6     -40.5239611917      7.66e-07  Convergence criterion met
 Total energy in the final basis set =      -40.5239611917

             Standard Nuclear Orientation (Angstroms)
    I     Atom           X                Y                Z
 ----------------------------------------------------------------
    1      H       0.5340218218     0.1626308609     0.9451322156
    2      C      -0.0011483502    -0.0003454483    -0.0019849955
    3      H       0.2056469361     0.8278135289    -0.6827821696
    4      H       0.3356121695    -0.9360546335    -0.4527224506
    5      H      -1.0742325772    -0.0541453080     0.1921574001
 ----------------------------------------------------------------

    6     -40.5239646620      3.24e-07  Convergence criterion met
 Total energy in the final basis set =      -40.5239646620

                    Orbital Energies (a.u.)
 --------------------------------------------------------------

 Alpha MOs
 -- Occupied --
-10.168  -0.690  -0.389  -0.389  -0.387

 Beta MOs
 -- Occupied --
-10.168  -0.690  -0.389  -0.389  -0.387

          Ground-State Mulliken Net Atomic Charges

     Atom                 Charge (a.u.)    Spin (a.u.)
  --------------------------------------------------------
      1 H                     0.116122       0.000000
      2 C                    -0.469735      -0.000000
      3 H                     0.117874       0.000000
      4 H                     0.117866       0.000000
      5 H                     0.117873       0.000000
  --------------------------------------------------------
  Sum of atomic charges =    -0.000000

                    Cartesian Multipole Moments
 -----------------------------------------------------------------
    Charge (ESU x 10^10)
                -0.0000
    Dipole Moment (Debye)
         X      -0.0022      Y      -0.0007      Z      -0.0040
       Tot       0.0046
    Quadrupole Moments (Debye-Ang)
        XX      -8.2508     XY      -0.0000     YY      -8.2507
        XZ      -0.0008     YZ      -0.0002     ZZ      -8.2516

 Final energy is   -40.5239646620307
 **  OPTIMIZATION CONVERGED  **
 Total job time:  10.86s(wall), 95.24s(cpu)
        *  Thank you very much for using Q-Chem.  Have a nice day.  *
