 Q-Chem 5.1, Q-Chem, Inc., Pleasanton, CA (2018)
 Q-Chem 5.1.1 for Intel X86 EM64T Linux

User input:
--------------------------------------------------------------

$comment
potential surface scanner
$end

$rem
JOBTYPE  PES_SCAN
UNRESTRICTED TRUE
SYM_IGNORE  TRUE
GEOM_OPT_MAX_CYCLES 400
SCF_MAX_CYCLES 400
METHOD   B3LYP
BASIS   6-31G**
PDB_PRINT 2
SCF_CONVERGENCE 6
THRESH 14
SCF_PRINT 1
$end
$molecule
0 3
H 0.376151 0.794983 1.351413
C -0.090249 -0.191346 -0.324781
H 0.703041 0.542607 -0.364768
H -0.343030 -0.727767 -1.236790
H -0.646017 -0.418576 0.574726
$end
$scan
stre 1 2 1.900000 1.901000 0.100000
$end
--------------------------------------------------------------

    8     -40.3295093633      6.00e-07  Convergence criterion met
 Total energy in the final basis set =      -40.3295093633
    8     -40.3247880677      5.33e-07  Convergence criterion met
 Total energy in the final basis set =      -40.3247880677
    8     -40.3249789003      5.42e-07  Convergence criterion met
 Total energy in the final basis set =      -40.3249789003
    8     -40.3250701771      5.62e-07  Convergence criterion met
 Total energy in the final basis set =      -40.3250701771
    8     -40.3250905849      5.79e-07  Convergence criterion met
 Total energy in the final basis set =      -40.3250905849
    8     -40.3250951886      5.85e-07  Convergence criterion met
 Total energy in the final basis set =      -40.3250951886

             Standard Nuclear Orientation (Angstroms)
    I     Atom           X                Y                Z
 ----------------------------------------------------------------
    1      H       0.3581727141     0.7575766575     1.2881318737
    2      C      -0.0845418473    -0.1792761426    -0.3044485987
    3      H       0.7097915297     0.5519438928    -0.3550571812
    4      H      -0.3379615389    -0.7167406321    -1.2180289988
    5      H      -0.6455648576    -0.4136027756     0.5892029051
 ----------------------------------------------------------------

    8     -40.3250954064      5.86e-07  Convergence criterion met
 Total energy in the final basis set =      -40.3250954064

                    Orbital Energies (a.u.)
 --------------------------------------------------------------

 Alpha MOs
 -- Occupied --
-10.204  -0.702  -0.448  -0.439  -0.251  -0.238

 Beta MOs
 -- Occupied --
-10.188  -0.655  -0.424  -0.418

          Ground-State Mulliken Net Atomic Charges

     Atom                 Charge (a.u.)    Spin (a.u.)
  --------------------------------------------------------
      1 H                    -0.052309       0.939793
      2 C                    -0.358656       1.152885
      3 H                     0.146780      -0.048339
      4 H                     0.117406       0.003992
      5 H                     0.146779      -0.048331
  --------------------------------------------------------
  Sum of atomic charges =     0.000000

                    Cartesian Multipole Moments
 -----------------------------------------------------------------
    Charge (ESU x 10^10)
                 0.0000
    Dipole Moment (Debye)
         X      -0.1291      Y      -0.2715      Z      -0.4629
       Tot       0.5520
    Quadrupole Moments (Debye-Ang)
        XX      -8.8860     XY       0.6897     YY      -9.3109
        XZ      -0.6166     YZ      -0.3860     ZZ      -9.2440

 Final energy is   -40.3250954064428
 **  OPTIMIZATION CONVERGED  **
 Total job time:  16.12s(wall), 160.85s(cpu)
        *  Thank you very much for using Q-Chem.  Have a nice day.  *
