 Q-Chem 5.1, Q-Chem, Inc., Pleasanton, CA (2018)
 Q-Chem 5.1.1 for Intel X86 EM64T Linux

User input:
--------------------------------------------------------------

$comment
potential surface scanner
$end

$rem
JOBTYPE  PES_SCAN
UNRESTRICTED TRUE
SYM_IGNORE  TRUE
GEOM_OPT_MAX_CYCLES 400
SCF_MAX_CYCLES 400
METHOD   B3LYP
BASIS   6-31G**
PDB_PRINT 2
SCF_CONVERGENCE 6
THRESH 14
SCF_PRINT 1
$end
$molecule
0 1
H 1.002570 0.305480 1.774643
C -0.213524 -0.065093 -0.377981
H 0.137511 0.841534 -0.850504
H 0.273237 -1.001896 -0.610326
H -1.199895 -0.080128 0.063968
$end
$scan
stre 1 2 2.600000 2.601000 0.100000
$end
--------------------------------------------------------------

    9     -40.3415610678      4.35e-07  Convergence criterion met
 Total energy in the final basis set =      -40.3415610678
    9     -40.3335516553      2.13e-07  Convergence criterion met
 Total energy in the final basis set =      -40.3335516553
    9     -40.3334094249      4.54e-07  Convergence criterion met
 Total energy in the final basis set =      -40.3334094249

             Standard Nuclear Orientation (Angstroms)
    I     Atom           X                Y                Z
 ----------------------------------------------------------------
    1      H       1.0378031829     0.3162770160     1.8370176847
    2      C      -0.2269293434    -0.0691908930    -0.4017018846
    3      H       0.1306591725     0.8401921582    -0.8636874341
    4      H       0.2664276159    -1.0050182739    -0.6234236122
    5      H      -1.2080616280    -0.0823630072     0.0515952463
 ----------------------------------------------------------------

    9     -40.3334128910      5.89e-07  Convergence criterion met
 Total energy in the final basis set =      -40.3334128910

                    Orbital Energies (a.u.)
 --------------------------------------------------------------

 Alpha MOs
 -- Occupied --
-10.247  -0.698  -0.443  -0.443  -0.230

 Beta MOs
 -- Occupied --
-10.247  -0.698  -0.443  -0.443  -0.230

          Ground-State Mulliken Net Atomic Charges

     Atom                 Charge (a.u.)    Spin (a.u.)
  --------------------------------------------------------
      1 H                    -0.149059      -0.000000
      2 C                    -0.330479       0.000000
      3 H                     0.159854      -0.000000
      4 H                     0.159835       0.000000
      5 H                     0.159850      -0.000000
  --------------------------------------------------------
  Sum of atomic charges =    -0.000000

                    Cartesian Multipole Moments
 -----------------------------------------------------------------
    Charge (ESU x 10^10)
                -0.0000
    Dipole Moment (Debye)
         X      -0.9831      Y      -0.2995      Z      -1.7400
       Tot       2.0208
    Quadrupole Moments (Debye-Ang)
        XX      -8.9536     XY      -0.2258     YY      -8.2801
        XZ      -1.3136     YZ      -0.3996     ZZ     -10.5355

 Final energy is   -40.3334128909827
 **  OPTIMIZATION CONVERGED  **
 Total job time:  10.24s(wall), 100.20s(cpu)
        *  Thank you very much for using Q-Chem.  Have a nice day.  *
