 Q-Chem 5.1, Q-Chem, Inc., Pleasanton, CA (2018)
 Q-Chem 5.1.1 for Intel X86 EM64T Linux

User input:
--------------------------------------------------------------

$comment
potential surface scanner
$end

$rem
JOBTYPE  PES_SCAN
UNRESTRICTED TRUE
SYM_IGNORE  TRUE
GEOM_OPT_MAX_CYCLES 400
SCF_MAX_CYCLES 400
METHOD   B3LYP
BASIS   6-31G**
PDB_PRINT 2
SCF_CONVERGENCE 6
THRESH 14
SCF_PRINT 1
$end
$molecule
0 3
H 0.280732 0.591848 1.002174
C -0.000606 -0.001362 -0.002291
H 0.817788 0.582219 -0.571024
H -0.280980 -0.592280 -1.002766
H -0.817039 -0.580527 0.573709
$end
$scan
stre 1 2 1.100000 1.101000 0.100000
$end
--------------------------------------------------------------

    8     -40.2740068988      2.14e-07  Convergence criterion met
 Total energy in the final basis set =      -40.2740068988
    8     -40.2721542322      5.49e-07  Convergence criterion met
 Total energy in the final basis set =      -40.2721542322
    8     -40.2721349710      5.59e-07  Convergence criterion met
 Total energy in the final basis set =      -40.2721349710
    8     -40.2723245445      5.79e-07  Convergence criterion met
 Total energy in the final basis set =      -40.2723245445
    8     -40.2723417148      5.81e-07  Convergence criterion met
 Total energy in the final basis set =      -40.2723417148
    8     -40.2724643726      6.20e-07  Convergence criterion met
 Total energy in the final basis set =      -40.2724643726
    8     -40.2725690541      6.81e-07  Convergence criterion met
 Total energy in the final basis set =      -40.2725690541
    9     -40.2676355754      3.51e-07  Convergence criterion met
    8     -40.3426554237      3.07e-07  Convergence criterion met
 Total energy in the final basis set =      -40.3426554237
    8     -40.3428624831      3.02e-07  Convergence criterion met
 Total energy in the final basis set =      -40.3428624831
    8     -40.3429510956      2.97e-07  Convergence criterion met
 Total energy in the final basis set =      -40.3429510956
    8     -40.3429825807      2.94e-07  Convergence criterion met
 Total energy in the final basis set =      -40.3429825807
    8     -40.3429929570      2.92e-07  Convergence criterion met
 Total energy in the final basis set =      -40.3429929570
    8     -40.3429965684      2.90e-07  Convergence criterion met
 Total energy in the final basis set =      -40.3429965684

             Standard Nuclear Orientation (Angstroms)
    I     Atom           X                Y                Z
 ----------------------------------------------------------------
    1      H       0.4274976938     0.9006227052     1.5265336106
    2      C       0.1696554843     0.3579425389     0.6051131673
    3      H       0.7073823476     0.5639423859    -0.3108976047
    4      H      -0.6840666746    -1.4415923408    -2.4384635813
    5      H      -0.6205738511    -0.3810172891     0.6175164081
 ----------------------------------------------------------------

    8     -40.3429971164      2.89e-07  Convergence criterion met
 Total energy in the final basis set =      -40.3429971164

                    Orbital Energies (a.u.)
 --------------------------------------------------------------

 Alpha MOs
 -- Occupied --
-10.194  -0.679  -0.416  -0.412  -0.317  -0.224

 Beta MOs
 -- Occupied --
-10.179  -0.638  -0.406  -0.402

          Ground-State Mulliken Net Atomic Charges

     Atom                 Charge (a.u.)    Spin (a.u.)
  --------------------------------------------------------
      1 H                     0.120495      -0.047910
      2 C                    -0.367651       1.148589
      3 H                     0.123086      -0.049349
      4 H                     0.001000       0.998029
      5 H                     0.123070      -0.049360
  --------------------------------------------------------
  Sum of atomic charges =    -0.000000

                    Cartesian Multipole Moments
 -----------------------------------------------------------------
    Charge (ESU x 10^10)
                -0.0000
    Dipole Moment (Debye)
         X      -0.0044      Y      -0.0104      Z      -0.0168
       Tot       0.0203
    Quadrupole Moments (Debye-Ang)
        XX      -9.0083     XY       0.7617     YY      -9.0905
        XZ      -0.2336     YZ       0.2879     ZZ      -8.3435

 Final energy is   -40.3429971164102
 **  OPTIMIZATION CONVERGED  **
 Total job time:  56.46s(wall), 572.44s(cpu)
        *  Thank you very much for using Q-Chem.  Have a nice day.  *
