 Q-Chem 5.1, Q-Chem, Inc., Pleasanton, CA (2018)
 Q-Chem 5.1.1 for Intel X86 EM64T Linux

User input:
--------------------------------------------------------------

$comment
potential surface scanner
$end

$rem
JOBTYPE  PES_SCAN
UNRESTRICTED TRUE
SYM_IGNORE  TRUE
GEOM_OPT_MAX_CYCLES 400
SCF_MAX_CYCLES 400
METHOD   B3LYP
BASIS   6-31G**
PDB_PRINT 2
SCF_CONVERGENCE 6
THRESH 14
SCF_PRINT 1
$end
$molecule
0 3
H 1.239108 0.383402 2.199590
C -0.313660 -0.097165 -0.556851
H 0.097113 0.832155 -0.928903
H 0.223927 -1.024413 -0.705244
H -1.246590 -0.094079 -0.008792
$end
$scan
stre 1 2 3.100000 3.101000 0.100000
$end
--------------------------------------------------------------

    7     -40.3420191417      9.90e-07  Convergence criterion met
 Total energy in the final basis set =      -40.3420191417
    8     -40.3413158591      2.97e-07  Convergence criterion met
 Total energy in the final basis set =      -40.3413158591
    8     -40.3415522173      3.00e-07  Convergence criterion met
 Total energy in the final basis set =      -40.3415522173
    8     -40.3416257912      2.94e-07  Convergence criterion met
 Total energy in the final basis set =      -40.3416257912
    8     -40.3416288475      2.88e-07  Convergence criterion met
 Total energy in the final basis set =      -40.3416288475
    7     -40.3416585517      9.28e-07  Convergence criterion met
 Total energy in the final basis set =      -40.3416585517

             Standard Nuclear Orientation (Angstroms)
    I     Atom           X                Y                Z
 ----------------------------------------------------------------
    1      H       1.1988377010     0.3721048234     2.1292652901
    2      C      -0.3047042015    -0.0946642439    -0.5412197885
    3      H       0.1080481812     0.8352115240    -0.9096880141
    4      H       0.2332869723    -1.0217889151    -0.6888984685
    5      H      -1.2355706529    -0.0909631884     0.0103409810
 ----------------------------------------------------------------

    7     -40.3416589071      9.96e-07  Convergence criterion met
 Total energy in the final basis set =      -40.3416589071

                    Orbital Energies (a.u.)
 --------------------------------------------------------------

 Alpha MOs
 -- Occupied --
-10.191  -0.681  -0.415  -0.415  -0.314  -0.221

 Beta MOs
 -- Occupied --
-10.177  -0.639  -0.405  -0.405

          Ground-State Mulliken Net Atomic Charges

     Atom                 Charge (a.u.)    Spin (a.u.)
  --------------------------------------------------------
      1 H                     0.000489       0.999287
      2 C                    -0.367330       1.145451
      3 H                     0.122265      -0.048247
      4 H                     0.122316      -0.048242
      5 H                     0.122260      -0.048249
  --------------------------------------------------------
  Sum of atomic charges =    -0.000000

                    Cartesian Multipole Moments
 -----------------------------------------------------------------
    Charge (ESU x 10^10)
                -0.0000
    Dipole Moment (Debye)
         X       0.0177      Y       0.0049      Z       0.0308
       Tot       0.0359
    Quadrupole Moments (Debye-Ang)
        XX      -8.6966     XY      -0.1131     YY      -8.3211
        XZ      -0.7033     YZ      -0.1933     ZZ      -9.5148

 Final energy is   -40.3416589071134
 **  OPTIMIZATION CONVERGED  **
 Total job time:  15.59s(wall), 155.08s(cpu)
        *  Thank you very much for using Q-Chem.  Have a nice day.  *
