 Q-Chem 5.1, Q-Chem, Inc., Pleasanton, CA (2018)
 Q-Chem 5.1.1 for Intel X86 EM64T Linux

User input:
--------------------------------------------------------------

$comment
potential surface scanner
$end

$rem
JOBTYPE  PES_SCAN
UNRESTRICTED TRUE
SYM_IGNORE  TRUE
GEOM_OPT_MAX_CYCLES 400
SCF_MAX_CYCLES 400
METHOD   B3LYP
BASIS   6-31G**
PDB_PRINT 2
SCF_CONVERGENCE 6
THRESH 14
SCF_PRINT 1
$end
$molecule
0 3
H 1.279038 0.394780 2.269518
C -0.322839 -0.099767 -0.572913
H 0.086435 0.829110 -0.947694
H 0.214572 -1.027065 -0.721617
H -1.257308 -0.097158 -0.027494
$end
$scan
stre 1 2 3.200000 3.201000 0.100000
$end
--------------------------------------------------------------

    7     -40.3422929001      9.63e-07  Convergence criterion met
 Total energy in the final basis set =      -40.3422929001
    8     -40.3416776544      2.91e-07  Convergence criterion met
 Total energy in the final basis set =      -40.3416776544
    8     -40.3419121063      2.97e-07  Convergence criterion met
 Total energy in the final basis set =      -40.3419121063
    8     -40.3419870881      2.92e-07  Convergence criterion met
 Total energy in the final basis set =      -40.3419870881
    8     -40.3419900846      2.85e-07  Convergence criterion met
 Total energy in the final basis set =      -40.3419900846
    7     -40.3420187620      9.16e-07  Convergence criterion met
 Total energy in the final basis set =      -40.3420187620

             Standard Nuclear Orientation (Angstroms)
    I     Atom           X                Y                Z
 ----------------------------------------------------------------
    1      H       1.2391079467     0.3834015932     2.1995899868
    2      C      -0.3136602642    -0.0971651273    -0.5568513214
    3      H       0.0971132614     0.8321553724    -0.9289031143
    4      H       0.2239274467    -1.0244129094    -0.7052437516
    5      H      -1.2465903906    -0.0940789290    -0.0087917995
 ----------------------------------------------------------------

    7     -40.3420191427      9.90e-07  Convergence criterion met
 Total energy in the final basis set =      -40.3420191427

                    Orbital Energies (a.u.)
 --------------------------------------------------------------

 Alpha MOs
 -- Occupied --
-10.191  -0.681  -0.415  -0.415  -0.313  -0.222

 Beta MOs
 -- Occupied --
-10.177  -0.640  -0.405  -0.405

          Ground-State Mulliken Net Atomic Charges

     Atom                 Charge (a.u.)    Spin (a.u.)
  --------------------------------------------------------
      1 H                     0.000441       0.999384
      2 C                    -0.367525       1.145497
      3 H                     0.122350      -0.048294
      4 H                     0.122387      -0.048291
      5 H                     0.122347      -0.048296
  --------------------------------------------------------
  Sum of atomic charges =    -0.000000

                    Cartesian Multipole Moments
 -----------------------------------------------------------------
    Charge (ESU x 10^10)
                -0.0000
    Dipole Moment (Debye)
         X       0.0143      Y       0.0041      Z       0.0251
       Tot       0.0292
    Quadrupole Moments (Debye-Ang)
        XX      -8.6889     XY      -0.1122     YY      -8.3212
        XZ      -0.6918     YZ      -0.1926     ZZ      -9.4968

 Final energy is   -40.3420191426983
 **  OPTIMIZATION CONVERGED  **
 Total job time:  15.50s(wall), 154.68s(cpu)
        *  Thank you very much for using Q-Chem.  Have a nice day.  *
