 Q-Chem 5.1, Q-Chem, Inc., Pleasanton, CA (2018)
 Q-Chem 5.1.1 for Intel X86 EM64T Linux

User input:
--------------------------------------------------------------

$comment
potential surface scanner
$end

$rem
JOBTYPE  PES_SCAN
UNRESTRICTED TRUE
SYM_IGNORE  TRUE
GEOM_OPT_MAX_CYCLES 400
SCF_MAX_CYCLES 400
METHOD   B3LYP
BASIS   6-31G**
PDB_PRINT 2
SCF_CONVERGENCE 6
THRESH 14
SCF_PRINT 1
$end
$molecule
0 3
H 1.318773 0.406225 2.339140
C -0.332186 -0.102444 -0.589272
H 0.075963 0.826080 -0.966119
H 0.205224 -1.029734 -0.737980
H -1.267876 -0.100228 -0.045969
$end
$scan
stre 1 2 3.300000 3.301000 0.100000
$end
--------------------------------------------------------------

    7     -40.3425014657      9.23e-07  Convergence criterion met
 Total energy in the final basis set =      -40.3425014657
    8     -40.3419545278      2.91e-07  Convergence criterion met
 Total energy in the final basis set =      -40.3419545278
    8     -40.3421860808      2.97e-07  Convergence criterion met
 Total energy in the final basis set =      -40.3421860808
    8     -40.3422615311      2.92e-07  Convergence criterion met
 Total energy in the final basis set =      -40.3422615311
    8     -40.3422644876      2.86e-07  Convergence criterion met
 Total energy in the final basis set =      -40.3422644876
    7     -40.3422925258      8.91e-07  Convergence criterion met
 Total energy in the final basis set =      -40.3422925258

             Standard Nuclear Orientation (Angstroms)
    I     Atom           X                Y                Z
 ----------------------------------------------------------------
    1      H       1.2790377979     0.3947801160     2.2695182114
    2      C      -0.3228386014    -0.0997672915    -0.5729133237
    3      H       0.0864349814     0.8291098892    -0.9476942646
    4      H       0.2145716738    -1.0270653687    -0.7216168516
    5      H      -1.2573078517    -0.0971583450    -0.0274937714
 ----------------------------------------------------------------

    7     -40.3422929006      9.64e-07  Convergence criterion met
 Total energy in the final basis set =      -40.3422929006

                    Orbital Energies (a.u.)
 --------------------------------------------------------------

 Alpha MOs
 -- Occupied --
-10.191  -0.681  -0.415  -0.415  -0.313  -0.223

 Beta MOs
 -- Occupied --
-10.177  -0.640  -0.405  -0.405

          Ground-State Mulliken Net Atomic Charges

     Atom                 Charge (a.u.)    Spin (a.u.)
  --------------------------------------------------------
      1 H                     0.000386       0.999479
      2 C                    -0.367685       1.145514
      3 H                     0.122424      -0.048330
      4 H                     0.122451      -0.048330
      5 H                     0.122423      -0.048333
  --------------------------------------------------------
  Sum of atomic charges =    -0.000000

                    Cartesian Multipole Moments
 -----------------------------------------------------------------
    Charge (ESU x 10^10)
                -0.0000
    Dipole Moment (Debye)
         X       0.0117      Y       0.0034      Z       0.0205
       Tot       0.0239
    Quadrupole Moments (Debye-Ang)
        XX      -8.6834     XY      -0.1117     YY      -8.3214
        XZ      -0.6837     YZ      -0.1924     ZZ      -9.4843

 Final energy is   -40.3422929006375
 **  OPTIMIZATION CONVERGED  **
 Total job time:  15.64s(wall), 156.31s(cpu)
        *  Thank you very much for using Q-Chem.  Have a nice day.  *
