 Q-Chem 5.1, Q-Chem, Inc., Pleasanton, CA (2018)
 Q-Chem 5.1.1 for Intel X86 EM64T Linux

User input:
--------------------------------------------------------------

$comment
potential surface scanner
$end

$rem
JOBTYPE  PES_SCAN
UNRESTRICTED TRUE
SYM_IGNORE  TRUE
GEOM_OPT_MAX_CYCLES 400
SCF_MAX_CYCLES 400
METHOD   B3LYP
BASIS   6-31G**
PDB_PRINT 2
SCF_CONVERGENCE 6
THRESH 14
SCF_PRINT 1
$end
$molecule
0 3
H 1.158119 0.360953 2.058538
C -0.295977 -0.092281 -0.526067
H 0.119288 0.838261 -0.890007
H 0.242589 -1.019227 -0.672722
H -1.224122 -0.087805 0.030057
$end
$scan
stre 1 2 2.900000 2.901000 0.100000
$end
--------------------------------------------------------------

    7     -40.3411852134      9.76e-07  Convergence criterion met
 Total energy in the final basis set =      -40.3411852134
    8     -40.3402269840      3.16e-07  Convergence criterion met
 Total energy in the final basis set =      -40.3402269840
    8     -40.3404615250      3.12e-07  Convergence criterion met
 Total energy in the final basis set =      -40.3404615250
    8     -40.3405297071      3.05e-07  Convergence criterion met
 Total energy in the final basis set =      -40.3405297071
    8     -40.3405329471      3.03e-07  Convergence criterion met
 Total energy in the final basis set =      -40.3405329471
    7     -40.3405652245      8.89e-07  Convergence criterion met
 Total energy in the final basis set =      -40.3405652245

             Standard Nuclear Orientation (Angstroms)
    I     Atom           X                Y                Z
 ----------------------------------------------------------------
    1      H       1.1169180227     0.3500363475     1.9875058663
    2      C      -0.2874244086    -0.0900155806    -0.5113296135
    3      H       0.1308490132     0.8412777912    -0.8698731541
    4      H       0.2517376110    -1.0167772659    -0.6569126199
    5      H      -1.2121832382    -0.0846202922     0.0504085212
 ----------------------------------------------------------------

    7     -40.3405655009      9.22e-07  Convergence criterion met
 Total energy in the final basis set =      -40.3405655009

                    Orbital Energies (a.u.)
 --------------------------------------------------------------

 Alpha MOs
 -- Occupied --
-10.190  -0.681  -0.415  -0.415  -0.315  -0.219

 Beta MOs
 -- Occupied --
-10.176  -0.639  -0.405  -0.405

          Ground-State Mulliken Net Atomic Charges

     Atom                 Charge (a.u.)    Spin (a.u.)
  --------------------------------------------------------
      1 H                     0.000519       0.999102
      2 C                    -0.367001       1.145267
      3 H                     0.122131      -0.048126
      4 H                     0.122227      -0.048116
      5 H                     0.122123      -0.048128
  --------------------------------------------------------
  Sum of atomic charges =     0.000000

                    Cartesian Multipole Moments
 -----------------------------------------------------------------
    Charge (ESU x 10^10)
                 0.0000
    Dipole Moment (Debye)
         X       0.0262      Y       0.0068      Z       0.0451
       Tot       0.0526
    Quadrupole Moments (Debye-Ang)
        XX      -8.7201     XY      -0.1162     YY      -8.3211
        XZ      -0.7384     YZ      -0.1966     ZZ      -9.5699

 Final energy is   -40.3405655008998
 **  OPTIMIZATION CONVERGED  **
 Total job time:  15.50s(wall), 154.67s(cpu)
        *  Thank you very much for using Q-Chem.  Have a nice day.  *
