 Q-Chem 5.1, Q-Chem, Inc., Pleasanton, CA (2018)
 Q-Chem 5.1.1 for Intel X86 EM64T Linux

User input:
--------------------------------------------------------------

$comment
potential surface scanner
$end

$rem
JOBTYPE  PES_SCAN
UNRESTRICTED TRUE
SYM_IGNORE  TRUE
GEOM_OPT_MAX_CYCLES 400
SCF_MAX_CYCLES 400
METHOD   B3LYP
BASIS   6-31G**
PDB_PRINT 2
SCF_CONVERGENCE 6
THRESH 14
SCF_PRINT 1
$end
$molecule
0 3
H 0.308386 0.652883 1.110359
C -0.064045 -0.135946 -0.230926
H 0.736741 0.579179 -0.348572
H -0.320936 -0.680289 -1.156065
H -0.660250 -0.415927 0.625004
$end
$scan
stre 1 2 1.500000 1.501000 0.100000
$end
--------------------------------------------------------------

    8     -40.3035510079      6.36e-07  Convergence criterion met
 Total energy in the final basis set =      -40.3035510079
    8     -40.2930124719      7.52e-07  Convergence criterion met
 Total energy in the final basis set =      -40.2930124719
    8     -40.2930407661      8.12e-07  Convergence criterion met
 Total energy in the final basis set =      -40.2930407661
    8     -40.2930878484      8.41e-07  Convergence criterion met
 Total energy in the final basis set =      -40.2930878484
    8     -40.2930975963      8.47e-07  Convergence criterion met
 Total energy in the final basis set =      -40.2930975963
    8     -40.2931087712      8.52e-07  Convergence criterion met
 Total energy in the final basis set =      -40.2931087712

             Standard Nuclear Orientation (Angstroms)
    I     Atom           X                Y                Z
 ----------------------------------------------------------------
    1      H       0.2948761760     0.6241055767     1.0610615388
    2      C      -0.0544785463    -0.1155637189    -0.1962533685
    3      H       0.7505994615     0.5868454550    -0.3647780562
    4      H      -0.3137765893    -0.6651232709    -1.1303731502
    5      H      -0.6773245019    -0.4303640419     0.6301430362
 ----------------------------------------------------------------

    8     -40.2931099691      8.50e-07  Convergence criterion met
 Total energy in the final basis set =      -40.2931099691

                    Orbital Energies (a.u.)
 --------------------------------------------------------------

 Alpha MOs
 -- Occupied --
-10.220  -0.726  -0.471  -0.462  -0.251  -0.177

 Beta MOs
 -- Occupied --
-10.204  -0.673  -0.449  -0.422

          Ground-State Mulliken Net Atomic Charges

     Atom                 Charge (a.u.)    Spin (a.u.)
  --------------------------------------------------------
      1 H                    -0.108538       0.857185
      2 C                    -0.351495       1.087580
      3 H                     0.180858      -0.018230
      4 H                     0.098327       0.091698
      5 H                     0.180848      -0.018232
  --------------------------------------------------------
  Sum of atomic charges =     0.000000

                    Cartesian Multipole Moments
 -----------------------------------------------------------------
    Charge (ESU x 10^10)
                 0.0000
    Dipole Moment (Debye)
         X      -0.1800      Y      -0.3799      Z      -0.6468
       Tot       0.7714
    Quadrupole Moments (Debye-Ang)
        XX      -8.6237     XY       0.7228     YY      -9.4004
        XZ      -1.0252     YZ      -1.0133     ZZ      -9.9015

 Final energy is   -40.2931099690635
 **  OPTIMIZATION CONVERGED  **
 Total job time:  16.11s(wall), 160.80s(cpu)
        *  Thank you very much for using Q-Chem.  Have a nice day.  *
