 Q-Chem 5.1, Q-Chem, Inc., Pleasanton, CA (2018)
 Q-Chem 5.1.1 for Intel X86 EM64T Linux

User input:
--------------------------------------------------------------

$comment
potential surface scanner
$end

$rem
JOBTYPE  PES_SCAN
UNRESTRICTED TRUE
SYM_IGNORE  TRUE
GEOM_OPT_MAX_CYCLES 400
SCF_MAX_CYCLES 400
METHOD   B3LYP
BASIS   6-31G**
PDB_PRINT 2
SCF_CONVERGENCE 6
THRESH 14
SCF_PRINT 1
$end
$molecule
0 1
H 0.933496 0.284313 1.652205
C -0.185409 -0.056499 -0.328173
H 0.150064 0.843263 -0.825329
H 0.285574 -0.995230 -0.585559
H -1.183826 -0.075951 0.086656
$end
$scan
stre 1 2 2.400000 2.401000 0.100000
$end
--------------------------------------------------------------

    8     -40.3602557107      5.19e-07  Convergence criterion met
 Total energy in the final basis set =      -40.3602557107
    9     -40.3506562871      2.22e-07  Convergence criterion met
 Total energy in the final basis set =      -40.3506562871
    9     -40.3504813653      2.18e-07  Convergence criterion met
 Total energy in the final basis set =      -40.3504813653

             Standard Nuclear Orientation (Angstroms)
    I     Atom           X                Y                Z
 ----------------------------------------------------------------
    1      H       0.9678076381     0.2948243884     1.7130444022
    2      C      -0.1996807667    -0.0608609977    -0.3534640965
    3      H       0.1439807507     0.8425692362    -0.8377266868
    4      H       0.2796260131    -0.9986451644    -0.5977064493
    5      H      -1.1918346351    -0.0779914626     0.0756528304
 ----------------------------------------------------------------

    9     -40.3504863300      2.11e-07  Convergence criterion met
 Total energy in the final basis set =      -40.3504863300

                    Orbital Energies (a.u.)
 --------------------------------------------------------------

 Alpha MOs
 -- Occupied --
-10.243  -0.694  -0.438  -0.438  -0.239

 Beta MOs
 -- Occupied --
-10.243  -0.694  -0.438  -0.438  -0.239

          Ground-State Mulliken Net Atomic Charges

     Atom                 Charge (a.u.)    Spin (a.u.)
  --------------------------------------------------------
      1 H                    -0.136515       0.000000
      2 C                    -0.332648      -0.000000
      3 H                     0.156392       0.000000
      4 H                     0.156385       0.000000
      5 H                     0.156386       0.000000
  --------------------------------------------------------
  Sum of atomic charges =    -0.000000

                    Cartesian Multipole Moments
 -----------------------------------------------------------------
    Charge (ESU x 10^10)
                -0.0000
    Dipole Moment (Debye)
         X      -0.8684      Y      -0.2645      Z      -1.5370
       Tot       1.7851
    Quadrupole Moments (Debye-Ang)
        XX      -8.8286     XY      -0.1794     YY      -8.2938
        XZ      -1.0429     YZ      -0.3174     ZZ     -10.0844

 Final energy is   -40.3504863299972
 **  OPTIMIZATION CONVERGED  **
 Total job time:  10.73s(wall), 98.84s(cpu)
        *  Thank you very much for using Q-Chem.  Have a nice day.  *
