 Q-Chem 5.1, Q-Chem, Inc., Pleasanton, CA (2018)
 Q-Chem 5.1.1 for Intel X86 EM64T Linux

User input:
--------------------------------------------------------------

$comment
potential surface scanner
$end

$rem
JOBTYPE  PES_SCAN
UNRESTRICTED TRUE
SYM_IGNORE  TRUE
GEOM_OPT_MAX_CYCLES 400
SCF_MAX_CYCLES 400
METHOD   B3LYP
BASIS   6-31G**
PDB_PRINT 2
SCF_CONVERGENCE 6
THRESH 14
SCF_PRINT 1
$end
$molecule
0 1
H 0.528800 0.161000 0.935900
C 0.000000 0.000000 0.000000
H 0.205100 0.824000 -0.678600
H 0.334500 -0.931400 -0.449600
H -1.068500 -0.053700 0.192100
$end
$scan
stre 1 2 0.600000 0.601000 0.100000
$end
--------------------------------------------------------------

    6     -40.5239421989      2.32e-07  Convergence criterion met
 Total energy in the final basis set =      -40.5239421989
    7     -40.5032411225      1.27e-07  Convergence criterion met
 Total energy in the final basis set =      -40.5032411225
    7     -40.4161410288      1.74e-07  Convergence criterion met
 Total energy in the final basis set =      -40.4161410288
    7     -40.3078288848      2.18e-07  Convergence criterion met
 Total energy in the final basis set =      -40.3078288848
    7     -40.0943184501      2.94e-07  Convergence criterion met
 Total energy in the final basis set =      -40.0943184501
    7     -40.0675045843      3.00e-07  Convergence criterion met
 Total energy in the final basis set =      -40.0675045843
    7     -40.0488106736      3.02e-07  Convergence criterion met
 Total energy in the final basis set =      -40.0488106736
    7     -40.0486298258      3.01e-07  Convergence criterion met
 Total energy in the final basis set =      -40.0486298258

             Standard Nuclear Orientation (Angstroms)
    I     Atom           X                Y                Z
 ----------------------------------------------------------------
    1      H       0.3496107083     0.1062323503     0.6181509726
    2      C       0.0572948113     0.0175520453     0.1017332868
    3      H       0.2411429884     0.8256609851    -0.6021232832
    4      H       0.3689529393    -0.9082040246    -0.3758399031
    5      H      -1.0171014473    -0.0413413561     0.2578789268
 ----------------------------------------------------------------

    7     -40.0486339291      2.99e-07  Convergence criterion met
 Total energy in the final basis set =      -40.0486339291

                    Orbital Energies (a.u.)
 --------------------------------------------------------------

 Alpha MOs
 -- Occupied --
-10.149  -0.756  -0.464  -0.386  -0.386

 Beta MOs
 -- Occupied --
-10.149  -0.756  -0.464  -0.386  -0.386

          Ground-State Mulliken Net Atomic Charges

     Atom                 Charge (a.u.)    Spin (a.u.)
  --------------------------------------------------------
      1 H                     0.018255       0.000000
      2 C                    -0.311513      -0.000000
      3 H                     0.097752       0.000000
      4 H                     0.097707      -0.000000
      5 H                     0.097799       0.000000
  --------------------------------------------------------
  Sum of atomic charges =    -0.000000

                    Cartesian Multipole Moments
 -----------------------------------------------------------------
    Charge (ESU x 10^10)
                -0.0000
    Dipole Moment (Debye)
         X      -0.0141      Y      -0.0045      Z      -0.0254
       Tot       0.0294
    Quadrupole Moments (Debye-Ang)
        XX      -7.7738     XY      -0.0120     YY      -7.7396
        XZ      -0.0698     YZ      -0.0220     ZZ      -7.8604

 Final energy is   -40.0486339291062
 **  OPTIMIZATION CONVERGED  **
 Total job time:  22.75s(wall), 221.32s(cpu)
        *  Thank you very much for using Q-Chem.  Have a nice day.  *
