 Q-Chem 5.1, Q-Chem, Inc., Pleasanton, CA (2018)
 Q-Chem 5.1.1 for Intel X86 EM64T Linux

User input:
--------------------------------------------------------------

$comment
potential surface scanner
$end

$rem
JOBTYPE  PES_SCAN
UNRESTRICTED TRUE
SYM_IGNORE  TRUE
GEOM_OPT_MAX_CYCLES 400
SCF_MAX_CYCLES 400
METHOD   B3LYP
BASIS   6-31G**
PDB_PRINT 2
SCF_CONVERGENCE 6
THRESH 14
SCF_PRINT 1
$end
$molecule
0 3
H 0.294876 0.624106 1.061062
C -0.054479 -0.115564 -0.196253
H 0.750599 0.586845 -0.364778
H -0.313777 -0.665123 -1.130373
H -0.677325 -0.430364 0.630143
$end
$scan
stre 1 2 1.400000 1.401000 0.100000
$end
--------------------------------------------------------------

    8     -40.2931100233      8.50e-07  Convergence criterion met
 Total energy in the final basis set =      -40.2931100233
    8     -40.2815622809      9.09e-07  Convergence criterion met
 Total energy in the final basis set =      -40.2815622809
    8     -40.2816573660      9.65e-07  Convergence criterion met
 Total energy in the final basis set =      -40.2816573660
    9     -40.2819750770      1.57e-07  Convergence criterion met
 Total energy in the final basis set =      -40.2819750770
    9     -40.2821052758      1.67e-07  Convergence criterion met
 Total energy in the final basis set =      -40.2821052758
    9     -40.2822148870      1.76e-07  Convergence criterion met
 Total energy in the final basis set =      -40.2822148870
    9     -40.2822332070      1.76e-07  Convergence criterion met
 Total energy in the final basis set =      -40.2822332070
    9     -40.2822347945      1.75e-07  Convergence criterion met
 Total energy in the final basis set =      -40.2822347945

             Standard Nuclear Orientation (Angstroms)
    I     Atom           X                Y                Z
 ----------------------------------------------------------------
    1      H       0.2858526513     0.6056543011     1.0296315966
    2      C      -0.0399291114    -0.0846621929    -0.1439653240
    3      H       0.7718889725     0.5905536477    -0.4136441405
    4      H      -0.3038518155    -0.6436826382    -1.0940307391
    5      H      -0.7140666969    -0.4679631178     0.6218096071
 ----------------------------------------------------------------

    9     -40.2822348327      1.74e-07  Convergence criterion met
 Total energy in the final basis set =      -40.2822348327

                    Orbital Energies (a.u.)
 --------------------------------------------------------------

 Alpha MOs
 -- Occupied --
-10.227  -0.729  -0.481  -0.459  -0.253  -0.158

 Beta MOs
 -- Occupied --
-10.213  -0.675  -0.454  -0.414

          Ground-State Mulliken Net Atomic Charges

     Atom                 Charge (a.u.)    Spin (a.u.)
  --------------------------------------------------------
      1 H                    -0.088114       0.768089
      2 C                    -0.363374       1.032374
      3 H                     0.183373       0.026217
      4 H                     0.084719       0.147066
      5 H                     0.183396       0.026254
  --------------------------------------------------------
  Sum of atomic charges =     0.000000

                    Cartesian Multipole Moments
 -----------------------------------------------------------------
    Charge (ESU x 10^10)
                 0.0000
    Dipole Moment (Debye)
         X      -0.1450      Y      -0.3070      Z      -0.5218
       Tot       0.6226
    Quadrupole Moments (Debye-Ang)
        XX      -8.5763     XY       0.7426     YY      -9.3869
        XZ      -1.0668     YZ      -1.0638     ZZ      -9.9226

 Final energy is   -40.2822348327445
 **  OPTIMIZATION CONVERGED  **
 Total job time:  23.26s(wall), 216.65s(cpu)
        *  Thank you very much for using Q-Chem.  Have a nice day.  *
