 Q-Chem 5.1, Q-Chem, Inc., Pleasanton, CA (2018)
 Q-Chem 5.1.1 for Intel X86 EM64T Linux

User input:
--------------------------------------------------------------

$comment
potential surface scanner
$end

$rem
JOBTYPE  PES_SCAN
UNRESTRICTED TRUE
SYM_IGNORE  TRUE
GEOM_OPT_MAX_CYCLES 400
SCF_MAX_CYCLES 400
METHOD   B3LYP
BASIS   6-31G**
PDB_PRINT 2
SCF_CONVERGENCE 6
THRESH 14
SCF_PRINT 1
$end
$molecule
0 1
H 0.528800 0.161000 0.935900
C 0.000000 0.000000 0.000000
H 0.205100 0.824000 -0.678600
H 0.334500 -0.931400 -0.449600
H -1.068500 -0.053700 0.192100
$end
$scan
stre 1 2 0.700000 0.701000 0.100000
$end
--------------------------------------------------------------

    6     -40.5239421989      2.32e-07  Convergence criterion met
 Total energy in the final basis set =      -40.5239421989
    7     -40.5032411225      1.27e-07  Convergence criterion met
 Total energy in the final basis set =      -40.5032411225
    7     -40.4161410288      1.74e-07  Convergence criterion met
 Total energy in the final basis set =      -40.4161410288
    7     -40.3250957467      2.11e-07  Convergence criterion met
 Total energy in the final basis set =      -40.3250957467
    7     -40.2986134734      2.19e-07  Convergence criterion met
 Total energy in the final basis set =      -40.2986134734
    7     -40.2948724446      2.19e-07  Convergence criterion met
 Total energy in the final basis set =      -40.2948724446

             Standard Nuclear Orientation (Angstroms)
    I     Atom           X                Y                Z
 ----------------------------------------------------------------
    1      H       0.3883004398     0.1183628505     0.6873876138
    2      C       0.0478945523     0.0144778334     0.0846175623
    3      H       0.2326496323     0.8257359388    -0.6207264179
    4      H       0.3608679310    -0.9143780505    -0.3938456680
    5      H      -1.0298125554    -0.0442985721     0.2423669099
 ----------------------------------------------------------------

    7     -40.2948625980      2.19e-07  Convergence criterion met
 Total energy in the final basis set =      -40.2948625980

                    Orbital Energies (a.u.)
 --------------------------------------------------------------

 Alpha MOs
 -- Occupied --
-10.138  -0.741  -0.452  -0.384  -0.384

 Beta MOs
 -- Occupied --
-10.138  -0.741  -0.452  -0.384  -0.384

          Ground-State Mulliken Net Atomic Charges

     Atom                 Charge (a.u.)    Spin (a.u.)
  --------------------------------------------------------
      1 H                     0.080638       0.000000
      2 C                    -0.383531      -0.000000
      3 H                     0.100959      -0.000000
      4 H                     0.100984       0.000000
      5 H                     0.100950       0.000000
  --------------------------------------------------------
  Sum of atomic charges =    -0.000000

                    Cartesian Multipole Moments
 -----------------------------------------------------------------
    Charge (ESU x 10^10)
                -0.0000
    Dipole Moment (Debye)
         X       0.0134      Y       0.0042      Z       0.0240
       Tot       0.0278
    Quadrupole Moments (Debye-Ang)
        XX      -7.9058     XY      -0.0059     YY      -7.8876
        XZ      -0.0344     YZ      -0.0100     ZZ      -7.9465

 Final energy is   -40.2948625979552
 **  OPTIMIZATION CONVERGED  **
 Total job time:  18.78s(wall), 173.63s(cpu)
        *  Thank you very much for using Q-Chem.  Have a nice day.  *
