 Q-Chem 5.1, Q-Chem, Inc., Pleasanton, CA (2018)
 Q-Chem 5.1.1 for Intel X86 EM64T Linux

User input:
--------------------------------------------------------------

$comment
potential surface scanner
$end

$rem
JOBTYPE  PES_SCAN
UNRESTRICTED TRUE
SYM_IGNORE  TRUE
GEOM_OPT_MAX_CYCLES 400
SCF_MAX_CYCLES 400
METHOD   B3LYP
BASIS   6-31G**
PDB_PRINT 2
SCF_CONVERGENCE 6
THRESH 14
SCF_PRINT 1
$end
$molecule
0 1
H 0.602393 0.183459 1.066076
C -0.030091 -0.009196 -0.053231
H 0.195683 0.831189 -0.709053
H 0.326754 -0.947425 -0.477091
H -1.094839 -0.058128 0.173101
$end
$scan
stre 1 2 1.400000 1.401000 0.100000
$end
--------------------------------------------------------------

    7     -40.5058105420      3.25e-07  Convergence criterion met
 Total energy in the final basis set =      -40.5058105420
    7     -40.4906432981      6.93e-07  Convergence criterion met
 Total energy in the final basis set =      -40.4906432981
    7     -40.4902143779      7.09e-07  Convergence criterion met
 Total energy in the final basis set =      -40.4902143779

             Standard Nuclear Orientation (Angstroms)
    I     Atom           X                Y                Z
 ----------------------------------------------------------------
    1      H       0.6358431841     0.1936370023     1.1252674303
    2      C      -0.0452914893    -0.0138229768    -0.0801436611
    3      H       0.1912702594     0.8332180817    -0.7214306066
    4      H       0.3229255868    -0.9531568336    -0.4884444774
    5      H      -1.1048475410    -0.0599762737     0.1645533148
 ----------------------------------------------------------------

    7     -40.4902244270      6.78e-07  Convergence criterion met
 Total energy in the final basis set =      -40.4902244270

                    Orbital Energies (a.u.)
 --------------------------------------------------------------

 Alpha MOs
 -- Occupied --
-10.195  -0.678  -0.399  -0.399  -0.338

 Beta MOs
 -- Occupied --
-10.195  -0.678  -0.399  -0.399  -0.338

          Ground-State Mulliken Net Atomic Charges

     Atom                 Charge (a.u.)    Spin (a.u.)
  --------------------------------------------------------
      1 H                     0.045232      -0.000000
      2 C                    -0.429687      -0.000000
      3 H                     0.128152       0.000000
      4 H                     0.128155       0.000000
      5 H                     0.128148       0.000000
  --------------------------------------------------------
  Sum of atomic charges =    -0.000000

                    Cartesian Multipole Moments
 -----------------------------------------------------------------
    Charge (ESU x 10^10)
                -0.0000
    Dipole Moment (Debye)
         X      -0.1394      Y      -0.0424      Z      -0.2466
       Tot       0.2864
    Quadrupole Moments (Debye-Ang)
        XX      -8.4038     XY      -0.0145     YY      -8.3606
        XZ      -0.0844     YZ      -0.0256     ZZ      -8.5057

 Final energy is   -40.4902244269947
 **  OPTIMIZATION CONVERGED  **
 Total job time:  10.44s(wall), 99.84s(cpu)
        *  Thank you very much for using Q-Chem.  Have a nice day.  *
