 Q-Chem 5.1, Q-Chem, Inc., Pleasanton, CA (2018)
 Q-Chem 5.1.1 for Intel X86 EM64T Linux

User input:
--------------------------------------------------------------

$comment
potential surface scanner
$end

$rem
JOBTYPE  PES_SCAN
UNRESTRICTED TRUE
SYM_IGNORE  TRUE
GEOM_OPT_MAX_CYCLES 400
SCF_MAX_CYCLES 400
METHOD   B3LYP
BASIS   6-31G**
PDB_PRINT 2
SCF_CONVERGENCE 6
THRESH 14
SCF_PRINT 1
$end
$molecule
0 3
H 1.182790 0.360575 2.093565
C -0.276577 -0.084336 -0.489515
H 0.099889 0.832538 -0.920570
H 0.235731 -1.016788 -0.680167
H -1.241933 -0.092089 -0.003513
$end
$scan
stre 1 2 4.000000 4.001000 0.100000
$end
--------------------------------------------------------------

    8     -40.3410105702      2.78e-07  Convergence criterion met
 Total energy in the final basis set =      -40.3410105702
    7     -40.3405491042      7.71e-07  Convergence criterion met
 Total energy in the final basis set =      -40.3405491042
    8     -40.3411968725      2.51e-07  Convergence criterion met
 Total energy in the final basis set =      -40.3411968725
    8     -40.3422363927      2.70e-07  Convergence criterion met
 Total energy in the final basis set =      -40.3422363927
    8     -40.3420639167      3.00e-07  Convergence criterion met
 Total energy in the final basis set =      -40.3420639167
    8     -40.3415322458      3.29e-07  Convergence criterion met
 Total energy in the final basis set =      -40.3415322458
    8     -40.3407709747      3.53e-07  Convergence criterion met
 Total energy in the final basis set =      -40.3407709747
    8     -40.3403666668      3.65e-07  Convergence criterion met
    8     -40.3410721186      3.57e-07  Convergence criterion met
 Total energy in the final basis set =      -40.3410721186
    8     -40.3421105967      3.18e-07  Convergence criterion met
 Total energy in the final basis set =      -40.3421105967
    8     -40.3427251884      2.81e-07  Convergence criterion met
 Total energy in the final basis set =      -40.3427251884
    8     -40.3429666841      2.90e-07  Convergence criterion met
 Total energy in the final basis set =      -40.3429666841
    7     -40.3430127761      9.33e-07  Convergence criterion met
 Total energy in the final basis set =      -40.3430127761
    7     -40.3430157247      7.52e-07  Convergence criterion met
 Total energy in the final basis set =      -40.3430157247

             Standard Nuclear Orientation (Angstroms)
    I     Atom           X                Y                Z
 ----------------------------------------------------------------
    1      H       1.5557370693     0.4749396475     2.7551487786
    2      C      -0.3892840030    -0.1188306214    -0.6893144734
    3      H       0.0140610220     0.8079322468    -1.0752779776
    4      H       0.1493377312    -1.0456713257    -0.8358802993
    5      H      -1.3299518195    -0.1184699472    -0.1548760282
 ----------------------------------------------------------------

    7     -40.3430158106      7.47e-07  Convergence criterion met
 Total energy in the final basis set =      -40.3430158106

                    Orbital Energies (a.u.)
 --------------------------------------------------------------

 Alpha MOs
 -- Occupied --
-10.192  -0.681  -0.415  -0.415  -0.314  -0.224

 Beta MOs
 -- Occupied --
-10.178  -0.640  -0.405  -0.405

          Ground-State Mulliken Net Atomic Charges

     Atom                 Charge (a.u.)    Spin (a.u.)
  --------------------------------------------------------
      1 H                     0.000080       0.999903
      2 C                    -0.368088       1.145464
      3 H                     0.122674      -0.048453
      4 H                     0.122660      -0.048459
      5 H                     0.122674      -0.048455
  --------------------------------------------------------
  Sum of atomic charges =     0.000000

                    Cartesian Multipole Moments
 -----------------------------------------------------------------
    Charge (ESU x 10^10)
                 0.0000
    Dipole Moment (Debye)
         X       0.0013      Y       0.0004      Z       0.0023
       Tot       0.0026
    Quadrupole Moments (Debye-Ang)
        XX      -8.6681     XY      -0.1135     YY      -8.3250
        XZ      -0.6657     YZ      -0.2001     ZZ      -9.4639

 Final energy is   -40.3430158105922
 **  OPTIMIZATION CONVERGED  **
 Total job time:  33.80s(wall), 333.97s(cpu)
        *  Thank you very much for using Q-Chem.  Have a nice day.  *
