 Q-Chem 5.1, Q-Chem, Inc., Pleasanton, CA (2018)
 Q-Chem 5.1.1 for Intel X86 EM64T Linux

User input:
--------------------------------------------------------------

$comment
potential surface scanner
$end

$rem
JOBTYPE  PES_SCAN
UNRESTRICTED TRUE
SYM_IGNORE  TRUE
GEOM_OPT_MAX_CYCLES 400
SCF_MAX_CYCLES 400
METHOD   B3LYP
BASIS   6-31G**
PDB_PRINT 2
SCF_CONVERGENCE 6
THRESH 14
SCF_PRINT 1
$end
$molecule
0 3
H 0.448518 0.947925 1.612520
C -0.110869 -0.234977 -0.399402
H 0.679345 0.503399 -0.417490
H -0.362858 -0.769880 -1.307652
H -0.654239 -0.446566 0.511822
$end
$scan
stre 1 2 2.300000 2.301000 0.100000
$end
--------------------------------------------------------------

    8     -40.3392294256      2.32e-07  Convergence criterion met
 Total energy in the final basis set =      -40.3392294256
    8     -40.3371231709      4.55e-07  Convergence criterion met
 Total energy in the final basis set =      -40.3371231709
    8     -40.3374572932      4.75e-07  Convergence criterion met
 Total energy in the final basis set =      -40.3374572932
    8     -40.3376403871      5.10e-07  Convergence criterion met
 Total energy in the final basis set =      -40.3376403871
    8     -40.3376670713      4.68e-07  Convergence criterion met
 Total energy in the final basis set =      -40.3376670713

             Standard Nuclear Orientation (Angstroms)
    I     Atom           X                Y                Z
 ----------------------------------------------------------------
    1      H       0.4303762655     0.9092646389     1.5464605806
    2      C      -0.1060195314    -0.2245046030    -0.3814524142
    3      H       0.6849534729     0.5134632424    -0.4028984454
    4      H      -0.3579159101    -0.7596682229    -1.2903838006
    5      H      -0.6514972969    -0.4386540554     0.5280720797
 ----------------------------------------------------------------

    8     -40.3376716283      4.05e-07  Convergence criterion met
 Total energy in the final basis set =      -40.3376716283

                    Orbital Energies (a.u.)
 --------------------------------------------------------------

 Alpha MOs
 -- Occupied --
-10.196  -0.688  -0.430  -0.423  -0.292  -0.229

 Beta MOs
 -- Occupied --
-10.181  -0.645  -0.412  -0.410

          Ground-State Mulliken Net Atomic Charges

     Atom                 Charge (a.u.)    Spin (a.u.)
  --------------------------------------------------------
      1 H                    -0.015619       0.972774
      2 C                    -0.361697       1.156059
      3 H                     0.128498      -0.050916
      4 H                     0.120314      -0.027015
      5 H                     0.128504      -0.050903
  --------------------------------------------------------
  Sum of atomic charges =     0.000000

                    Cartesian Multipole Moments
 -----------------------------------------------------------------
    Charge (ESU x 10^10)
                -0.0000
    Dipole Moment (Debye)
         X      -0.0533      Y      -0.1109      Z      -0.1898
       Tot       0.2262
    Quadrupole Moments (Debye-Ang)
        XX      -8.9778     XY       0.7121     YY      -9.1962
        XZ      -0.3851     YZ       0.0058     ZZ      -8.7488

 Final energy is   -40.3376716282794
 **  OPTIMIZATION CONVERGED  **
 Total job time:  13.66s(wall), 136.13s(cpu)
        *  Thank you very much for using Q-Chem.  Have a nice day.  *
