 Q-Chem 5.1, Q-Chem, Inc., Pleasanton, CA (2018)
 Q-Chem 5.1.1 for Intel X86 EM64T Linux

User input:
--------------------------------------------------------------

$comment
potential surface scanner
$end

$rem
JOBTYPE  PES_SCAN
UNRESTRICTED TRUE
SYM_IGNORE  TRUE
GEOM_OPT_MAX_CYCLES 400
SCF_MAX_CYCLES 400
METHOD   B3LYP
BASIS   6-31G**
PDB_PRINT 2
SCF_CONVERGENCE 6
THRESH 14
SCF_PRINT 1
$end
$molecule
0 3
H 0.942663 0.315008 1.700236
C -0.255574 -0.082495 -0.457592
H 0.185944 0.851359 -0.780116
H 0.281932 -1.009965 -0.606650
H -1.155068 -0.074005 0.143921
$end
$scan
stre 1 2 2.400000 2.401000 0.100000
$end
--------------------------------------------------------------

    8     -40.3356013777      3.24e-07  Convergence criterion met
 Total energy in the final basis set =      -40.3356013777
    8     -40.3330630209      2.90e-07  Convergence criterion met
 Total energy in the final basis set =      -40.3330630209
    8     -40.3332504354      2.83e-07  Convergence criterion met
 Total energy in the final basis set =      -40.3332504354
    8     -40.3332914875      2.82e-07  Convergence criterion met
 Total energy in the final basis set =      -40.3332914875
    8     -40.3332968935      2.83e-07  Convergence criterion met
 Total energy in the final basis set =      -40.3332968935
    8     -40.3333372589      3.20e-07  Convergence criterion met
 Total energy in the final basis set =      -40.3333372589
    8     -40.3333412657      3.24e-07  Convergence criterion met
 Total energy in the final basis set =      -40.3333412657
    8     -40.3333469530      3.27e-07  Convergence criterion met
    8     -40.3389792662      4.61e-07  Convergence criterion met
 Total energy in the final basis set =      -40.3389792662
    8     -40.3391139827      4.47e-07  Convergence criterion met
 Total energy in the final basis set =      -40.3391139827
    8     -40.3392036768      3.60e-07  Convergence criterion met
 Total energy in the final basis set =      -40.3392036768
    8     -40.3392180321      1.71e-07  Convergence criterion met
 Total energy in the final basis set =      -40.3392180321
    8     -40.3392274597      1.99e-07  Convergence criterion met
 Total energy in the final basis set =      -40.3392274597
    8     -40.3392290015      2.15e-07  Convergence criterion met
 Total energy in the final basis set =      -40.3392290015

             Standard Nuclear Orientation (Angstroms)
    I     Atom           X                Y                Z
 ----------------------------------------------------------------
    1      H       0.4485179689     0.9479248106     1.6125204300
    2      C      -0.1108690626    -0.2349765539    -0.3994020676
    3      H       0.6793454867     0.5033992926    -0.4174895801
    4      H      -0.3628584190    -0.7698797714    -1.3076515951
    5      H      -0.6542389740    -0.4465657778     0.5118218128
 ----------------------------------------------------------------

    8     -40.3392294271      2.32e-07  Convergence criterion met
 Total energy in the final basis set =      -40.3392294271

                    Orbital Energies (a.u.)
 --------------------------------------------------------------

 Alpha MOs
 -- Occupied --
-10.195  -0.686  -0.427  -0.421  -0.298  -0.228

 Beta MOs
 -- Occupied --
-10.180  -0.643  -0.410  -0.409

          Ground-State Mulliken Net Atomic Charges

     Atom                 Charge (a.u.)    Spin (a.u.)
  --------------------------------------------------------
      1 H                    -0.010711       0.977823
      2 C                    -0.362084       1.155145
      3 H                     0.126159      -0.050841
      4 H                     0.120510      -0.031279
      5 H                     0.126126      -0.050848
  --------------------------------------------------------
  Sum of atomic charges =     0.000000

                    Cartesian Multipole Moments
 -----------------------------------------------------------------
    Charge (ESU x 10^10)
                 0.0000
    Dipole Moment (Debye)
         X      -0.0399      Y      -0.0825      Z      -0.1416
       Tot       0.1686
    Quadrupole Moments (Debye-Ang)
        XX      -8.9854     XY       0.7189     YY      -9.1711
        XZ      -0.3485     YZ       0.0700     ZZ      -8.6592

 Final energy is   -40.3392294271111
 **  OPTIMIZATION CONVERGED  **
 Total job time:  74.41s(wall), 757.24s(cpu)
        *  Thank you very much for using Q-Chem.  Have a nice day.  *
