 Q-Chem 5.1, Q-Chem, Inc., Pleasanton, CA (2018)
 Q-Chem 5.1.1 for Intel X86 EM64T Linux

User input:
--------------------------------------------------------------
$comment
Length-scal DFT calculation for PE - thioketone
$end

$molecule
0  3
S -1.40262 -0.00018 0.00481
C 0.33130 -0.00000 -0.00504
C 1.07540 1.30370 -0.00052
C 1.07568 -1.30355 -0.00052
H 1.72060 1.38941 0.88759
H 1.73049 1.38873 -0.88126
H 0.40837 2.17031 -0.00461
H 0.40883 -2.17030 -0.00364
H 1.72159 -1.38867 0.88713
H 1.73010 -1.38888 -0.88173
$end

$rem
JOBTYPE  PES_SCAN
UNRESTRICTED TRUE
SYM_IGNORE  TRUE
GEOM_OPT_MAX_CYCLES 400
SCF_MAX_CYCLES 400
METHOD   B3LYP
BASIS   6-31G**
PDB_PRINT 2
SCF_CONVERGENCE 6
THRESH 14
SCF_PRINT 1
$end

$scan
stre 1 2 1.25 2.5 0.05
$end
--------------------------------------------------------------

   10    -516.0430151000      3.43e-07  Convergence criterion met
 Total energy in the final basis set =     -516.0430151000
    9    -516.0316301627      9.86e-07  Convergence criterion met
 Total energy in the final basis set =     -516.0316301627
    9    -515.9791417320      8.66e-07  Convergence criterion met
 Total energy in the final basis set =     -515.9791417320
   10    -515.8556173460      3.49e-07  Convergence criterion met
 Total energy in the final basis set =     -515.8556173460
    9    -515.8032075143      9.11e-07  Convergence criterion met
 Total energy in the final basis set =     -515.8032075143
    9    -515.7916633186      9.51e-07  Convergence criterion met
 Total energy in the final basis set =     -515.7916633186
    9    -515.7920620076      9.97e-07  Convergence criterion met
 Total energy in the final basis set =     -515.7920620076
   10    -515.7922148432      3.53e-07  Convergence criterion met
 **  OPTIMIZATION CONVERGED  **
 **  OPTIMIZATION CONVERGED  **
 **  OPTIMIZATION CONVERGED  **
 Total energy in the final basis set =     -515.9822195461
   11    -515.9822204482      6.66e-07  Convergence criterion met
 Total energy in the final basis set =     -515.9822204482
 Final energy is   -515.982220448171
   11    -515.9822204602      6.66e-07  Convergence criterion met
 Total energy in the final basis set =     -515.9822204602
   11    -515.9775049426      5.02e-07  Convergence criterion met
 Total energy in the final basis set =     -515.9775049426
   11    -515.9774724576      4.92e-07  Convergence criterion met
 Total energy in the final basis set =     -515.9774724576
   11    -515.9774759071      4.89e-07  Convergence criterion met
 Total energy in the final basis set =     -515.9774759071

             Standard Nuclear Orientation (Angstroms)
    I     Atom           X                Y                Z
 ----------------------------------------------------------------
    1      S      -1.7182663141    -0.0001473147     0.9010914057
    2      C       0.4725461067    -0.0000048576    -0.3032094982
    3      C       1.1134181680     1.3131911865    -0.1071812628
    4      C       1.1136831885    -1.3130444558    -0.1069996929
    5      H       1.4452182996     1.4573859885     0.9322012914
    6      H       2.0092301693     1.3621975887    -0.7459636670
    7      H       0.4542302891     2.1413042756    -0.3773280749
    8      H       0.4546703955    -2.1413284984    -0.3770509505
    9      H       1.4454915747    -1.4570351844     0.9324082530
   10      H       2.0095181228    -1.3619487284    -0.7457578038
 ----------------------------------------------------------------

   11    -515.9774767988      4.86e-07  Convergence criterion met
 Total energy in the final basis set =     -515.9774767988

                    Orbital Energies (a.u.)
 --------------------------------------------------------------

 Alpha MOs
 -- Occupied --
-88.876 -10.275 -10.212 -10.212  -7.933  -5.904  -5.895  -5.886
 -0.816  -0.727  -0.655  -0.562  -0.463  -0.458  -0.442  -0.418
 -0.397  -0.283  -0.277  -0.241  -0.218

 Beta MOs
 -- Occupied --
-88.870 -10.262 -10.212 -10.212  -7.927  -5.890  -5.886  -5.882
 -0.802  -0.725  -0.607  -0.541  -0.456  -0.445  -0.435  -0.414
 -0.393  -0.259  -0.216

          Ground-State Mulliken Net Atomic Charges

     Atom                 Charge (a.u.)    Spin (a.u.)
  --------------------------------------------------------
      1 S                    -0.227499       1.119985
      2 C                     0.065967       0.818530
      3 C                    -0.352029      -0.041354
      4 C                    -0.352029      -0.041353
      5 H                     0.147175       0.060494
      6 H                     0.132271      -0.001433
      7 H                     0.153349       0.013035
      8 H                     0.153349       0.013036
      9 H                     0.147176       0.060494
     10 H                     0.132270      -0.001434
  --------------------------------------------------------
  Sum of atomic charges =     0.000000

                    Cartesian Multipole Moments
 -----------------------------------------------------------------
    Charge (ESU x 10^10)
                 0.0000
    Dipole Moment (Debye)
         X       3.7632      Y       0.0003      Z      -0.9014
       Tot       3.8696
    Quadrupole Moments (Debye-Ang)
        XX     -34.7539     XY      -0.0007     YY     -29.0705
        XZ       0.6759     YZ      -0.0003     ZZ     -35.2527

 Final energy is   -515.977476798754
 **  OPTIMIZATION CONVERGED  **
 Total job time:  475.83s(wall), 6630.35s(cpu)
        *  Thank you very much for using Q-Chem.  Have a nice day.  *
