 Q-Chem 5.1, Q-Chem, Inc., Pleasanton, CA (2018)
 Q-Chem 5.1.1 for Intel X86 EM64T Linux

User input:
--------------------------------------------------------------

$comment
potential surface scanner
$end

$rem
JOBTYPE  PES_SCAN
UNRESTRICTED TRUE
SYM_IGNORE  TRUE
GEOM_OPT_MAX_CYCLES 400
SCF_MAX_CYCLES 400
METHOD   B3LYP
BASIS   6-31G**
PDB_PRINT 2
SCF_CONVERGENCE 6
THRESH 14
SCF_PRINT 1
$end
$molecule
0 3
Br 2.027735 -0.425267 -0.708776
Br 0.849426 2.028909 0.244397
C -0.790739 -1.309625 0.020884
C 0.253779 -0.949196 0.865767
C -1.852905 -0.400882 -0.483221
H -0.802683 -2.332285 -0.354713
H 0.256251 0.000082 1.377980
H 0.834774 -1.747067 1.318708
H -2.841096 -0.845384 -0.305981
H -1.807493 0.589887 -0.031306
H -1.762255 -0.288173 -1.572930
$end
$scan
stre 2 4 3.000000 3.001000 0.100000
$end
--------------------------------------------------------------

   13   -5265.6267702086      2.79e-07  Convergence criterion met
 Total energy in the final basis set =    -5265.6267702086
   12   -5265.6222590219      7.49e-07  Convergence criterion met
 Total energy in the final basis set =    -5265.6222590219
   12   -5265.6222543261      8.45e-07  Convergence criterion met
 Total energy in the final basis set =    -5265.6222543261
   12   -5265.6222851222      8.29e-07  Convergence criterion met
 Total energy in the final basis set =    -5265.6222851222
   12   -5265.6223077581      8.03e-07  Convergence criterion met
 Total energy in the final basis set =    -5265.6223077581
   12   -5265.6223132770      7.96e-07  Convergence criterion met
 Total energy in the final basis set =    -5265.6223132770
   12   -5265.6223202973      7.98e-07  Convergence criterion met
 Total energy in the final basis set =    -5265.6223202973
   12   -5265.6223239103      8.10e-07  Convergence criterion met
 Total energy in the final basis set =    -5265.6223239103
   12   -5265.6223254869      8.31e-07  Convergence criterion met
 Total energy in the final basis set =    -5265.6223254869

             Standard Nuclear Orientation (Angstroms)
    I     Atom           X                Y                Z
 ----------------------------------------------------------------
    1      Br      2.0758517326    -0.4814245744    -0.6968068828
    2      Br      0.8197974571     1.9458694599     0.1977660807
    3      C      -0.7764098936    -1.2812579830     0.0102589905
    4      C       0.2550240889    -0.9225716439     0.8708761839
    5      C      -1.8630586812    -0.3920618970    -0.4749465251
    6      H      -0.7624649984    -2.2951542762    -0.3884434522
    7      H       0.2440438212     0.0105440178     1.4075930790
    8      H       0.8314412129    -1.7281092402     1.3165883971
    9      H      -2.8366795450    -0.8727644291    -0.3114962954
   10      H      -1.8496255674     0.5881317523     0.0007108288
   11      H      -1.7731256271    -0.2502021861    -1.5612914045
 ----------------------------------------------------------------

   12   -5265.6223258934      8.45e-07  Convergence criterion met
 Total energy in the final basis set =    -5265.6223258934

                    Orbital Energies (a.u.)
 --------------------------------------------------------------

 Alpha MOs
 -- Occupied --
*******-482.829 -62.527 -62.487 -56.349 -56.347 -56.345 -56.310
-56.305 -56.305 -10.262 -10.252 -10.213  -8.715  -8.675  -6.542
 -6.537  -6.530  -6.507  -6.492  -6.492  -2.637  -2.636  -2.631
 -2.627  -2.626  -2.599  -2.595  -2.595  -2.584  -2.584  -0.845
 -0.782  -0.732  -0.726  -0.605  -0.512  -0.471  -0.452  -0.411
 -0.397  -0.379  -0.352  -0.307  -0.266  -0.264  -0.259  -0.249

 Beta MOs
 -- Occupied --
*******-482.827 -62.526 -62.486 -56.345 -56.344 -56.344 -56.306
-56.304 -56.304 -10.255 -10.251 -10.213  -8.711  -8.672  -6.536
 -6.532  -6.529  -6.499  -6.490  -6.490  -2.631  -2.631  -2.627
 -2.624  -2.624  -2.593  -2.591  -2.591  -2.583  -2.583  -0.830
 -0.756  -0.718  -0.701  -0.596  -0.507  -0.467  -0.438  -0.408
 -0.394  -0.345  -0.310  -0.295  -0.256  -0.254

          Ground-State Mulliken Net Atomic Charges

     Atom                 Charge (a.u.)    Spin (a.u.)
  --------------------------------------------------------
      1 Br                   -0.083104       0.759916
      2 Br                   -0.273165       0.685339
      3 C                     0.029278       0.539117
      4 C                    -0.256727       0.024471
      5 C                    -0.356776      -0.037858
      6 H                     0.132487      -0.023989
      7 H                     0.194436      -0.003881
      8 H                     0.162478       0.002390
      9 H                     0.134950       0.020572
     10 H                     0.158050       0.000451
     11 H                     0.158095       0.033473
  --------------------------------------------------------
  Sum of atomic charges =     0.000000

                    Cartesian Multipole Moments
 -----------------------------------------------------------------
    Charge (ESU x 10^10)
                -0.0000
    Dipole Moment (Debye)
         X      -3.2286      Y      -3.8382      Z       0.6709
       Tot       5.0602
    Quadrupole Moments (Debye-Ang)
        XX     -56.9624     XY      -1.4263     YY     -58.2893
        XZ       1.3987     YZ      -0.5593     ZZ     -55.7006

 Final energy is   -5265.62232589343
 **  OPTIMIZATION CONVERGED  **
 Total job time:  61.69s(wall), 715.41s(cpu)
        *  Thank you very much for using Q-Chem.  Have a nice day.  *
