 Q-Chem 5.1, Q-Chem, Inc., Pleasanton, CA (2018)
 Q-Chem 5.1.1 for Intel X86 EM64T Linux

User input:
--------------------------------------------------------------

$comment
potential surface scanner
$end

$rem
JOBTYPE  PES_SCAN
UNRESTRICTED TRUE
SYM_IGNORE  TRUE
GEOM_OPT_MAX_CYCLES 400
SCF_MAX_CYCLES 400
METHOD   B3LYP
BASIS   6-31G**
PDB_PRINT 2
SCF_CONVERGENCE 6
THRESH 14
SCF_PRINT 1
$end
$molecule
0 3
Br -0.707821 1.742172 0.031820
Br 5.451049 0.166969 -0.743774
C -0.888429 -0.442466 -0.295661
C 0.204058 -0.974153 0.446569
C -2.296713 -0.806571 0.118165
H -0.735573 -0.410266 -1.372058
H 0.080505 -1.245138 1.490365
H 1.207920 -0.968261 0.039104
H -2.435659 -0.693886 1.196273
H -3.035778 -0.190806 -0.396199
H -2.478762 -1.856593 -0.143806
$end
$scan
stre 2 4 5.400000 5.401000 0.100000
$end
--------------------------------------------------------------

   34   -5265.6121126005      9.55e-07  Convergence criterion met
 Total energy in the final basis set =    -5265.6121126005
   29   -5265.6107573362      6.11e-07  Convergence criterion met
 Total energy in the final basis set =    -5265.6107573362
   39   -5265.6117904710      1.33e-07  Convergence criterion met
 Total energy in the final basis set =    -5265.6117904710
   33   -5265.6120592406      2.72e-07  Convergence criterion met
 Total energy in the final basis set =    -5265.6120592406
   37   -5265.6120657962      6.86e-07  Convergence criterion met
 Total energy in the final basis set =    -5265.6120657962
   38   -5265.6120687066      4.98e-07  Convergence criterion met
 Total energy in the final basis set =    -5265.6120687066
   30   -5265.6120735134      5.15e-07  Convergence criterion met
 Total energy in the final basis set =    -5265.6120735134
   31   -5265.6120767537      3.27e-07  Convergence criterion met
 Total energy in the final basis set =    -5265.6120767537
   31   -5265.6120794559      1.29e-07  Convergence criterion met
 Total energy in the final basis set =    -5265.6120794559
   31   -5265.6120809357      6.91e-08  Convergence criterion met
 Total energy in the final basis set =    -5265.6120809357

             Standard Nuclear Orientation (Angstroms)
    I     Atom           X                Y                Z
 ----------------------------------------------------------------
    1      Br     -0.7177702752     1.7489844415     0.0380658648
    2      Br      5.3676694837     0.1258731362    -0.7432968402
    3      C      -0.8800429846    -0.4346086203    -0.2945353827
    4      C       0.2143363830    -0.9602902524     0.4497694053
    5      C      -2.2865399548    -0.8118592193     0.1138624399
    6      H      -0.7241016964    -0.3993800511    -1.3704114364
    7      H       0.0894599348    -1.2355504458     1.4922843687
    8      H       1.2194898504    -0.9451494720     0.0459042810
    9      H      -2.4294492485    -0.7043921226     1.1920008097
   10      H      -3.0292533024    -0.2002695604    -0.4002675942
   11      H      -2.4590011901    -1.8623568339    -0.1525779160
 ----------------------------------------------------------------

   31   -5265.6120817933      9.90e-08  Convergence criterion met
 Total energy in the final basis set =    -5265.6120817933

                    Orbital Energies (a.u.)
 --------------------------------------------------------------

 Alpha MOs
 -- Occupied --
*******-482.832 -62.559 -62.490 -56.383 -56.375 -56.375 -56.311
-56.307 -56.307 -10.259 -10.226 -10.201  -8.746  -8.677  -6.583
 -6.560  -6.560  -6.507  -6.495  -6.494  -2.673  -2.668  -2.668
 -2.651  -2.651  -2.600  -2.597  -2.596  -2.587  -2.587  -0.831
 -0.798  -0.731  -0.712  -0.592  -0.494  -0.449  -0.441  -0.393
 -0.383  -0.373  -0.354  -0.324  -0.324  -0.273  -0.268  -0.229

 Beta MOs
 -- Occupied --
*******-482.831 -62.557 -62.489 -56.377 -56.374 -56.374 -56.309
-56.307 -56.307 -10.260 -10.215 -10.201  -8.742  -8.675  -6.572
 -6.559  -6.558  -6.503  -6.494  -6.493  -2.665  -2.662  -2.662
 -2.650  -2.650  -2.597  -2.595  -2.594  -2.586  -2.586  -0.822
 -0.755  -0.719  -0.695  -0.585  -0.489  -0.445  -0.437  -0.389
 -0.381  -0.331  -0.310  -0.310  -0.266  -0.263

          Ground-State Mulliken Net Atomic Charges

     Atom                 Charge (a.u.)    Spin (a.u.)
  --------------------------------------------------------
      1 Br                   -0.212614       0.329711
      2 Br                   -0.000601       0.999221
      3 C                    -0.120895      -0.102263
      4 C                    -0.162339       0.837133
      5 C                    -0.316156       0.006458
      6 H                     0.159124       0.006853
      7 H                     0.128585      -0.036697
      8 H                     0.128533      -0.037400
      9 H                     0.133259      -0.001175
     10 H                     0.139326       0.001398
     11 H                     0.123777      -0.003238
  --------------------------------------------------------
  Sum of atomic charges =     0.000000

                    Cartesian Multipole Moments
 -----------------------------------------------------------------
    Charge (ESU x 10^10)
                 0.0000
    Dipole Moment (Debye)
         X      -0.2257      Y      -3.1186      Z      -0.1785
       Tot       3.1318
    Quadrupole Moments (Debye-Ang)
        XX     -53.1527     XY       3.5960     YY     -59.3773
        XZ       0.0713     YZ      -0.5923     ZZ     -56.0697

 Final energy is   -5265.61208179325
 **  OPTIMIZATION CONVERGED  **
 Total job time:  121.49s(wall), 1428.65s(cpu)
        *  Thank you very much for using Q-Chem.  Have a nice day.  *
