 Q-Chem 5.1, Q-Chem, Inc., Pleasanton, CA (2018)
 Q-Chem 5.1.1 for Intel X86 EM64T Linux

User input:
--------------------------------------------------------------

$comment
potential surface scanner
$end

$rem
JOBTYPE  PES_SCAN
UNRESTRICTED TRUE
SYM_IGNORE  TRUE
GEOM_OPT_MAX_CYCLES 400
SCF_MAX_CYCLES 400
METHOD   B3LYP
BASIS   6-31G**
PDB_PRINT 2
SCF_CONVERGENCE 6
THRESH 14
SCF_PRINT 1
$end
$molecule
0 1
Br -0.680524 1.798994 0.172492
Br 2.425014 -0.145374 -0.244904
C -0.533722 -0.122181 -0.335414
C 0.633192 -0.780169 0.376713
C -1.846238 -0.830992 -0.008989
H -0.360606 -0.093946 -1.411364
H 0.613215 -0.609919 1.451969
H 0.637176 -1.851042 0.167147
H -2.043003 -0.828520 1.066665
H -2.683725 -0.344145 -0.512582
H -1.795980 -1.871704 -0.350933
$end
$scan
stre 2 4 2.100000 2.101000 0.100000
$end
--------------------------------------------------------------

    9   -5265.7131846440      5.93e-07  Convergence criterion met
 Total energy in the final basis set =    -5265.7131846440
   10   -5265.7096837645      4.72e-07  Convergence criterion met
 Total energy in the final basis set =    -5265.7096837645
   10   -5265.7098724464      4.69e-07  Convergence criterion met
 Total energy in the final basis set =    -5265.7098724464
   10   -5265.7099535209      4.65e-07  Convergence criterion met
 Total energy in the final basis set =    -5265.7099535209
   10   -5265.7099558840      4.65e-07  Convergence criterion met
 Total energy in the final basis set =    -5265.7099558840

             Standard Nuclear Orientation (Angstroms)
    I     Atom           X                Y                Z
 ----------------------------------------------------------------
    1      Br     -0.6797874881     1.7914056945     0.1797785504
    2      Br      2.4800506202    -0.1159091760    -0.2811549359
    3      C      -0.5393920577    -0.1278257003    -0.3268025003
    4      C       0.6104223148    -0.7931259143     0.3940243483
    5      C      -1.8601871279    -0.8305239291    -0.0126490344
    6      H      -0.3564847963    -0.1047656143    -1.4009996188
    7      H       0.6292790510    -0.6056021794     1.4651000836
    8      H       0.6514566778    -1.8597538821     0.1740881680
    9      H      -2.0682475516    -0.8274746822     1.0607154436
   10      H      -2.6875794753    -0.3348721184    -0.5245376766
   11      H      -1.8147311671    -1.8705504984    -0.3567628277
 ----------------------------------------------------------------

   10   -5265.7099567368      4.64e-07  Convergence criterion met
 Total energy in the final basis set =    -5265.7099567368

                    Orbital Energies (a.u.)
 --------------------------------------------------------------

 Alpha MOs
 -- Occupied --
*******-482.853 -62.513 -62.511 -56.334 -56.332 -56.331 -56.331
-56.328 -56.328 -10.273 -10.270 -10.212  -8.700  -8.697  -6.530
 -6.528  -6.518  -6.517  -6.515  -6.514  -2.624  -2.621  -2.620
 -2.620  -2.617  -2.617  -2.610  -2.610  -2.607  -2.607  -0.857
 -0.779  -0.747  -0.695  -0.606  -0.498  -0.467  -0.447  -0.430
 -0.393  -0.361  -0.356  -0.288  -0.285  -0.281  -0.273

 Beta MOs
 -- Occupied --
*******-482.853 -62.513 -62.511 -56.334 -56.332 -56.331 -56.331
-56.328 -56.328 -10.273 -10.270 -10.212  -8.700  -8.697  -6.530
 -6.528  -6.518  -6.517  -6.515  -6.514  -2.624  -2.621  -2.620
 -2.620  -2.617  -2.617  -2.610  -2.610  -2.607  -2.607  -0.857
 -0.779  -0.747  -0.695  -0.606  -0.498  -0.467  -0.447  -0.430
 -0.393  -0.361  -0.356  -0.288  -0.285  -0.281  -0.273

          Ground-State Mulliken Net Atomic Charges

     Atom                 Charge (a.u.)    Spin (a.u.)
  --------------------------------------------------------
      1 Br                   -0.093842      -0.000000
      2 Br                   -0.124190       0.000000
      3 C                    -0.135406      -0.000000
      4 C                    -0.237215       0.000000
      5 C                    -0.322836       0.000000
      6 H                     0.172581       0.000000
      7 H                     0.177685       0.000000
      8 H                     0.164316       0.000000
      9 H                     0.134344      -0.000000
     10 H                     0.144700      -0.000000
     11 H                     0.119862       0.000000
  --------------------------------------------------------
  Sum of atomic charges =     0.000000

                    Cartesian Multipole Moments
 -----------------------------------------------------------------
    Charge (ESU x 10^10)
                 0.0000
    Dipole Moment (Debye)
         X      -2.2156      Y      -2.6345      Z       0.1716
       Tot       3.4466
    Quadrupole Moments (Debye-Ang)
        XX     -60.0254     XY       1.9563     YY     -56.6208
        XZ       0.9316     YZ      -0.4688     ZZ     -55.4162

 Final energy is   -5265.70995673680
 **  OPTIMIZATION CONVERGED  **
 Total job time:  33.79s(wall), 385.79s(cpu)
        *  Thank you very much for using Q-Chem.  Have a nice day.  *
