 Q-Chem 5.1, Q-Chem, Inc., Pleasanton, CA (2018)
 Q-Chem 5.1.1 for Intel X86 EM64T Linux

User input:
--------------------------------------------------------------

$comment
potential surface scanner
$end

$rem
JOBTYPE  PES_SCAN
UNRESTRICTED TRUE
SYM_IGNORE  TRUE
GEOM_OPT_MAX_CYCLES 400
SCF_MAX_CYCLES 400
METHOD   B3LYP
BASIS   6-31G**
PDB_PRINT 2
SCF_CONVERGENCE 6
THRESH 14
SCF_PRINT 1
$end
$molecule
0 3
Br -0.726702 1.754898 0.042747
Br 5.284973 0.087264 -0.737901
C -0.872186 -0.427023 -0.294251
C 0.224714 -0.947630 0.450698
C -2.276464 -0.816458 0.110789
H -0.714684 -0.389334 -1.369838
H 0.099807 -1.226782 1.492169
H 1.230574 -0.924093 0.048984
H -2.421927 -0.712973 1.188991
H -3.023180 -0.209313 -0.402861
H -2.440127 -1.867556 -0.158730
$end
$scan
stre 2 4 5.200000 5.201000 0.100000
$end
--------------------------------------------------------------

   31   -5265.6120438959      7.05e-08  Convergence criterion met
 Total energy in the final basis set =    -5265.6120438959
   49   -5265.6105986820      2.82e-07  Convergence criterion met
 Total energy in the final basis set =    -5265.6105986820
   34   -5265.6116987901      1.01e-07  Convergence criterion met
 Total energy in the final basis set =    -5265.6116987901
   32   -5265.6119894300      4.07e-07  Convergence criterion met
 Total energy in the final basis set =    -5265.6119894300
   31   -5265.6119956266      6.22e-07  Convergence criterion met
 Total energy in the final basis set =    -5265.6119956266
   31   -5265.6119974889      4.21e-07  Convergence criterion met
 Total energy in the final basis set =    -5265.6119974889
   31   -5265.6120013721      3.56e-07  Convergence criterion met
 Total energy in the final basis set =    -5265.6120013721
   32   -5265.6120037348      1.33e-07  Convergence criterion met
 Total energy in the final basis set =    -5265.6120037348
   31   -5265.6120056035      1.95e-07  Convergence criterion met
 Total energy in the final basis set =    -5265.6120056035

             Standard Nuclear Orientation (Angstroms)
    I     Atom           X                Y                Z
 ----------------------------------------------------------------
    1      Br     -0.7330633227     1.7600173528     0.0458989525
    2      Br      5.2021911875     0.0544015283    -0.7272919447
    3      C      -0.8646597244    -0.4207001683    -0.2947071477
    4      C       0.2350612141    -0.9367925804     0.4496337476
    5      C      -2.2667257203    -0.8199008593     0.1089459036
    6      H      -0.7068805109    -0.3808695918    -1.3701810841
    7      H       0.1120303941    -1.2181836421     1.4907036920
    8      H       1.2406987423    -0.9095982233     0.0470290503
    9      H      -2.4134258621    -0.7190015851     1.1872331213
   10      H      -3.0170960879    -0.2167629272    -0.4041599599
   11      H      -2.4233323096    -1.8716093036    -0.1623073310
 ----------------------------------------------------------------

   31   -5265.6120065264      3.50e-07  Convergence criterion met
 Total energy in the final basis set =    -5265.6120065264

                    Orbital Energies (a.u.)
 --------------------------------------------------------------

 Alpha MOs
 -- Occupied --
*******-482.832 -62.559 -62.490 -56.383 -56.376 -56.376 -56.312
-56.308 -56.308 -10.259 -10.226 -10.201  -8.746  -8.677  -6.583
 -6.560  -6.560  -6.507  -6.495  -6.494  -2.674  -2.668  -2.668
 -2.652  -2.652  -2.600  -2.597  -2.597  -2.587  -2.587  -0.831
 -0.799  -0.732  -0.712  -0.592  -0.494  -0.449  -0.441  -0.393
 -0.383  -0.373  -0.355  -0.324  -0.324  -0.273  -0.268  -0.229

 Beta MOs
 -- Occupied --
*******-482.831 -62.557 -62.490 -56.378 -56.375 -56.375 -56.310
-56.307 -56.307 -10.260 -10.215 -10.201  -8.742  -8.676  -6.572
 -6.559  -6.559  -6.503  -6.494  -6.493  -2.666  -2.662  -2.662
 -2.651  -2.651  -2.597  -2.595  -2.594  -2.587  -2.587  -0.822
 -0.755  -0.719  -0.695  -0.585  -0.489  -0.445  -0.437  -0.389
 -0.381  -0.332  -0.310  -0.310  -0.266  -0.263

          Ground-State Mulliken Net Atomic Charges

     Atom                 Charge (a.u.)    Spin (a.u.)
  --------------------------------------------------------
      1 Br                   -0.210779       0.326789
      2 Br                   -0.001032       0.998682
      3 C                    -0.121475      -0.102112
      4 C                    -0.162497       0.841058
      5 C                    -0.316024       0.006491
      6 H                     0.159143       0.006872
      7 H                     0.128669      -0.036845
      8 H                     0.127781      -0.038008
      9 H                     0.133224      -0.001172
     10 H                     0.139240       0.001431
     11 H                     0.123750      -0.003186
  --------------------------------------------------------
  Sum of atomic charges =    -0.000000

                    Cartesian Multipole Moments
 -----------------------------------------------------------------
    Charge (ESU x 10^10)
                -0.0000
    Dipole Moment (Debye)
         X      -0.1948      Y      -3.1016      Z      -0.1900
       Tot       3.1135
    Quadrupole Moments (Debye-Ang)
        XX     -53.1773     XY       3.6108     YY     -59.4845
        XZ       0.0726     YZ      -0.6115     ZZ     -56.0688

 Final energy is   -5265.61200652640
 **  OPTIMIZATION CONVERGED  **
 Total job time:  112.46s(wall), 1319.61s(cpu)
        *  Thank you very much for using Q-Chem.  Have a nice day.  *
