 Q-Chem 5.1, Q-Chem, Inc., Pleasanton, CA (2018)
 Q-Chem 5.1.1 for Intel X86 EM64T Linux

User input:
--------------------------------------------------------------

$comment
potential surface scanner
$end

$rem
JOBTYPE  PES_SCAN
UNRESTRICTED TRUE
SYM_IGNORE  TRUE
GEOM_OPT_MAX_CYCLES 400
SCF_MAX_CYCLES 400
METHOD   B3LYP
BASIS   6-31G**
PDB_PRINT 2
SCF_CONVERGENCE 6
THRESH 14
SCF_PRINT 1
$end
$molecule
0 3
Br 1.393377 -0.015065 -2.469328
Br 1.694512 0.755413 0.375109
C -0.672145 -1.165431 0.230633
C -0.025082 -0.618239 1.332227
C -1.781453 -0.508710 -0.503836
H -0.264873 -2.079435 -0.196263
H -0.490059 0.201254 1.870821
H 0.674191 -1.224564 1.896177
H -2.540544 -1.238678 -0.806058
H -2.252388 0.292096 0.071930
H -1.370744 -0.077641 -1.430600
$end
$scan
stre 2 4 2.300000 2.301000 0.100000
$end
--------------------------------------------------------------

   13   -5265.6351487925      5.75e-07  Convergence criterion met
 Total energy in the final basis set =    -5265.6351487925
   12   -5265.6336954280      8.52e-07  Convergence criterion met
 Total energy in the final basis set =    -5265.6336954280
   12   -5265.6340475321      8.52e-07  Convergence criterion met
 Total energy in the final basis set =    -5265.6340475321
   12   -5265.6342824472      8.83e-07  Convergence criterion met
 Total energy in the final basis set =    -5265.6342824472
   12   -5265.6343597111      9.03e-07  Convergence criterion met
 Total energy in the final basis set =    -5265.6343597111
   12   -5265.6343736895      9.08e-07  Convergence criterion met
 Total energy in the final basis set =    -5265.6343736895
   12   -5265.6343804536      9.11e-07  Convergence criterion met
 Total energy in the final basis set =    -5265.6343804536
   12   -5265.6343832939      9.12e-07  Convergence criterion met
 Total energy in the final basis set =    -5265.6343832939
   12   -5265.6343866953      9.18e-07  Convergence criterion met
 Total energy in the final basis set =    -5265.6343866953
   12   -5265.6343881785      9.22e-07  Convergence criterion met
 Total energy in the final basis set =    -5265.6343881785

             Standard Nuclear Orientation (Angstroms)
    I     Atom           X                Y                Z
 ----------------------------------------------------------------
    1      Br      1.4086702106    -0.0426348526    -2.4435803950
    2      Br      1.6453369659     0.7603268311     0.4116058821
    3      C      -0.6722748170    -1.1699279181     0.2217370898
    4      C       0.0135225250    -0.5945919239     1.3011992357
    5      C      -1.7852427184    -0.5077561637    -0.5032651796
    6      H      -0.2747435739    -2.0896470070    -0.2010686700
    7      H      -0.4793578891     0.1941630545     1.8616207745
    8      H       0.6889958901    -1.2182356125     1.8762602636
    9      H      -2.5498636852    -1.2322567286    -0.8039502294
   10      H      -2.2500268080     0.2920112001     0.0796445876
   11      H      -1.3802241001    -0.0704508793    -1.4293913594
 ----------------------------------------------------------------

   12   -5265.6343891600      9.25e-07  Convergence criterion met
 Total energy in the final basis set =    -5265.6343891600

                    Orbital Energies (a.u.)
 --------------------------------------------------------------

 Alpha MOs
 -- Occupied --
*******-482.834 -62.529 -62.491 -56.350 -56.349 -56.346 -56.314
-56.308 -56.308 -10.263 -10.256 -10.210  -8.717  -8.678  -6.545
 -6.539  -6.532  -6.510  -6.495  -6.494  -2.639  -2.638  -2.633
 -2.629  -2.628  -2.602  -2.599  -2.598  -2.587  -2.587  -0.847
 -0.782  -0.736  -0.720  -0.607  -0.514  -0.469  -0.451  -0.410
 -0.396  -0.383  -0.353  -0.304  -0.271  -0.266  -0.258  -0.247

 Beta MOs
 -- Occupied --
*******-482.832 -62.528 -62.490 -56.348 -56.346 -56.345 -56.309
-56.308 -56.307 -10.263 -10.247 -10.211  -8.713  -8.675  -6.539
 -6.534  -6.530  -6.502  -6.493  -6.493  -2.634  -2.633  -2.630
 -2.626  -2.625  -2.596  -2.594  -2.594  -2.586  -2.586  -0.831
 -0.759  -0.718  -0.698  -0.596  -0.510  -0.464  -0.435  -0.407
 -0.393  -0.357  -0.310  -0.294  -0.260  -0.255

          Ground-State Mulliken Net Atomic Charges

     Atom                 Charge (a.u.)    Spin (a.u.)
  --------------------------------------------------------
      1 Br                   -0.248832       0.720915
      2 Br                   -0.067591       0.672095
      3 C                     0.017879       0.646925
      4 C                    -0.271831      -0.033645
      5 C                    -0.362168      -0.045113
      6 H                     0.146470      -0.028121
      7 H                     0.167444       0.002937
      8 H                     0.173342       0.002082
      9 H                     0.135294       0.016212
     10 H                     0.124349       0.003676
     11 H                     0.185645       0.042037
  --------------------------------------------------------
  Sum of atomic charges =     0.000000

                    Cartesian Multipole Moments
 -----------------------------------------------------------------
    Charge (ESU x 10^10)
                -0.0000
    Dipole Moment (Debye)
         X      -3.4906      Y      -1.7471      Z       3.4252
       Tot       5.1932
    Quadrupole Moments (Debye-Ang)
        XX     -58.8572     XY       0.0632     YY     -55.1115
        XZ       4.6040     YZ      -0.1117     ZZ     -59.6046

 Final energy is   -5265.63438915996
 **  OPTIMIZATION CONVERGED  **
 Total job time:  67.55s(wall), 769.13s(cpu)
        *  Thank you very much for using Q-Chem.  Have a nice day.  *
