 Q-Chem 5.1, Q-Chem, Inc., Pleasanton, CA (2018)
 Q-Chem 5.1.1 for Intel X86 EM64T Linux

User input:
--------------------------------------------------------------

$comment
potential surface scanner
$end

$rem
JOBTYPE  PES_SCAN
UNRESTRICTED TRUE
SYM_IGNORE  TRUE
GEOM_OPT_MAX_CYCLES 400
SCF_MAX_CYCLES 400
METHOD   B3LYP
BASIS   6-31G**
PDB_PRINT 2
SCF_CONVERGENCE 6
THRESH 14
SCF_PRINT 1
$end
$molecule
0 3
Br 1.998647 0.209174 0.317443
Br 0.665680 2.542339 -0.695008
C -0.672350 -1.335220 -0.187449
C 0.014702 -1.471004 0.987047
C -1.731350 -0.326166 -0.439875
H -0.393746 -1.979547 -1.020060
H -0.257555 -0.891535 1.863157
H 0.736230 -2.268349 1.126791
H -2.065869 0.162164 0.477997
H -1.339918 0.458242 -1.109589
H -2.589677 -0.779100 -0.949653
$end
$scan
stre 2 4 4.300000 4.301000 0.100000
$end
--------------------------------------------------------------

   14   -5265.6362499959      6.46e-07  Convergence criterion met
 Total energy in the final basis set =    -5265.6362499959
   14   -5265.6360850144      6.19e-07  Convergence criterion met
 Total energy in the final basis set =    -5265.6360850144
   14   -5265.6362428317      6.24e-07  Convergence criterion met
 Total energy in the final basis set =    -5265.6362428317
   14   -5265.6362922265      6.28e-07  Convergence criterion met
 Total energy in the final basis set =    -5265.6362922265
   14   -5265.6363044811      6.28e-07  Convergence criterion met
 Total energy in the final basis set =    -5265.6363044811
   14   -5265.6363169677      6.25e-07  Convergence criterion met
 Total energy in the final basis set =    -5265.6363169677
   14   -5265.6363204044      6.20e-07  Convergence criterion met
 Total energy in the final basis set =    -5265.6363204044
   14   -5265.6363233202      6.14e-07  Convergence criterion met
 Total energy in the final basis set =    -5265.6363233202
   14   -5265.6363258825      6.07e-07  Convergence criterion met
 Total energy in the final basis set =    -5265.6363258825
   14   -5265.6363279411      6.01e-07  Convergence criterion met
 Total energy in the final basis set =    -5265.6363279411

             Standard Nuclear Orientation (Angstroms)
    I     Atom           X                Y                Z
 ----------------------------------------------------------------
    1      Br      2.0224176398     0.1659868077     0.3339805438
    2      Br      0.6582558959     2.5047868191    -0.6367722862
    3      C      -0.6760172604    -1.3305228667    -0.1943431185
    4      C       0.0355213340    -1.4340019178     0.9719995214
    5      C      -1.7431752034    -0.3311738521    -0.4477167157
    6      H      -0.4059502753    -1.9894313659    -1.0182272064
    7      H      -0.2360644412    -0.8454477144     1.8419972084
    8      H       0.7447249882    -2.2400858933     1.1236601781
    9      H      -2.0745591611     0.1622740766     0.4685235420
   10      H      -1.3587185696     0.4511963226    -1.1230067973
   11      H      -2.6016409470    -0.7925824158    -0.9492938694
 ----------------------------------------------------------------

   14   -5265.6363289388      5.99e-07  Convergence criterion met
 Total energy in the final basis set =    -5265.6363289388

                    Orbital Energies (a.u.)
 --------------------------------------------------------------

 Alpha MOs
 -- Occupied --
*******-482.834 -62.529 -62.491 -56.350 -56.348 -56.346 -56.314
-56.309 -56.308 -10.261 -10.252 -10.213  -8.716  -8.678  -6.544
 -6.539  -6.531  -6.509  -6.497  -6.495  -2.638  -2.638  -2.632
 -2.628  -2.627  -2.602  -2.599  -2.598  -2.588  -2.588  -0.844
 -0.780  -0.735  -0.724  -0.606  -0.515  -0.469  -0.450  -0.410
 -0.396  -0.367  -0.356  -0.307  -0.284  -0.265  -0.259  -0.249

 Beta MOs
 -- Occupied --
*******-482.832 -62.527 -62.490 -56.346 -56.346 -56.345 -56.309
-56.308 -56.308 -10.256 -10.250 -10.213  -8.712  -8.675  -6.537
 -6.533  -6.529  -6.502  -6.494  -6.493  -2.632  -2.632  -2.628
 -2.625  -2.625  -2.596  -2.594  -2.593  -2.587  -2.587  -0.832
 -0.747  -0.723  -0.696  -0.599  -0.512  -0.466  -0.439  -0.408
 -0.394  -0.328  -0.311  -0.294  -0.260  -0.253

          Ground-State Mulliken Net Atomic Charges

     Atom                 Charge (a.u.)    Spin (a.u.)
  --------------------------------------------------------
      1 Br                   -0.094662       0.841517
      2 Br                   -0.240497       0.738776
      3 C                     0.023076       0.361404
      4 C                    -0.237263       0.059597
      5 C                    -0.360417      -0.020045
      6 H                     0.135232      -0.015941
      7 H                     0.160767      -0.002357
      8 H                     0.159265      -0.001506
      9 H                     0.136205       0.001307
     10 H                     0.184262       0.023199
     11 H                     0.134032       0.014050
  --------------------------------------------------------
  Sum of atomic charges =     0.000000

                    Cartesian Multipole Moments
 -----------------------------------------------------------------
    Charge (ESU x 10^10)
                 0.0000
    Dipole Moment (Debye)
         X      -2.8180      Y      -4.6356      Z       0.7724
       Tot       5.4796
    Quadrupole Moments (Debye-Ang)
        XX     -56.8853     XY      -2.3977     YY     -59.7428
        XZ       1.5007     YZ       0.8278     ZZ     -55.4983

 Final energy is   -5265.63632893875
 **  OPTIMIZATION CONVERGED  **
 Total job time:  70.36s(wall), 821.42s(cpu)
        *  Thank you very much for using Q-Chem.  Have a nice day.  *
