 Q-Chem 5.1, Q-Chem, Inc., Pleasanton, CA (2018)
 Q-Chem 5.1.1 for Intel X86 EM64T Linux

User input:
--------------------------------------------------------------

$comment
potential surface scanner
$end

$rem
JOBTYPE  PES_SCAN
UNRESTRICTED TRUE
SYM_IGNORE  TRUE
GEOM_OPT_MAX_CYCLES 400
SCF_MAX_CYCLES 400
METHOD   B3LYP
BASIS   6-31G**
PDB_PRINT 2
SCF_CONVERGENCE 6
THRESH 14
SCF_PRINT 1
$end
$molecule
0 1
Br -0.621000 1.744900 0.138600
Br 2.339300 0.022500 -0.135100
C -0.519000 -0.151000 -0.364100
C 0.644500 -0.814800 0.353000
C -1.843800 -0.801500 0.007700
H -0.380000 -0.157800 -1.450100
H 0.570800 -0.733000 1.441800
H 0.738000 -1.869500 0.078300
H -2.034600 -0.746700 1.085500
H -2.681600 -0.314200 -0.503400
H -1.847800 -1.857900 -0.281400
$end
$scan
stre 2 4 1.000000 1.001000 0.100000
$end
--------------------------------------------------------------

    9   -5265.7112865010      6.36e-07  Convergence criterion met
 Total energy in the final basis set =    -5265.7112865010
   10   -5265.7007251862      3.44e-07  Convergence criterion met
 Total energy in the final basis set =    -5265.7007251862
   10   -5265.6662322229      3.17e-07  Convergence criterion met
 Total energy in the final basis set =    -5265.6662322229
   10   -5265.6026243111      3.26e-07  Convergence criterion met
 Total energy in the final basis set =    -5265.6026243111
   10   -5265.5003292695      3.66e-07  Convergence criterion met
 Total energy in the final basis set =    -5265.5003292695
   10   -5265.3263892184      4.46e-07  Convergence criterion met
 Total energy in the final basis set =    -5265.3263892184
   10   -5265.0581336150      5.81e-07  Convergence criterion met
 Total energy in the final basis set =    -5265.0581336150
   10   -5264.8951817658      9.62e-07  Convergence criterion met
   11   -5263.9115749487      2.58e-07  Convergence criterion met
 Total energy in the final basis set =    -5263.9115749487
   11   -5263.9115768861      2.57e-07  Convergence criterion met
 Total energy in the final basis set =    -5263.9115768861
   11   -5263.9115783778      2.57e-07  Convergence criterion met
 Total energy in the final basis set =    -5263.9115783778
   11   -5263.9115809824      2.57e-07  Convergence criterion met
 Total energy in the final basis set =    -5263.9115809824
   11   -5263.9115835306      2.56e-07  Convergence criterion met
 Total energy in the final basis set =    -5263.9115835306
   11   -5263.9115849526      2.56e-07  Convergence criterion met
 Total energy in the final basis set =    -5263.9115849526

             Standard Nuclear Orientation (Angstroms)
    I     Atom           X                Y                Z
 ----------------------------------------------------------------
    1      Br     -0.4704027265     1.7745613290    -0.3494151070
    2      Br      1.7030788987    -0.0036423800     0.9330560300
    3      C      -0.6935005551    -0.1568547268    -0.5671840899
    4      C       1.2092797868    -0.7584027125     0.5012001666
    5      C      -1.9181342548    -0.6971032440     0.1196537127
    6      H      -0.6492551290    -0.3525239575    -1.6402405387
    7      H       0.5138936655    -1.5508824525     0.9077415268
    8      H       1.3771057064    -1.3396169996    -0.4524260606
    9      H      -1.9031648677    -0.4892849318     1.1970882309
   10      H      -2.8736942255    -0.3168089981    -0.2705113747
   11      H      -1.9304062988    -1.7884409263    -0.0081624960
 ----------------------------------------------------------------

   11   -5263.9115854414      2.56e-07  Convergence criterion met
 Total energy in the final basis set =    -5263.9115854414

                    Orbital Energies (a.u.)
 --------------------------------------------------------------

 Alpha MOs
 -- Occupied --
*******-482.839 -62.628 -62.498 -56.443 -56.442 -56.440 -56.318
-56.316 -56.315 -10.373 -10.199 -10.178  -8.863  -8.685  -6.720
 -6.668  -6.663  -6.513  -6.504  -6.502  -2.828  -2.792  -2.788
 -2.753  -2.753  -2.607  -2.604  -2.603  -2.596  -2.596  -1.073
 -0.791  -0.713  -0.621  -0.619  -0.586  -0.552  -0.457  -0.426
 -0.403  -0.373  -0.337  -0.284  -0.268  -0.228  -0.176

 Beta MOs
 -- Occupied --
*******-482.839 -62.628 -62.498 -56.443 -56.442 -56.440 -56.318
-56.316 -56.315 -10.373 -10.199 -10.178  -8.863  -8.685  -6.720
 -6.668  -6.663  -6.513  -6.504  -6.502  -2.828  -2.792  -2.788
 -2.753  -2.753  -2.607  -2.604  -2.603  -2.596  -2.596  -1.073
 -0.791  -0.713  -0.621  -0.619  -0.586  -0.552  -0.457  -0.426
 -0.403  -0.373  -0.337  -0.284  -0.268  -0.228  -0.176

          Ground-State Mulliken Net Atomic Charges

     Atom                 Charge (a.u.)    Spin (a.u.)
  --------------------------------------------------------
      1 Br                   -0.142834      -0.000000
      2 Br                    0.826964      -0.000000
      3 C                    -0.318274      -0.000000
      4 C                    -0.642667       0.000000
      5 C                    -0.303449      -0.000000
      6 H                     0.115294       0.000000
      7 H                     0.069791       0.000000
      8 H                     0.072864       0.000000
      9 H                     0.104571      -0.000000
     10 H                     0.114307      -0.000000
     11 H                     0.103433       0.000000
  --------------------------------------------------------
  Sum of atomic charges =     0.000000

                    Cartesian Multipole Moments
 -----------------------------------------------------------------
    Charge (ESU x 10^10)
                 0.0000
    Dipole Moment (Debye)
         X       1.5388      Y      -2.7592      Z       0.8110
       Tot       3.2617
    Quadrupole Moments (Debye-Ang)
        XX     -53.1788     XY      -0.7895     YY     -57.1025
        XZ       0.7061     YZ      -0.1834     ZZ     -54.8248

 Final energy is   -5263.91158544140
 **  OPTIMIZATION CONVERGED  **
 Total job time:  551.17s(wall), 6265.10s(cpu)
        *  Thank you very much for using Q-Chem.  Have a nice day.  *
