 Q-Chem 5.1, Q-Chem, Inc., Pleasanton, CA (2018)
 Q-Chem 5.1.1 for Intel X86 EM64T Linux

User input:
--------------------------------------------------------------

$comment
potential surface scanner
$end

$rem
JOBTYPE  PES_SCAN
UNRESTRICTED TRUE
SYM_IGNORE  TRUE
GEOM_OPT_MAX_CYCLES 400
SCF_MAX_CYCLES 400
METHOD   B3LYP
BASIS   6-31G**
PDB_PRINT 2
SCF_CONVERGENCE 6
THRESH 14
SCF_PRINT 1
$end
$molecule
0 3
Br 1.984235 -0.345932 -0.746913
Br 0.949670 2.112274 0.398532
C -0.796203 -1.337038 0.009711
C 0.225903 -0.968869 0.870465
C -1.845711 -0.421449 -0.510290
H -0.813524 -2.364696 -0.351726
H 0.222878 -0.002422 1.352848
H 0.834056 -1.745408 1.323342
H -2.838251 -0.782289 -0.205887
H -1.712710 0.603614 -0.161257
H -1.845549 -0.426786 -1.608017
$end
$scan
stre 2 4 3.100000 3.101000 0.100000
$end
--------------------------------------------------------------

   13   -5265.6300319638      5.41e-07  Convergence criterion met
 Total energy in the final basis set =    -5265.6300319638
   13   -5265.6266082318      3.32e-07  Convergence criterion met
 Total energy in the final basis set =    -5265.6266082318
   13   -5265.6266482294      3.61e-07  Convergence criterion met
 Total energy in the final basis set =    -5265.6266482294
   13   -5265.6267064666      3.61e-07  Convergence criterion met
 Total energy in the final basis set =    -5265.6267064666
   13   -5265.6267177246      3.49e-07  Convergence criterion met
 Total energy in the final basis set =    -5265.6267177246
   13   -5265.6267291175      3.33e-07  Convergence criterion met
 Total energy in the final basis set =    -5265.6267291175
   13   -5265.6267321548      3.33e-07  Convergence criterion met
 Total energy in the final basis set =    -5265.6267321548
   13   -5265.6267364376      3.33e-07  Convergence criterion met
   13   -5265.6267582119      2.73e-07  Convergence criterion met
 Total energy in the final basis set =    -5265.6267582119
   13   -5265.6267612773      2.66e-07  Convergence criterion met
 Total energy in the final basis set =    -5265.6267612773
   13   -5265.6267639210      2.64e-07  Convergence criterion met
 Total energy in the final basis set =    -5265.6267639210
   13   -5265.6267664955      2.67e-07  Convergence criterion met
 Total energy in the final basis set =    -5265.6267664955
   13   -5265.6267684115      2.72e-07  Convergence criterion met
 Total energy in the final basis set =    -5265.6267684115
   13   -5265.6267695809      2.77e-07  Convergence criterion met
 Total energy in the final basis set =    -5265.6267695809

             Standard Nuclear Orientation (Angstroms)
    I     Atom           X                Y                Z
 ----------------------------------------------------------------
    1      Br      2.0277354002    -0.4252667770    -0.7087763836
    2      Br      0.8494261758     2.0289085719     0.2443969837
    3      C      -0.7907390074    -1.3096253386     0.0208840036
    4      C       0.2537790363    -0.9491956189     0.8657667778
    5      C      -1.8529053665    -0.4008816663    -0.4832213234
    6      H      -0.8026829921    -2.3322852891    -0.3547129480
    7      H       0.2562507355     0.0000819516     1.3779800638
    8      H       0.8347742008    -1.7470666937     1.3187080915
    9      H      -2.8410961965    -0.8453844565    -0.3059805524
   10      H      -1.8074927922     0.5898872246    -0.0313062961
   11      H      -1.7622551940    -0.2881729078    -1.5729304169
 ----------------------------------------------------------------

   13   -5265.6267701781      2.79e-07  Convergence criterion met
 Total energy in the final basis set =    -5265.6267701781

                    Orbital Energies (a.u.)
 --------------------------------------------------------------

 Alpha MOs
 -- Occupied --
*******-482.830 -62.529 -62.488 -56.350 -56.348 -56.346 -56.311
-56.305 -56.305 -10.262 -10.253 -10.212  -8.716  -8.675  -6.543
 -6.538  -6.531  -6.507  -6.492  -6.492  -2.638  -2.637  -2.632
 -2.628  -2.627  -2.599  -2.596  -2.596  -2.585  -2.585  -0.845
 -0.783  -0.733  -0.726  -0.606  -0.513  -0.470  -0.452  -0.411
 -0.397  -0.378  -0.354  -0.307  -0.267  -0.266  -0.259  -0.250

 Beta MOs
 -- Occupied --
*******-482.828 -62.527 -62.487 -56.346 -56.345 -56.345 -56.306
-56.305 -56.305 -10.254 -10.252 -10.213  -8.712  -8.672  -6.537
 -6.533  -6.530  -6.499  -6.491  -6.491  -2.632  -2.632  -2.628
 -2.625  -2.625  -2.594  -2.591  -2.591  -2.584  -2.584  -0.830
 -0.756  -0.718  -0.701  -0.596  -0.508  -0.466  -0.438  -0.407
 -0.394  -0.345  -0.311  -0.296  -0.256  -0.256

          Ground-State Mulliken Net Atomic Charges

     Atom                 Charge (a.u.)    Spin (a.u.)
  --------------------------------------------------------
      1 Br                   -0.078257       0.756893
      2 Br                   -0.272255       0.687448
      3 C                     0.025147       0.549366
      4 C                    -0.256417       0.015466
      5 C                    -0.358581      -0.038597
      6 H                     0.131490      -0.024514
      7 H                     0.194250      -0.002416
      8 H                     0.162320       0.001674
      9 H                     0.135413       0.021153
     10 H                     0.159778       0.000357
     11 H                     0.157111       0.033171
  --------------------------------------------------------
  Sum of atomic charges =     0.000000

                    Cartesian Multipole Moments
 -----------------------------------------------------------------
    Charge (ESU x 10^10)
                 0.0000
    Dipole Moment (Debye)
         X      -3.1793      Y      -3.9641      Z       0.5986
       Tot       5.1167
    Quadrupole Moments (Debye-Ang)
        XX     -56.9160     XY      -1.5400     YY     -58.4199
        XZ       1.3197     YZ      -0.7229     ZZ     -55.7725

 Final energy is   -5265.62677017813
 **  OPTIMIZATION CONVERGED  **
 Total job time:  121.95s(wall), 1412.84s(cpu)
        *  Thank you very much for using Q-Chem.  Have a nice day.  *
