 Q-Chem 5.1, Q-Chem, Inc., Pleasanton, CA (2018)
 Q-Chem 5.1.1 for Intel X86 EM64T Linux

User input:
--------------------------------------------------------------

$comment
potential surface scanner
$end

$rem
JOBTYPE  PES_SCAN
UNRESTRICTED TRUE
SYM_IGNORE  TRUE
GEOM_OPT_MAX_CYCLES 400
SCF_MAX_CYCLES 400
METHOD   B3LYP
BASIS   6-31G**
PDB_PRINT 2
SCF_CONVERGENCE 6
THRESH 14
SCF_PRINT 1
$end
$molecule
0 3
Br 1.844452 0.463595 0.380574
Br 0.797969 2.547028 -1.324635
C -0.615042 -1.288594 -0.157594
C -0.079517 -1.654731 1.038676
C -1.700260 -0.290438 -0.342621
H -0.214112 -1.748102 -1.059968
H -0.449945 -1.240106 1.971535
H 0.700834 -2.405264 1.101905
H -2.130415 0.036407 0.607022
H -1.295707 0.593237 -0.859957
H -2.493461 -0.692034 -0.984139
$end
$scan
stre 2 4 4.800000 4.801000 0.100000
$end
--------------------------------------------------------------

   14   -5265.6352064695      9.61e-07  Convergence criterion met
 Total energy in the final basis set =    -5265.6352064695
   14   -5265.6350612990      7.33e-07  Convergence criterion met
 Total energy in the final basis set =    -5265.6350612990
   14   -5265.6354837709      7.79e-07  Convergence criterion met
 Total energy in the final basis set =    -5265.6354837709
   14   -5265.6356013180      3.82e-07  Convergence criterion met
 Total energy in the final basis set =    -5265.6356013180
   14   -5265.6356105216      5.71e-07  Convergence criterion met
 Total energy in the final basis set =    -5265.6356105216
   14   -5265.6356219711      7.71e-07  Convergence criterion met
 Total energy in the final basis set =    -5265.6356219711
   14   -5265.6356251449      7.88e-07  Convergence criterion met
 Total energy in the final basis set =    -5265.6356251449
   14   -5265.6356272471      7.99e-07  Convergence criterion met
 Total energy in the final basis set =    -5265.6356272471
   14   -5265.6356286225      8.12e-07  Convergence criterion met
 Total energy in the final basis set =    -5265.6356286225
   14   -5265.6356299613      8.24e-07  Convergence criterion met
 Total energy in the final basis set =    -5265.6356299613

             Standard Nuclear Orientation (Angstroms)
    I     Atom           X                Y                Z
 ----------------------------------------------------------------
    1      Br      1.8763054188     0.4366788269     0.4118481765
    2      Br      0.7938611458     2.4965955620    -1.2795043462
    3      C      -0.6244916942    -1.2862402645    -0.1661612717
    4      C      -0.0639240048    -1.6245809931     1.0270325520
    5      C      -1.7153776714    -0.2956177421    -0.3487936674
    6      H      -0.2313250731    -1.7533070081    -1.0680367023
    7      H      -0.4262863127    -1.2018399031     1.9593350174
    8      H       0.7190503871    -2.3722040007     1.0906387793
    9      H      -2.1433875535     0.0327630154     0.6012012829
   10      H      -1.3112070373     0.5875586678    -0.8675925124
   11      H      -2.5084216047    -0.6988081605    -0.9891693080
 ----------------------------------------------------------------

   14   -5265.6356309030      8.28e-07  Convergence criterion met
 Total energy in the final basis set =    -5265.6356309030

                    Orbital Energies (a.u.)
 --------------------------------------------------------------

 Alpha MOs
 -- Occupied --
*******-482.841 -62.530 -62.498 -56.351 -56.350 -56.347 -56.321
-56.317 -56.316 -10.257 -10.246 -10.211  -8.717  -8.685  -6.545
 -6.540  -6.532  -6.516  -6.505  -6.501  -2.639  -2.639  -2.633
 -2.630  -2.628  -2.609  -2.606  -2.604  -2.596  -2.596  -0.839
 -0.780  -0.738  -0.726  -0.602  -0.512  -0.466  -0.447  -0.408
 -0.392  -0.367  -0.349  -0.308  -0.293  -0.269  -0.269  -0.252

 Beta MOs
 -- Occupied --
*******-482.839 -62.528 -62.497 -56.347 -56.347 -56.346 -56.316
-56.315 -56.315 -10.254 -10.243 -10.211  -8.713  -8.682  -6.537
 -6.535  -6.530  -6.508  -6.502  -6.500  -2.633  -2.633  -2.629
 -2.626  -2.626  -2.603  -2.601  -2.600  -2.594  -2.594  -0.830
 -0.744  -0.723  -0.700  -0.597  -0.509  -0.464  -0.440  -0.406
 -0.391  -0.321  -0.307  -0.295  -0.265  -0.257

          Ground-State Mulliken Net Atomic Charges

     Atom                 Charge (a.u.)    Spin (a.u.)
  --------------------------------------------------------
      1 Br                   -0.103297       0.881292
      2 Br                   -0.213301       0.765016
      3 C                     0.008867       0.196032
      4 C                    -0.206890       0.168227
      5 C                    -0.364181      -0.007098
      6 H                     0.138291      -0.008563
      7 H                     0.144635      -0.007425
      8 H                     0.148851      -0.007104
      9 H                     0.129142       0.000343
     10 H                     0.181586       0.010977
     11 H                     0.136299       0.008301
  --------------------------------------------------------
  Sum of atomic charges =    -0.000000

                    Cartesian Multipole Moments
 -----------------------------------------------------------------
    Charge (ESU x 10^10)
                 0.0000
    Dipole Moment (Debye)
         X      -2.6615      Y      -4.3375      Z       1.2591
       Tot       5.2425
    Quadrupole Moments (Debye-Ang)
        XX     -56.9144     XY      -2.5276     YY     -59.3183
        XZ       1.6894     YZ       1.5163     ZZ     -56.2148

 Final energy is   -5265.63563090304
 **  OPTIMIZATION CONVERGED  **
 Total job time:  69.19s(wall), 807.84s(cpu)
        *  Thank you very much for using Q-Chem.  Have a nice day.  *
