 Q-Chem 5.1, Q-Chem, Inc., Pleasanton, CA (2018)
 Q-Chem 5.1.1 for Intel X86 EM64T Linux

User input:
--------------------------------------------------------------

$comment
potential surface scanner
$end

$rem
JOBTYPE  PES_SCAN
UNRESTRICTED TRUE
SYM_IGNORE  TRUE
GEOM_OPT_MAX_CYCLES 400
SCF_MAX_CYCLES 400
METHOD   B3LYP
BASIS   6-31G**
PDB_PRINT 2
SCF_CONVERGENCE 6
THRESH 14
SCF_PRINT 1
$end
$molecule
0 1
Br -0.685600 1.788986 0.184333
Br 2.551194 -0.107944 -0.298021
C -0.546891 -0.126307 -0.324762
C 0.584422 -0.799995 0.404028
C -1.869965 -0.832060 -0.014039
H -0.359576 -0.106661 -1.398030
H 0.635152 -0.596710 1.470106
H 0.654841 -1.861918 0.174699
H -2.079540 -0.830544 1.059003
H -2.695784 -0.334573 -0.526657
H -1.823452 -1.871273 -0.359862
$end
$scan
stre 2 4 2.300000 2.301000 0.100000
$end
--------------------------------------------------------------

   10   -5265.7042465906      5.85e-07  Convergence criterion met
 Total energy in the final basis set =    -5265.7042465906
   11   -5265.6964325485      9.56e-08  Convergence criterion met
 Total energy in the final basis set =    -5265.6964325485
   11   -5265.6964414683      9.64e-08  Convergence criterion met
 Total energy in the final basis set =    -5265.6964414683
   11   -5265.6965192088      9.72e-08  Convergence criterion met
 Total energy in the final basis set =    -5265.6965192088
   11   -5265.6965209519      9.72e-08  Convergence criterion met
 Total energy in the final basis set =    -5265.6965209519

             Standard Nuclear Orientation (Angstroms)
    I     Atom           X                Y                Z
 ----------------------------------------------------------------
    1      Br     -0.6883690007     1.7840334337     0.1906816620
    2      Br      2.6152889160    -0.0901780067    -0.3252961855
    3      C      -0.5535399881    -0.1286556998    -0.3183417571
    4      C       0.5610336999    -0.8094562151     0.4181242113
    5      C      -1.8822305058    -0.8328518311    -0.0164590909
    6      H      -0.3587362075    -0.1135931694    -1.3902390992
    7      H       0.6459289858    -0.5902289717     1.4780490404
    8      H       0.6634454910    -1.8654619508     0.1780418623
    9      H      -2.0993465159    -0.8313793145     1.0549528293
   10      H      -2.7013154847    -0.3298922149    -0.5346387041
   11      H      -1.8373583899    -1.8713350597    -0.3640767685
 ----------------------------------------------------------------

   11   -5265.6965214462      9.72e-08  Convergence criterion met
 Total energy in the final basis set =    -5265.6965214462

                    Orbital Energies (a.u.)
 --------------------------------------------------------------

 Alpha MOs
 -- Occupied --
*******-482.844 -62.517 -62.502 -56.339 -56.335 -56.335 -56.323
-56.320 -56.320 -10.282 -10.278 -10.218  -8.704  -8.688  -6.535
 -6.522  -6.521  -6.518  -6.505  -6.505  -2.628  -2.625  -2.624
 -2.614  -2.614  -2.611  -2.608  -2.608  -2.598  -2.598  -0.860
 -0.764  -0.747  -0.703  -0.611  -0.505  -0.474  -0.449  -0.433
 -0.399  -0.367  -0.334  -0.289  -0.288  -0.275  -0.270

 Beta MOs
 -- Occupied --
*******-482.844 -62.517 -62.502 -56.339 -56.335 -56.335 -56.323
-56.320 -56.320 -10.282 -10.278 -10.218  -8.704  -8.688  -6.535
 -6.522  -6.521  -6.518  -6.505  -6.505  -2.628  -2.625  -2.624
 -2.614  -2.614  -2.611  -2.608  -2.608  -2.598  -2.598  -0.860
 -0.764  -0.747  -0.703  -0.611  -0.505  -0.474  -0.449  -0.433
 -0.399  -0.367  -0.334  -0.289  -0.288  -0.275  -0.270

          Ground-State Mulliken Net Atomic Charges

     Atom                 Charge (a.u.)    Spin (a.u.)
  --------------------------------------------------------
      1 Br                   -0.081599      -0.000000
      2 Br                   -0.193755      -0.000000
      3 C                    -0.138835      -0.000000
      4 C                    -0.208785      -0.000000
      5 C                    -0.325559       0.000000
      6 H                     0.180233       0.000000
      7 H                     0.186430      -0.000000
      8 H                     0.173258       0.000000
      9 H                     0.136779      -0.000000
     10 H                     0.148785      -0.000000
     11 H                     0.123048      -0.000000
  --------------------------------------------------------
  Sum of atomic charges =    -0.000000

                    Cartesian Multipole Moments
 -----------------------------------------------------------------
    Charge (ESU x 10^10)
                -0.0000
    Dipole Moment (Debye)
         X      -2.9518      Y      -2.6923      Z       0.3340
       Tot       4.0092
    Quadrupole Moments (Debye-Ang)
        XX     -61.8533     XY       1.9270     YY     -56.2607
        XZ       1.2927     YZ      -0.5210     ZZ     -55.3951

 Final energy is   -5265.69652144618
 **  OPTIMIZATION CONVERGED  **
 Total job time:  35.33s(wall), 404.89s(cpu)
        *  Thank you very much for using Q-Chem.  Have a nice day.  *
