 Q-Chem 5.1, Q-Chem, Inc., Pleasanton, CA (2018)
 Q-Chem 5.1.1 for Intel X86 EM64T Linux

User input:
--------------------------------------------------------------

$comment
potential surface scanner
$end

$rem
JOBTYPE  PES_SCAN
UNRESTRICTED TRUE
SYM_IGNORE  TRUE
GEOM_OPT_MAX_CYCLES 400
SCF_MAX_CYCLES 400
METHOD   B3LYP
BASIS   6-31G**
PDB_PRINT 2
SCF_CONVERGENCE 6
THRESH 14
SCF_PRINT 1
$end
$molecule
0 3
Br 1.350223 0.126918 -2.643582
Br 1.843566 0.702265 0.131432
C -0.664593 -1.151112 0.286553
C -0.174327 -0.698073 1.475740
C -1.740142 -0.503872 -0.505332
H -0.208170 -2.039422 -0.147527
H -0.596939 0.173579 1.965959
H 0.582759 -1.253406 2.017357
H -2.490678 -1.243169 -0.810163
H -2.229810 0.309214 0.035984
H -1.307097 -0.101923 -1.435611
$end
$scan
stre 2 4 2.700000 2.701000 0.100000
$end
--------------------------------------------------------------

   14   -5265.6351662805      7.89e-07  Convergence criterion met
 Total energy in the final basis set =    -5265.6351662805
   14   -5265.6352159210      5.52e-07  Convergence criterion met
 Total energy in the final basis set =    -5265.6352159210
   14   -5265.6353446614      5.66e-07  Convergence criterion met
 Total energy in the final basis set =    -5265.6353446614
   14   -5265.6354214925      5.94e-07  Convergence criterion met
 Total energy in the final basis set =    -5265.6354214925
   14   -5265.6354665009      6.23e-07  Convergence criterion met
 Total energy in the final basis set =    -5265.6354665009
   14   -5265.6354999075      6.52e-07  Convergence criterion met
 Total energy in the final basis set =    -5265.6354999075
   14   -5265.6355124034      6.64e-07  Convergence criterion met
 Total energy in the final basis set =    -5265.6355124034
   14   -5265.6355193520      6.67e-07  Convergence criterion met
 Total energy in the final basis set =    -5265.6355193520
   14   -5265.6355223614      6.68e-07  Convergence criterion met
 Total energy in the final basis set =    -5265.6355223614
   14   -5265.6355239009      6.68e-07  Convergence criterion met
 Total energy in the final basis set =    -5265.6355239009

             Standard Nuclear Orientation (Angstroms)
    I     Atom           X                Y                Z
 ----------------------------------------------------------------
    1      Br      1.3541913681     0.1094710028    -2.5939056660
    2      Br      1.8271203050     0.7008095839     0.2061870699
    3      C      -0.6692190286    -1.1549930406     0.2721698059
    4      C      -0.1402908594    -0.6771949641     1.4392315687
    5      C      -1.7542243811    -0.5089820512    -0.5066631903
    6      H      -0.2264261969    -2.0520743682    -0.1576325653
    7      H      -0.5602640026     0.1943532211     1.9313949884
    8      H       0.6070474685    -1.2408387330     1.9849669804
    9      H      -2.5059168349    -1.2485704427    -0.8071922460
   10      H      -2.2396480753     0.3024157495     0.0408618224
   11      H      -1.3275777628    -0.1033969575    -1.4386085679
 ----------------------------------------------------------------

   14   -5265.6355248455      6.69e-07  Convergence criterion met
 Total energy in the final basis set =    -5265.6355248455

                    Orbital Energies (a.u.)
 --------------------------------------------------------------

 Alpha MOs
 -- Occupied --
*******-482.834 -62.530 -62.491 -56.351 -56.349 -56.347 -56.314
-56.309 -56.308 -10.262 -10.251 -10.214  -8.717  -8.678  -6.545
 -6.540  -6.532  -6.510  -6.496  -6.494  -2.639  -2.639  -2.633
 -2.629  -2.628  -2.602  -2.599  -2.598  -2.588  -2.588  -0.844
 -0.779  -0.735  -0.726  -0.605  -0.515  -0.470  -0.450  -0.411
 -0.396  -0.365  -0.357  -0.306  -0.282  -0.266  -0.264  -0.252

 Beta MOs
 -- Occupied --
*******-482.832 -62.528 -62.490 -56.347 -56.347 -56.346 -56.309
-56.308 -56.308 -10.257 -10.249 -10.214  -8.713  -8.675  -6.538
 -6.534  -6.530  -6.502  -6.494  -6.493  -2.633  -2.633  -2.629
 -2.626  -2.625  -2.596  -2.594  -2.593  -2.587  -2.586  -0.832
 -0.745  -0.724  -0.697  -0.599  -0.512  -0.467  -0.440  -0.409
 -0.394  -0.325  -0.312  -0.293  -0.260  -0.254

          Ground-State Mulliken Net Atomic Charges

     Atom                 Charge (a.u.)    Spin (a.u.)
  --------------------------------------------------------
      1 Br                   -0.249031       0.726001
      2 Br                   -0.095688       0.861797
      3 C                     0.029195       0.335411
      4 C                    -0.232649       0.082335
      5 C                    -0.366854      -0.018791
      6 H                     0.147964      -0.014788
      7 H                     0.151922      -0.003666
      8 H                     0.160819      -0.002743
      9 H                     0.138861       0.012603
     10 H                     0.128012       0.000826
     11 H                     0.187448       0.021014
  --------------------------------------------------------
  Sum of atomic charges =     0.000000

                    Cartesian Multipole Moments
 -----------------------------------------------------------------
    Charge (ESU x 10^10)
                 0.0000
    Dipole Moment (Debye)
         X      -3.5852      Y      -1.8963      Z       3.5431
       Tot       5.3855
    Quadrupole Moments (Debye-Ang)
        XX     -58.4544     XY       0.0809     YY     -55.1111
        XZ       4.8672     YZ       0.3744     ZZ     -60.4761

 Final energy is   -5265.63552484549
 **  OPTIMIZATION CONVERGED  **
 Total job time:  71.04s(wall), 824.05s(cpu)
        *  Thank you very much for using Q-Chem.  Have a nice day.  *
