 Q-Chem 5.1, Q-Chem, Inc., Pleasanton, CA (2018)
 Q-Chem 5.1.1 for Intel X86 EM64T Linux

User input:
--------------------------------------------------------------

$comment
potential surface scanner
$end

$rem
JOBTYPE  PES_SCAN
UNRESTRICTED TRUE
SYM_IGNORE  TRUE
GEOM_OPT_MAX_CYCLES 400
SCF_MAX_CYCLES 400
METHOD   B3LYP
BASIS   6-31G**
PDB_PRINT 2
SCF_CONVERGENCE 6
THRESH 14
SCF_PRINT 1
$end
$molecule
0 3
Br 1.437164 -0.076162 -2.419030
Br 1.584157 0.772328 0.444979
C -0.669902 -1.171673 0.210659
C 0.051452 -0.571352 1.272830
C -1.788706 -0.504635 -0.502622
H -0.277647 -2.092749 -0.213009
H -0.475649 0.173411 1.863652
H 0.705835 -1.214091 1.852926
H -2.565891 -1.223002 -0.785411
H -2.237949 0.302332 0.083248
H -1.398074 -0.073406 -1.437409
$end
$scan
stre 2 4 2.100000 2.101000 0.100000
$end
--------------------------------------------------------------

   12   -5265.6333566439      5.76e-07  Convergence criterion met
 Total energy in the final basis set =    -5265.6333566439
   12   -5265.6304713635      4.39e-07  Convergence criterion met
 Total energy in the final basis set =    -5265.6304713635
   12   -5265.6310195578      4.24e-07  Convergence criterion met
 Total energy in the final basis set =    -5265.6310195578
   12   -5265.6312612727      4.22e-07  Convergence criterion met
 Total energy in the final basis set =    -5265.6312612727
   12   -5265.6312795467      4.20e-07  Convergence criterion met
 Total energy in the final basis set =    -5265.6312795467
   12   -5265.6313192745      4.15e-07  Convergence criterion met
 Total energy in the final basis set =    -5265.6313192745
   12   -5265.6312758008      4.09e-07  Convergence criterion met
 Total energy in the final basis set =    -5265.6312758008
   12   -5265.6313578115      4.12e-07  Convergence criterion met
   11   -5265.6322295604      9.72e-07  Convergence criterion met
 Total energy in the final basis set =    -5265.6322295604
   11   -5265.6322518837      9.82e-07  Convergence criterion met
 Total energy in the final basis set =    -5265.6322518837
   11   -5265.6322593883      9.89e-07  Convergence criterion met
 Total energy in the final basis set =    -5265.6322593883
   11   -5265.6322645400      9.96e-07  Convergence criterion met
 Total energy in the final basis set =    -5265.6322645400
   11   -5265.6322665023      9.96e-07  Convergence criterion met
 Total energy in the final basis set =    -5265.6322665023
   11   -5265.6322683775      9.92e-07  Convergence criterion met
 Total energy in the final basis set =    -5265.6322683775

             Standard Nuclear Orientation (Angstroms)
    I     Atom           X                Y                Z
 ----------------------------------------------------------------
    1      Br      2.8561924740    -0.7742291306    -1.5157240157
    2      Br      1.2557796401     1.1040446109     0.1609735330
    3      C      -0.7359221777    -1.0387422119    -0.0370560790
    4      C       0.1476397241    -0.4939570933     0.9537017792
    5      C      -2.0951115382    -0.4995732116    -0.3110970667
    6      H      -0.3215593685    -1.7675346956    -0.7289781137
    7      H      -0.3338072310     0.0056157989     1.7931464726
    8      H       0.9640142515    -1.1413805353     1.2628110742
    9      H      -2.8104167047    -1.3106091657    -0.4926637721
   10      H      -2.4693388916     0.1205119663     0.5088623248
   11      H      -2.0926801780     0.1168546679    -1.2231631365
 ----------------------------------------------------------------

   11   -5265.6322691797      9.89e-07  Convergence criterion met
 Total energy in the final basis set =    -5265.6322691797

                    Orbital Energies (a.u.)
 --------------------------------------------------------------

 Alpha MOs
 -- Occupied --
*******-482.837 -62.538 -62.494 -56.359 -56.357 -56.355 -56.317
-56.312 -56.311 -10.264 -10.242 -10.212  -8.726  -8.681  -6.554
 -6.547  -6.542  -6.514  -6.498  -6.497  -2.648  -2.647  -2.643
 -2.638  -2.637  -2.606  -2.602  -2.602  -2.590  -2.590  -0.850
 -0.790  -0.737  -0.715  -0.605  -0.508  -0.465  -0.451  -0.409
 -0.401  -0.393  -0.353  -0.310  -0.273  -0.269  -0.263  -0.235

 Beta MOs
 -- Occupied --
*******-482.835 -62.537 -62.493 -56.357 -56.355 -56.355 -56.313
-56.311 -56.311 -10.265 -10.231 -10.212  -8.723  -8.678  -6.550
 -6.543  -6.540  -6.505  -6.496  -6.496  -2.645  -2.643  -2.641
 -2.635  -2.635  -2.600  -2.597  -2.597  -2.589  -2.589  -0.833
 -0.772  -0.712  -0.700  -0.591  -0.503  -0.459  -0.434  -0.404
 -0.390  -0.383  -0.314  -0.302  -0.262  -0.258

          Ground-State Mulliken Net Atomic Charges

     Atom                 Charge (a.u.)    Spin (a.u.)
  --------------------------------------------------------
      1 Br                   -0.237033       0.742021
      2 Br                   -0.009653       0.507731
      3 C                    -0.012830       0.821506
      4 C                    -0.291012      -0.063198
      5 C                    -0.355716      -0.061044
      6 H                     0.146196      -0.035886
      7 H                     0.162164       0.005789
      8 H                     0.186707       0.007998
      9 H                     0.136659       0.022307
     10 H                     0.121905       0.003500
     11 H                     0.152614       0.049276
  --------------------------------------------------------
  Sum of atomic charges =     0.000000

                    Cartesian Multipole Moments
 -----------------------------------------------------------------
    Charge (ESU x 10^10)
                 0.0000
    Dipole Moment (Debye)
         X      -4.3746      Y      -0.6305      Z       2.2417
       Tot       4.9558
    Quadrupole Moments (Debye-Ang)
        XX     -63.5077     XY       1.7001     YY     -55.8756
        XZ       4.7502     YZ      -0.6788     ZZ     -57.1795

 Final energy is   -5265.63226917971
 **  OPTIMIZATION CONVERGED  **
 Total job time:  148.66s(wall), 1737.26s(cpu)
        *  Thank you very much for using Q-Chem.  Have a nice day.  *
