 Q-Chem 5.1, Q-Chem, Inc., Pleasanton, CA (2018)
 Q-Chem 5.1.1 for Intel X86 EM64T Linux

User input:
--------------------------------------------------------------

$comment
potential surface scanner
$end

$rem
JOBTYPE  PES_SCAN
UNRESTRICTED TRUE
SYM_IGNORE  TRUE
GEOM_OPT_MAX_CYCLES 400
SCF_MAX_CYCLES 400
METHOD   B3LYP
BASIS   6-31G**
PDB_PRINT 2
SCF_CONVERGENCE 6
THRESH 14
SCF_PRINT 1
$end
$molecule
0 3
Br 1.375961 0.029363 -2.509674
Br 1.754563 0.727202 0.327251
C -0.672255 -1.160683 0.243977
C -0.064812 -0.636258 1.366892
C -1.775745 -0.510917 -0.505027
H -0.254828 -2.071278 -0.181364
H -0.505490 0.211288 1.881725
H 0.651439 -1.226483 1.925633
H -2.523856 -1.248748 -0.816064
H -2.261114 0.284614 0.065710
H -1.359071 -0.077100 -1.428247
$end
$scan
stre 2 4 2.400000 2.401000 0.100000
$end
--------------------------------------------------------------

   14   -5265.6356043661      3.93e-07  Convergence criterion met
 Total energy in the final basis set =    -5265.6356043661
   13   -5265.6345279190      4.67e-07  Convergence criterion met
 Total energy in the final basis set =    -5265.6345279190
   13   -5265.6348296961      5.37e-07  Convergence criterion met
 Total energy in the final basis set =    -5265.6348296961
   13   -5265.6350242857      5.63e-07  Convergence criterion met
 Total energy in the final basis set =    -5265.6350242857
   13   -5265.6351203442      5.75e-07  Convergence criterion met
 Total energy in the final basis set =    -5265.6351203442
   13   -5265.6351311219      5.72e-07  Convergence criterion met
 Total energy in the final basis set =    -5265.6351311219
   13   -5265.6351436299      5.68e-07  Convergence criterion met
 Total energy in the final basis set =    -5265.6351436299
   13   -5265.6351458140      5.70e-07  Convergence criterion met
 Total energy in the final basis set =    -5265.6351458140
   13   -5265.6351481527      5.74e-07  Convergence criterion met
 Total energy in the final basis set =    -5265.6351481527

             Standard Nuclear Orientation (Angstroms)
    I     Atom           X                Y                Z
 ----------------------------------------------------------------
    1      Br      1.3933766683    -0.0150651073    -2.4693282605
    2      Br      1.6945118820     0.7554131457     0.3751089605
    3      C      -0.6721454258    -1.1654309176     0.2306334566
    4      C      -0.0250821307    -0.6182393234     1.3322268842
    5      C      -1.7814527698    -0.5087099420    -0.5038356119
    6      H      -0.2648725191    -2.0794349312    -0.1962625305
    7      H      -0.4900586668     0.2012542089     1.8708209079
    8      H       0.6741913990    -1.2245642551     1.8961771963
    9      H      -2.5405441496    -1.2386775603    -0.8060581941
   10      H      -2.2523883431     0.2920960410     0.0719295789
   11      H      -1.3707439444    -0.0776413587    -1.4306003874
 ----------------------------------------------------------------

   13   -5265.6351487941      5.75e-07  Convergence criterion met
 Total energy in the final basis set =    -5265.6351487941

                    Orbital Energies (a.u.)
 --------------------------------------------------------------

 Alpha MOs
 -- Occupied --
*******-482.832 -62.528 -62.490 -56.349 -56.347 -56.345 -56.312
-56.307 -56.307 -10.261 -10.260 -10.212  -8.715  -8.677  -6.543
 -6.537  -6.530  -6.509  -6.493  -6.493  -2.637  -2.637  -2.631
 -2.627  -2.626  -2.601  -2.597  -2.597  -2.586  -2.586  -0.847
 -0.780  -0.735  -0.722  -0.608  -0.516  -0.471  -0.452  -0.412
 -0.398  -0.377  -0.353  -0.303  -0.271  -0.265  -0.257  -0.253

 Beta MOs
 -- Occupied --
*******-482.830 -62.527 -62.488 -56.346 -56.345 -56.344 -56.308
-56.306 -56.306 -10.260 -10.253 -10.213  -8.712  -8.673  -6.537
 -6.533  -6.529  -6.500  -6.492  -6.492  -2.632  -2.631  -2.628
 -2.624  -2.624  -2.595  -2.592  -2.592  -2.585  -2.585  -0.832
 -0.754  -0.720  -0.697  -0.599  -0.512  -0.467  -0.438  -0.409
 -0.395  -0.347  -0.309  -0.292  -0.259  -0.254

          Ground-State Mulliken Net Atomic Charges

     Atom                 Charge (a.u.)    Spin (a.u.)
  --------------------------------------------------------
      1 Br                   -0.254793       0.715282
      2 Br                   -0.083417       0.740547
      3 C                     0.027319       0.561264
      4 C                    -0.263110      -0.011764
      5 C                    -0.364266      -0.037856
      6 H                     0.148881      -0.024549
      7 H                     0.165331       0.001131
      8 H                     0.172172       0.001234
      9 H                     0.137028       0.015480
     10 H                     0.126351       0.002695
     11 H                     0.188502       0.036537
  --------------------------------------------------------
  Sum of atomic charges =     0.000000

                    Cartesian Multipole Moments
 -----------------------------------------------------------------
    Charge (ESU x 10^10)
                 0.0000
    Dipole Moment (Debye)
         X      -3.6541      Y      -1.8576      Z       3.4955
       Tot       5.3872
    Quadrupole Moments (Debye-Ang)
        XX     -58.8466     XY       0.0740     YY     -55.0432
        XZ       4.7465     YZ      -0.0318     ZZ     -59.9047

 Final energy is   -5265.63514879414
 **  OPTIMIZATION CONVERGED  **
 Total job time:  63.08s(wall), 735.58s(cpu)
        *  Thank you very much for using Q-Chem.  Have a nice day.  *
