 Q-Chem 5.1, Q-Chem, Inc., Pleasanton, CA (2018)
 Q-Chem 5.1.1 for Intel X86 EM64T Linux

User input:
--------------------------------------------------------------

$comment
potential surface scanner
$end

$rem
JOBTYPE  PES_SCAN
UNRESTRICTED TRUE
SYM_IGNORE  TRUE
GEOM_OPT_MAX_CYCLES 400
SCF_MAX_CYCLES 400
METHOD   B3LYP
BASIS   6-31G**
PDB_PRINT 2
SCF_CONVERGENCE 6
THRESH 14
SCF_PRINT 1
$end
$molecule
0 3
Br -0.697185 1.734799 0.024140
Br 5.534959 0.209635 -0.740145
C -0.897282 -0.450673 -0.297613
C 0.193828 -0.988859 0.441351
C -2.306872 -0.800788 0.123557
H -0.748863 -0.421622 -1.374704
H 0.072428 -1.256059 1.486385
H 1.196122 -0.992060 0.029613
H -2.440506 -0.681611 1.201619
H -3.042698 -0.181283 -0.390924
H -2.499134 -1.850479 -0.132480
$end
$scan
stre 2 4 5.500000 5.501000 0.100000
$end
--------------------------------------------------------------

   34   -5265.6121290731      1.11e-07  Convergence criterion met
 Total energy in the final basis set =    -5265.6121290731
   36   -5265.6108373301      2.33e-07  Convergence criterion met
 Total energy in the final basis set =    -5265.6108373301
   38   -5265.6118315977      4.95e-07  Convergence criterion met
 Total energy in the final basis set =    -5265.6118315977
   42   -5265.6120898681      3.01e-07  Convergence criterion met
 Total energy in the final basis set =    -5265.6120898681
   39   -5265.6120961253      1.00e-07  Convergence criterion met
 Total energy in the final basis set =    -5265.6120961253
   39   -5265.6120989408      8.79e-07  Convergence criterion met
 Total energy in the final basis set =    -5265.6120989408
   37   -5265.6121036818      1.38e-07  Convergence criterion met
 Total energy in the final basis set =    -5265.6121036818
   34   -5265.6121070808      6.42e-08  Convergence criterion met
 Total energy in the final basis set =    -5265.6121070808
   35   -5265.6121099458      8.48e-08  Convergence criterion met
 Total energy in the final basis set =    -5265.6121099458
   35   -5265.6121116712      4.65e-08  Convergence criterion met
 Total energy in the final basis set =    -5265.6121116712

             Standard Nuclear Orientation (Angstroms)
    I     Atom           X                Y                Z
 ----------------------------------------------------------------
    1      Br     -0.7078211776     1.7421717805     0.0318195933
    2      Br      5.4510493421     0.1669691402    -0.7437742637
    3      C      -0.8884291275    -0.4424659427    -0.2956607531
    4      C       0.2040577026    -0.9741534367     0.4465693968
    5      C      -2.2967128890    -0.8065707926     0.1181647470
    6      H      -0.7355725627    -0.4102664136    -1.3720578043
    7      H       0.0805050678    -1.2451383140     1.4903652631
    8      H       1.2079198902    -0.9682606158     0.0391040324
    9      H      -2.4356591808    -0.6938861730     1.1962732218
   10      H      -3.0357783588    -0.1908061861    -0.3961985128
   11      H      -2.4787617063    -1.8565930460    -0.1438059204
 ----------------------------------------------------------------

   34   -5265.6121126010      9.55e-07  Convergence criterion met
 Total energy in the final basis set =    -5265.6121126010

                    Orbital Energies (a.u.)
 --------------------------------------------------------------

 Alpha MOs
 -- Occupied --
*******-482.832 -62.558 -62.490 -56.383 -56.375 -56.375 -56.311
-56.307 -56.307 -10.259 -10.226 -10.201  -8.746  -8.677  -6.582
 -6.560  -6.560  -6.507  -6.495  -6.494  -2.673  -2.668  -2.668
 -2.651  -2.651  -2.600  -2.597  -2.596  -2.587  -2.587  -0.831
 -0.798  -0.731  -0.712  -0.592  -0.494  -0.449  -0.441  -0.393
 -0.383  -0.373  -0.354  -0.324  -0.324  -0.273  -0.268  -0.229

 Beta MOs
 -- Occupied --
*******-482.831 -62.557 -62.489 -56.377 -56.374 -56.374 -56.309
-56.307 -56.307 -10.260 -10.215 -10.201  -8.742  -8.675  -6.572
 -6.558  -6.558  -6.503  -6.494  -6.493  -2.665  -2.662  -2.662
 -2.650  -2.650  -2.597  -2.594  -2.594  -2.586  -2.586  -0.822
 -0.755  -0.719  -0.695  -0.585  -0.489  -0.445  -0.437  -0.389
 -0.381  -0.331  -0.310  -0.310  -0.266  -0.263

          Ground-State Mulliken Net Atomic Charges

     Atom                 Charge (a.u.)    Spin (a.u.)
  --------------------------------------------------------
      1 Br                   -0.213406       0.331088
      2 Br                   -0.000475       0.999387
      3 C                    -0.120650      -0.102318
      4 C                    -0.162189       0.835380
      5 C                    -0.316201       0.006469
      6 H                     0.159117       0.006814
      7 H                     0.128584      -0.036633
      8 H                     0.128766      -0.037144
      9 H                     0.133323      -0.001179
     10 H                     0.139348       0.001396
     11 H                     0.123785      -0.003261
  --------------------------------------------------------
  Sum of atomic charges =     0.000000

                    Cartesian Multipole Moments
 -----------------------------------------------------------------
    Charge (ESU x 10^10)
                -0.0000
    Dipole Moment (Debye)
         X      -0.2481      Y      -3.1261      Z      -0.1708
       Tot       3.1406
    Quadrupole Moments (Debye-Ang)
        XX     -53.1234     XY       3.5680     YY     -59.3384
        XZ       0.0519     YZ      -0.5830     ZZ     -56.0652

 Final energy is   -5265.61211260104
 **  OPTIMIZATION CONVERGED  **
 Total job time:  142.78s(wall), 1562.94s(cpu)
        *  Thank you very much for using Q-Chem.  Have a nice day.  *
