 Q-Chem 5.1, Q-Chem, Inc., Pleasanton, CA (2018)
 Q-Chem 5.1.1 for Intel X86 EM64T Linux

User input:
--------------------------------------------------------------

$comment
potential surface scanner
$end

$rem
JOBTYPE  PES_SCAN
UNRESTRICTED TRUE
SYM_IGNORE  TRUE
GEOM_OPT_MAX_CYCLES 400
SCF_MAX_CYCLES 400
METHOD   B3LYP
BASIS   6-31G**
PDB_PRINT 2
SCF_CONVERGENCE 6
THRESH 14
SCF_PRINT 1
$end
$molecule
0 3
Br 2.022418 0.165987 0.333981
Br 0.658256 2.504787 -0.636772
C -0.676017 -1.330523 -0.194343
C 0.035521 -1.434002 0.972000
C -1.743175 -0.331174 -0.447717
H -0.405950 -1.989431 -1.018227
H -0.236064 -0.845448 1.841997
H 0.744725 -2.240086 1.123660
H -2.074559 0.162274 0.468524
H -1.358719 0.451196 -1.123007
H -2.601641 -0.792582 -0.949294
$end
$scan
stre 2 4 4.200000 4.201000 0.100000
$end
--------------------------------------------------------------

   14   -5265.6363289388      5.99e-07  Convergence criterion met
 Total energy in the final basis set =    -5265.6363289388
   14   -5265.6357178482      5.71e-07  Convergence criterion met
 Total energy in the final basis set =    -5265.6357178482
   14   -5265.6361710159      5.88e-07  Convergence criterion met
 Total energy in the final basis set =    -5265.6361710159
   14   -5265.6362081386      5.85e-07  Convergence criterion met
 Total energy in the final basis set =    -5265.6362081386
   14   -5265.6362285558      5.81e-07  Convergence criterion met
 Total energy in the final basis set =    -5265.6362285558
   14   -5265.6362428605      5.75e-07  Convergence criterion met
 Total energy in the final basis set =    -5265.6362428605
   14   -5265.6362475304      5.70e-07  Convergence criterion met
 Total energy in the final basis set =    -5265.6362475304
   14   -5265.6362531355      5.61e-07  Convergence criterion met
 Total energy in the final basis set =    -5265.6362531355
   14   -5265.6362572383      5.53e-07  Convergence criterion met
 Total energy in the final basis set =    -5265.6362572383
   14   -5265.6362599726      5.48e-07  Convergence criterion met
 Total energy in the final basis set =    -5265.6362599726
   14   -5265.6362614635      5.47e-07  Convergence criterion met
 Total energy in the final basis set =    -5265.6362614635
   14   -5265.6362627104      5.48e-07  Convergence criterion met
 Total energy in the final basis set =    -5265.6362627104

             Standard Nuclear Orientation (Angstroms)
    I     Atom           X                Y                Z
 ----------------------------------------------------------------
    1      Br      2.0543752420     0.1217272315     0.3323933288
    2      Br      0.6572259019     2.4716000379    -0.5728143841
    3      C      -0.6816018620    -1.3275221200    -0.1985341017
    4      C       0.0569842912    -1.3935362494     0.9570325572
    5      C      -1.7573672509    -0.3389782317    -0.4550773989
    6      H      -0.4237576936    -2.0068585583    -1.0095113423
    7      H      -0.2102828733    -0.7898145870     1.8177419589
    8      H       0.7483457808    -2.2111247901     1.1261057441
    9      H      -2.1025994632     0.1449269928     0.4611772864
   10      H      -1.3715990090     0.4542765973    -1.1167669394
   11      H      -2.6049280640    -0.8036983227    -0.9709447090
 ----------------------------------------------------------------

   14   -5265.6362637102      5.50e-07  Convergence criterion met
 Total energy in the final basis set =    -5265.6362637102

                    Orbital Energies (a.u.)
 --------------------------------------------------------------

 Alpha MOs
 -- Occupied --
*******-482.833 -62.529 -62.490 -56.350 -56.348 -56.346 -56.312
-56.308 -56.307 -10.261 -10.253 -10.213  -8.716  -8.677  -6.544
 -6.539  -6.531  -6.508  -6.495  -6.493  -2.638  -2.637  -2.632
 -2.628  -2.627  -2.601  -2.598  -2.597  -2.587  -2.587  -0.845
 -0.780  -0.735  -0.723  -0.607  -0.516  -0.469  -0.450  -0.411
 -0.397  -0.368  -0.356  -0.306  -0.282  -0.264  -0.258  -0.249

 Beta MOs
 -- Occupied --
*******-482.831 -62.527 -62.489 -56.346 -56.345 -56.345 -56.308
-56.307 -56.306 -10.256 -10.252 -10.213  -8.712  -8.674  -6.537
 -6.533  -6.529  -6.500  -6.493  -6.492  -2.632  -2.632  -2.628
 -2.625  -2.625  -2.595  -2.593  -2.592  -2.586  -2.586  -0.832
 -0.748  -0.723  -0.695  -0.600  -0.512  -0.466  -0.439  -0.408
 -0.395  -0.331  -0.312  -0.294  -0.259  -0.253

          Ground-State Mulliken Net Atomic Charges

     Atom                 Charge (a.u.)    Spin (a.u.)
  --------------------------------------------------------
      1 Br                   -0.091790       0.827877
      2 Br                   -0.245987       0.732578
      3 C                     0.024264       0.398266
      4 C                    -0.242531       0.040847
      5 C                    -0.360281      -0.022605
      6 H                     0.135375      -0.017581
      7 H                     0.163545      -0.001601
      8 H                     0.161766      -0.000258
      9 H                     0.136602       0.002077
     10 H                     0.185701       0.026581
     11 H                     0.133336       0.013821
  --------------------------------------------------------
  Sum of atomic charges =    -0.000000

                    Cartesian Multipole Moments
 -----------------------------------------------------------------
    Charge (ESU x 10^10)
                -0.0000
    Dipole Moment (Debye)
         X      -2.8628      Y      -4.6466      Z       0.7316
       Tot       5.5066
    Quadrupole Moments (Debye-Ang)
        XX     -56.9225     XY      -2.3894     YY     -59.7152
        XZ       1.4791     YZ       0.7356     ZZ     -55.4679

 Final energy is   -5265.63626371022
 **  OPTIMIZATION CONVERGED  **
 Total job time:  83.30s(wall), 975.27s(cpu)
        *  Thank you very much for using Q-Chem.  Have a nice day.  *
