 Q-Chem 5.1, Q-Chem, Inc., Pleasanton, CA (2018)
 Q-Chem 5.1.1 for Intel X86 EM64T Linux

User input:
--------------------------------------------------------------

$comment
potential surface scanner
$end

$rem
JOBTYPE  PES_SCAN
UNRESTRICTED TRUE
SYM_IGNORE  TRUE
GEOM_OPT_MAX_CYCLES 400
SCF_MAX_CYCLES 400
METHOD   B3LYP
BASIS   6-31G**
PDB_PRINT 2
SCF_CONVERGENCE 6
THRESH 14
SCF_PRINT 1
$end
$molecule
0 1
Br -0.621000 1.744900 0.138600
Br 2.339300 0.022500 -0.135100
C -0.519000 -0.151000 -0.364100
C 0.644500 -0.814800 0.353000
C -1.843800 -0.801500 0.007700
H -0.380000 -0.157800 -1.450100
H 0.570800 -0.733000 1.441800
H 0.738000 -1.869500 0.078300
H -2.034600 -0.746700 1.085500
H -2.681600 -0.314200 -0.503400
H -1.847800 -1.857900 -0.281400
$end
$scan
stre 2 4 1.500000 1.501000 0.100000
$end
--------------------------------------------------------------

    9   -5265.7112865010      6.36e-07  Convergence criterion met
 Total energy in the final basis set =    -5265.7112865010
   10   -5265.7007251862      3.44e-07  Convergence criterion met
 Total energy in the final basis set =    -5265.7007251862
   10   -5265.6662322229      3.17e-07  Convergence criterion met
 Total energy in the final basis set =    -5265.6662322229
   10   -5265.6026433247      3.26e-07  Convergence criterion met
 Total energy in the final basis set =    -5265.6026433247
   10   -5265.5773367352      3.37e-07  Convergence criterion met
 Total energy in the final basis set =    -5265.5773367352
   10   -5265.5771043537      3.39e-07  Convergence criterion met
 Total energy in the final basis set =    -5265.5771043537
   10   -5265.5773092340      3.41e-07  Convergence criterion met
 Total energy in the final basis set =    -5265.5773092340
   10   -5265.5773327293      3.41e-07  Convergence criterion met
 Total energy in the final basis set =    -5265.5773327293

             Standard Nuclear Orientation (Angstroms)
    I     Atom           X                Y                Z
 ----------------------------------------------------------------
    1      Br     -0.6567651665     1.8307594864     0.0951046042
    2      Br      2.1305666249    -0.2042257299    -0.0319419417
    3      C      -0.5030341546    -0.1094596532    -0.3696168135
    4      C       0.7675555803    -0.7329690651     0.3036650882
    5      C      -1.7871014930    -0.8215264688     0.0247905078
    6      H      -0.3686654989    -0.0942644707    -1.4541146424
    7      H       0.5059011754    -0.7176897488     1.3783215715
    8      H       0.6054608587    -1.8021576338     0.0588114347
    9      H      -1.9458013434    -0.7784528804     1.1063138740
   10      H      -2.6530250489    -0.3736551819    -0.4660837546
   11      H      -1.7302915340    -1.8753586537    -0.2744499281
 ----------------------------------------------------------------

   10   -5265.5773389957      3.41e-07  Convergence criterion met
 Total energy in the final basis set =    -5265.5773389957

                    Orbital Energies (a.u.)
 --------------------------------------------------------------

 Alpha MOs
 -- Occupied --
*******-482.847 -62.527 -62.506 -56.347 -56.344 -56.344 -56.327
-56.323 -56.323 -10.261 -10.239 -10.202  -8.720  -8.693  -6.551
 -6.537  -6.537  -6.522  -6.510  -6.510  -2.647  -2.641  -2.640
 -2.630  -2.630  -2.616  -2.613  -2.612  -2.603  -2.603  -0.945
 -0.820  -0.739  -0.666  -0.598  -0.505  -0.476  -0.465  -0.438
 -0.403  -0.388  -0.354  -0.284  -0.279  -0.267  -0.265

 Beta MOs
 -- Occupied --
*******-482.847 -62.527 -62.506 -56.347 -56.344 -56.344 -56.327
-56.323 -56.323 -10.261 -10.239 -10.202  -8.720  -8.693  -6.551
 -6.537  -6.537  -6.522  -6.510  -6.510  -2.647  -2.641  -2.640
 -2.630  -2.630  -2.616  -2.613  -2.612  -2.603  -2.603  -0.945
 -0.820  -0.739  -0.666  -0.598  -0.505  -0.476  -0.465  -0.438
 -0.403  -0.388  -0.354  -0.284  -0.279  -0.267  -0.265

          Ground-State Mulliken Net Atomic Charges

     Atom                 Charge (a.u.)    Spin (a.u.)
  --------------------------------------------------------
      1 Br                   -0.122269       0.000000
      2 Br                   -0.002402      -0.000000
      3 C                    -0.160920       0.000000
      4 C                    -0.187998       0.000000
      5 C                    -0.319762       0.000000
      6 H                     0.153611      -0.000000
      7 H                     0.132763       0.000000
      8 H                     0.122446      -0.000000
      9 H                     0.131967      -0.000000
     10 H                     0.137518       0.000000
     11 H                     0.115045      -0.000000
  --------------------------------------------------------
  Sum of atomic charges =    -0.000000

                    Cartesian Multipole Moments
 -----------------------------------------------------------------
    Charge (ESU x 10^10)
                -0.0000
    Dipole Moment (Debye)
         X      -0.9465      Y      -2.6414      Z      -0.1159
       Tot       2.8083
    Quadrupole Moments (Debye-Ang)
        XX     -57.3520     XY       1.6013     YY     -57.1940
        XZ       0.5135     YZ      -0.0852     ZZ     -55.3373

 Final energy is   -5265.57733899566
 **  OPTIMIZATION CONVERGED  **
 Total job time:  52.58s(wall), 597.13s(cpu)
        *  Thank you very much for using Q-Chem.  Have a nice day.  *
