 Q-Chem 5.1, Q-Chem, Inc., Pleasanton, CA (2018)
 Q-Chem 5.1.1 for Intel X86 EM64T Linux

User input:
--------------------------------------------------------------

$comment
potential surface scanner
$end

$rem
JOBTYPE  PES_SCAN
UNRESTRICTED TRUE
SYM_IGNORE  TRUE
GEOM_OPT_MAX_CYCLES 400
SCF_MAX_CYCLES 400
METHOD   B3LYP
BASIS   6-31G**
PDB_PRINT 2
SCF_CONVERGENCE 6
THRESH 14
SCF_PRINT 1
$end
$molecule
0 1
Br -0.621000 1.744900 0.138600
Br 2.339300 0.022500 -0.135100
C -0.519000 -0.151000 -0.364100
C 0.644500 -0.814800 0.353000
C -1.843800 -0.801500 0.007700
H -0.380000 -0.157800 -1.450100
H 0.570800 -0.733000 1.441800
H 0.738000 -1.869500 0.078300
H -2.034600 -0.746700 1.085500
H -2.681600 -0.314200 -0.503400
H -1.847800 -1.857900 -0.281400
$end
$scan
stre 2 4 1.600000 1.601000 0.100000
$end
--------------------------------------------------------------

    9   -5265.7112865010      6.36e-07  Convergence criterion met
 Total energy in the final basis set =    -5265.7112865010
   10   -5265.7007251862      3.44e-07  Convergence criterion met
 Total energy in the final basis set =    -5265.7007251862
   10   -5265.6662322229      3.17e-07  Convergence criterion met
 Total energy in the final basis set =    -5265.6662322229
   10   -5265.6431034186      3.17e-07  Convergence criterion met
 Total energy in the final basis set =    -5265.6431034186
   10   -5265.6436369168      3.17e-07  Convergence criterion met
 Total energy in the final basis set =    -5265.6436369168
   10   -5265.6439916302      3.17e-07  Convergence criterion met
 Total energy in the final basis set =    -5265.6439916302
   10   -5265.6440291565      3.17e-07  Convergence criterion met
 Total energy in the final basis set =    -5265.6440291565
   10   -5265.6440470623      3.17e-07  Convergence criterion met
 Total energy in the final basis set =    -5265.6440470623

             Standard Nuclear Orientation (Angstroms)
    I     Atom           X                Y                Z
 ----------------------------------------------------------------
    1      Br     -0.6578828731     1.8240035674     0.0995515595
    2      Br      2.1875436135    -0.1740296683    -0.0502317520
    3      C      -0.5078573909    -0.1146093911    -0.3670110264
    4      C       0.7379272265    -0.7463669133     0.3117683242
    5      C      -1.7984463996    -0.8200429428     0.0222410184
    6      H      -0.3705065111    -0.1003879694    -1.4504757738
    7      H       0.5184466523    -0.7176292500     1.3897719599
    8      H       0.6232555627    -1.8140228465     0.0602789929
    9      H      -1.9610836887    -0.7750971700     1.1030848452
   10      H      -2.6594503347    -0.3664604775    -0.4721458548
   11      H      -1.7471458572    -1.8743569385    -0.2760322930
 ----------------------------------------------------------------

   10   -5265.6440480572      3.17e-07  Convergence criterion met
 Total energy in the final basis set =    -5265.6440480572

                    Orbital Energies (a.u.)
 --------------------------------------------------------------

 Alpha MOs
 -- Occupied --
*******-482.848 -62.524 -62.507 -56.345 -56.341 -56.341 -56.328
-56.324 -56.324 -10.263 -10.241 -10.203  -8.715  -8.694  -6.546
 -6.532  -6.532  -6.523  -6.511  -6.511  -2.641  -2.635  -2.635
 -2.625  -2.625  -2.617  -2.614  -2.613  -2.604  -2.604  -0.914
 -0.818  -0.740  -0.671  -0.598  -0.499  -0.470  -0.460  -0.435
 -0.399  -0.387  -0.354  -0.286  -0.281  -0.272  -0.269

 Beta MOs
 -- Occupied --
*******-482.848 -62.524 -62.507 -56.345 -56.341 -56.341 -56.328
-56.324 -56.324 -10.263 -10.241 -10.203  -8.715  -8.694  -6.546
 -6.532  -6.532  -6.523  -6.511  -6.511  -2.641  -2.635  -2.635
 -2.625  -2.625  -2.617  -2.614  -2.613  -2.604  -2.604  -0.914
 -0.818  -0.740  -0.671  -0.598  -0.499  -0.470  -0.460  -0.435
 -0.399  -0.387  -0.354  -0.286  -0.281  -0.272  -0.269

          Ground-State Mulliken Net Atomic Charges

     Atom                 Charge (a.u.)    Spin (a.u.)
  --------------------------------------------------------
      1 Br                   -0.117409      -0.000000
      2 Br                   -0.023591       0.000000
      3 C                    -0.152925       0.000000
      4 C                    -0.204513      -0.000000
      5 C                    -0.319719       0.000000
      6 H                     0.156086      -0.000000
      7 H                     0.143419       0.000000
      8 H                     0.133590      -0.000000
      9 H                     0.132011       0.000000
     10 H                     0.138015       0.000000
     11 H                     0.115036      -0.000000
  --------------------------------------------------------
  Sum of atomic charges =    -0.000000

                    Cartesian Multipole Moments
 -----------------------------------------------------------------
    Charge (ESU x 10^10)
                 0.0000
    Dipole Moment (Debye)
         X      -1.0875      Y      -2.6311      Z      -0.1037
       Tot       2.8489
    Quadrupole Moments (Debye-Ang)
        XX     -57.5719     XY       1.7124     YY     -57.1139
        XZ       0.4779     YZ      -0.1230     ZZ     -55.3962

 Final energy is   -5265.64404805723
 **  OPTIMIZATION CONVERGED  **
 Total job time:  52.24s(wall), 594.46s(cpu)
        *  Thank you very much for using Q-Chem.  Have a nice day.  *
