 Q-Chem 5.1, Q-Chem, Inc., Pleasanton, CA (2018)
 Q-Chem 5.1.1 for Intel X86 EM64T Linux

User input:
--------------------------------------------------------------

$comment
potential surface scanner
$end

$rem
JOBTYPE  PES_SCAN
UNRESTRICTED TRUE
SYM_IGNORE  TRUE
GEOM_OPT_MAX_CYCLES 400
SCF_MAX_CYCLES 400
METHOD   B3LYP
BASIS   6-31G**
PDB_PRINT 2
SCF_CONVERGENCE 6
THRESH 14
SCF_PRINT 1
$end
$molecule
0 3
Br 1.932471 -0.236862 -0.722237
Br 1.199882 2.437983 0.258245
C -0.818957 -1.391454 0.011460
C 0.167338 -1.054464 0.911443
C -1.853844 -0.453310 -0.498918
H -0.829394 -2.406194 -0.384728
H 0.162889 -0.081770 1.393410
H 0.810415 -1.817042 1.336101
H -2.855182 -0.826354 -0.243185
H -1.733222 0.554223 -0.096248
H -1.817599 -0.403757 -1.594535
$end
$scan
stre 2 4 3.600000 3.601000 0.100000
$end
--------------------------------------------------------------

   14   -5265.6361649998      5.74e-07  Convergence criterion met
 Total energy in the final basis set =    -5265.6361649998
   14   -5265.6358316553      5.69e-07  Convergence criterion met
 Total energy in the final basis set =    -5265.6358316553
   14   -5265.6358549416      5.62e-07  Convergence criterion met
 Total energy in the final basis set =    -5265.6358549416
   14   -5265.6358823205      5.46e-07  Convergence criterion met
 Total energy in the final basis set =    -5265.6358823205
   14   -5265.6358845314      5.46e-07  Convergence criterion met
 Total energy in the final basis set =    -5265.6358845314

             Standard Nuclear Orientation (Angstroms)
    I     Atom           X                Y                Z
 ----------------------------------------------------------------
    1      Br      1.9421317310    -0.2670550739    -0.7302283483
    2      Br      1.1428320395     2.3679458805     0.2584084445
    3      C      -0.8105260756    -1.3772898378     0.0101072880
    4      C       0.1768076260    -1.0382906964     0.9098295822
    5      C      -1.8505270000    -0.4438027792    -0.4977389447
    6      H      -0.8152635098    -2.3908107873    -0.3893809657
    7      H       0.1637921161    -0.0731467332     1.4032387338
    8      H       0.8151100471    -1.8042286169     1.3360259443
    9      H      -2.8495431413    -0.8232959761    -0.2422072978
   10      H      -1.7350381243     0.5637421312    -0.0939026442
   11      H      -1.8149787089    -0.3927685109    -1.5933437921
 ----------------------------------------------------------------

   14   -5265.6358869152      5.47e-07  Convergence criterion met
 Total energy in the final basis set =    -5265.6358869152

                    Orbital Energies (a.u.)
 --------------------------------------------------------------

 Alpha MOs
 -- Occupied --
*******-482.830 -62.529 -62.488 -56.350 -56.348 -56.346 -56.310
-56.305 -56.305 -10.265 -10.254 -10.217  -8.716  -8.675  -6.544
 -6.538  -6.532  -6.507  -6.492  -6.491  -2.638  -2.638  -2.633
 -2.628  -2.628  -2.599  -2.595  -2.595  -2.584  -2.584  -0.847
 -0.780  -0.732  -0.726  -0.608  -0.517  -0.470  -0.454  -0.413
 -0.399  -0.373  -0.353  -0.307  -0.272  -0.263  -0.261  -0.253

 Beta MOs
 -- Occupied --
*******-482.828 -62.528 -62.487 -56.347 -56.346 -56.345 -56.306
-56.304 -56.304 -10.258 -10.253 -10.217  -8.712  -8.672  -6.537
 -6.534  -6.530  -6.499  -6.490  -6.490  -2.633  -2.632  -2.629
 -2.626  -2.625  -2.593  -2.591  -2.590  -2.583  -2.583  -0.833
 -0.751  -0.722  -0.696  -0.600  -0.513  -0.466  -0.443  -0.410
 -0.396  -0.336  -0.309  -0.294  -0.257  -0.252

          Ground-State Mulliken Net Atomic Charges

     Atom                 Charge (a.u.)    Spin (a.u.)
  --------------------------------------------------------
      1 Br                   -0.087652       0.809563
      2 Br                   -0.263390       0.711226
      3 C                     0.022481       0.457082
      4 C                    -0.247498       0.029819
      5 C                    -0.364067      -0.031186
      6 H                     0.133387      -0.020429
      7 H                     0.187259       0.000149
      8 H                     0.162773      -0.000607
      9 H                     0.140796       0.021182
     10 H                     0.160782       0.000098
     11 H                     0.155129       0.023105
  --------------------------------------------------------
  Sum of atomic charges =    -0.000000

                    Cartesian Multipole Moments
 -----------------------------------------------------------------
    Charge (ESU x 10^10)
                -0.0000
    Dipole Moment (Debye)
         X      -3.5341      Y      -4.4642      Z       0.5545
       Tot       5.7207
    Quadrupole Moments (Debye-Ang)
        XX     -57.4103     XY      -2.4090     YY     -59.2091
        XZ       1.2813     YZ      -0.7645     ZZ     -55.8409

 Final energy is   -5265.63588691516
 **  OPTIMIZATION CONVERGED  **
 Total job time:  39.13s(wall), 454.26s(cpu)
        *  Thank you very much for using Q-Chem.  Have a nice day.  *
