 Q-Chem 5.1, Q-Chem, Inc., Pleasanton, CA (2018)
 Q-Chem 5.1.1 for Intel X86 EM64T Linux

User input:
--------------------------------------------------------------

$comment
potential surface scanner
$end

$rem
JOBTYPE  PES_SCAN
UNRESTRICTED TRUE
SYM_IGNORE  TRUE
GEOM_OPT_MAX_CYCLES 400
SCF_MAX_CYCLES 400
METHOD   B3LYP
BASIS   6-31G**
PDB_PRINT 2
SCF_CONVERGENCE 6
THRESH 14
SCF_PRINT 1
$end
$molecule
0 3
Br 1.929206 0.338924 0.528161
Br 0.766161 2.376650 -1.133574
C -0.654558 -1.291884 -0.193304
C 0.002652 -1.521021 0.981896
C -1.750034 -0.309877 -0.372196
H -0.312302 -1.819487 -1.082329
H -0.325237 -1.055748 1.906170
H 0.767004 -2.286500 1.056570
H -2.169347 0.026275 0.579088
H -1.342297 0.574187 -0.891034
H -2.546455 -0.710519 -1.008648
$end
$scan
stre 2 4 4.400000 4.401000 0.100000
$end
--------------------------------------------------------------

   14   -5265.6360397109      6.20e-07  Convergence criterion met
 Total energy in the final basis set =    -5265.6360397109
   14   -5265.6356608694      5.89e-07  Convergence criterion met
 Total energy in the final basis set =    -5265.6356608694
   14   -5265.6358568182      5.96e-07  Convergence criterion met
 Total energy in the final basis set =    -5265.6358568182
   14   -5265.6359208429      5.98e-07  Convergence criterion met
 Total energy in the final basis set =    -5265.6359208429
   14   -5265.6359250609      5.98e-07  Convergence criterion met
 Total energy in the final basis set =    -5265.6359250609
   14   -5265.6359312171      5.95e-07  Convergence criterion met
 Total energy in the final basis set =    -5265.6359312171
   14   -5265.6359357288      5.94e-07  Convergence criterion met
 Total energy in the final basis set =    -5265.6359357288
   14   -5265.6359420537      5.91e-07  Convergence criterion met
   14   -5265.6362294097      6.40e-07  Convergence criterion met
 Total energy in the final basis set =    -5265.6362294097
   14   -5265.6362394801      6.44e-07  Convergence criterion met
 Total energy in the final basis set =    -5265.6362394801
   14   -5265.6362416959      6.46e-07  Convergence criterion met
 Total energy in the final basis set =    -5265.6362416959
   14   -5265.6362464283      6.51e-07  Convergence criterion met
 Total energy in the final basis set =    -5265.6362464283
   14   -5265.6362487152      6.51e-07  Convergence criterion met
 Total energy in the final basis set =    -5265.6362487152
   14   -5265.6362497271      6.49e-07  Convergence criterion met
 Total energy in the final basis set =    -5265.6362497271

             Standard Nuclear Orientation (Angstroms)
    I     Atom           X                Y                Z
 ----------------------------------------------------------------
    1      Br      1.9986465801     0.2091736105     0.3174427844
    2      Br      0.6656800074     2.5423391699    -0.6950081504
    3      C      -0.6723499306    -1.3352196183    -0.1874492575
    4      C       0.0147022600    -1.4710035202     0.9870473334
    5      C      -1.7313495135    -0.3261659715    -0.4398753508
    6      H      -0.3937460385    -1.9795466197    -1.0200601244
    7      H      -0.2575552265    -0.8915348959     1.8631571528
    8      H       0.7362301140    -2.2683489091     1.1267912594
    9      H      -2.0658694480     0.1621644764     0.4779967975
   10      H      -1.3399184508     0.4582419484    -1.1095891462
   11      H      -2.5896773536    -0.7790996705    -0.9496532983
 ----------------------------------------------------------------

   14   -5265.6362499962      6.46e-07  Convergence criterion met
 Total energy in the final basis set =    -5265.6362499962

                    Orbital Energies (a.u.)
 --------------------------------------------------------------

 Alpha MOs
 -- Occupied --
*******-482.835 -62.529 -62.493 -56.350 -56.349 -56.346 -56.315
-56.311 -56.310 -10.260 -10.250 -10.212  -8.716  -8.680  -6.544
 -6.539  -6.531  -6.511  -6.498  -6.496  -2.638  -2.638  -2.632
 -2.629  -2.628  -2.603  -2.601  -2.599  -2.590  -2.590  -0.843
 -0.780  -0.736  -0.725  -0.605  -0.514  -0.468  -0.449  -0.410
 -0.395  -0.366  -0.355  -0.307  -0.286  -0.265  -0.261  -0.249

 Beta MOs
 -- Occupied --
*******-482.833 -62.528 -62.492 -56.346 -56.346 -56.345 -56.311
-56.309 -56.309 -10.256 -10.248 -10.212  -8.712  -8.677  -6.537
 -6.534  -6.529  -6.503  -6.496  -6.494  -2.632  -2.632  -2.628
 -2.626  -2.625  -2.597  -2.596  -2.594  -2.588  -2.588  -0.831
 -0.746  -0.723  -0.696  -0.599  -0.511  -0.465  -0.439  -0.407
 -0.393  -0.326  -0.311  -0.294  -0.261  -0.254

          Ground-State Mulliken Net Atomic Charges

     Atom                 Charge (a.u.)    Spin (a.u.)
  --------------------------------------------------------
      1 Br                   -0.097146       0.854312
      2 Br                   -0.234163       0.745620
      3 C                     0.020608       0.321908
      4 C                    -0.230719       0.081202
      5 C                    -0.360874      -0.017102
      6 H                     0.134986      -0.014205
      7 H                     0.157665      -0.003272
      8 H                     0.156364      -0.002793
      9 H                     0.135567       0.000970
     10 H                     0.183310       0.020229
     11 H                     0.134400       0.013130
  --------------------------------------------------------
  Sum of atomic charges =     0.000000

                    Cartesian Multipole Moments
 -----------------------------------------------------------------
    Charge (ESU x 10^10)
                -0.0000
    Dipole Moment (Debye)
         X      -2.7712      Y      -4.6031      Z       0.8149
       Tot       5.4343
    Quadrupole Moments (Debye-Ang)
        XX     -56.8636     XY      -2.4079     YY     -59.7525
        XZ       1.5220     YZ       0.9091     ZZ     -55.5437

 Final energy is   -5265.63624999616
 **  OPTIMIZATION CONVERGED  **
 Total job time:  242.56s(wall), 2773.34s(cpu)
        *  Thank you very much for using Q-Chem.  Have a nice day.  *
