 Q-Chem 5.1, Q-Chem, Inc., Pleasanton, CA (2018)
 Q-Chem 5.1.1 for Intel X86 EM64T Linux

User input:
--------------------------------------------------------------

$comment
potential surface scanner
$end

$rem
JOBTYPE  PES_SCAN
UNRESTRICTED TRUE
SYM_IGNORE  TRUE
GEOM_OPT_MAX_CYCLES 400
SCF_MAX_CYCLES 400
METHOD   B3LYP
BASIS   6-31G**
PDB_PRINT 2
SCF_CONVERGENCE 6
THRESH 14
SCF_PRINT 1
$end
$molecule
0 1
Br -0.697714 1.777387 0.222205
Br 2.664444 -0.093236 -0.405858
C -0.559257 -0.129553 -0.298101
C 0.540727 -0.815068 0.447829
C -1.895282 -0.836687 -0.028516
H -0.346275 -0.110291 -1.366444
H 0.678321 -0.559573 1.493511
H 0.660907 -1.870357 0.215980
H -2.137159 -0.843660 1.037327
H -2.700239 -0.326454 -0.561749
H -1.843674 -1.871506 -0.385387
$end
$scan
stre 2 4 2.500000 2.501000 0.100000
$end
--------------------------------------------------------------

   11   -5265.6881657256      1.75e-07  Convergence criterion met
 Total energy in the final basis set =    -5265.6881657256
   11   -5265.6798294973      2.98e-07  Convergence criterion met
 Total energy in the final basis set =    -5265.6798294973
   11   -5265.6797496070      3.05e-07  Convergence criterion met
 Total energy in the final basis set =    -5265.6797496070
   11   -5265.6798334646      3.14e-07  Convergence criterion met
 Total energy in the final basis set =    -5265.6798334646
   11   -5265.6798350775      3.14e-07  Convergence criterion met
 Total energy in the final basis set =    -5265.6798350775

             Standard Nuclear Orientation (Angstroms)
    I     Atom           X                Y                Z
 ----------------------------------------------------------------
    1      Br     -0.6986655086     1.7728584232     0.2214632957
    2      Br      2.7356640035    -0.0690279003    -0.4171366763
    3      C      -0.5662391397    -0.1333318820    -0.2950560096
    4      C       0.5187193090    -0.8252273559     0.4565441348
    5      C      -1.9075511632    -0.8368587557    -0.0275537369
    6      H      -0.3494739964    -0.1202287552    -1.3628177256
    7      H       0.6811895743    -0.5609528291     1.4960277161
    8      H       0.6704715502    -1.8722924310     0.2084836923
    9      H      -2.1521177453    -0.8395011048     1.0375954896
   10      H      -2.7071641541    -0.3220526288    -0.5644097248
   11      H      -1.8600337295    -1.8723827802    -0.3823434553
 ----------------------------------------------------------------

   11   -5265.6798358158      3.15e-07  Convergence criterion met
 Total energy in the final basis set =    -5265.6798358158

                    Orbital Energies (a.u.)
 --------------------------------------------------------------

 Alpha MOs
 -- Occupied --
*******-482.835 -62.522 -62.493 -56.343 -56.339 -56.339 -56.314
-56.310 -56.310 -10.293 -10.284 -10.224  -8.709  -8.679  -6.539
 -6.526  -6.526  -6.508  -6.496  -6.496  -2.633  -2.629  -2.629
 -2.618  -2.618  -2.601  -2.598  -2.598  -2.589  -2.589  -0.865
 -0.763  -0.740  -0.708  -0.617  -0.511  -0.482  -0.454  -0.436
 -0.405  -0.372  -0.314  -0.292  -0.291  -0.267  -0.264

 Beta MOs
 -- Occupied --
*******-482.835 -62.522 -62.493 -56.343 -56.339 -56.339 -56.314
-56.310 -56.310 -10.293 -10.284 -10.224  -8.709  -8.679  -6.539
 -6.526  -6.526  -6.508  -6.496  -6.496  -2.633  -2.629  -2.629
 -2.618  -2.618  -2.601  -2.598  -2.598  -2.589  -2.589  -0.865
 -0.763  -0.740  -0.708  -0.617  -0.511  -0.482  -0.454  -0.436
 -0.405  -0.372  -0.314  -0.292  -0.291  -0.267  -0.264

          Ground-State Mulliken Net Atomic Charges

     Atom                 Charge (a.u.)    Spin (a.u.)
  --------------------------------------------------------
      1 Br                   -0.071138       0.000000
      2 Br                   -0.264741      -0.000000
      3 C                    -0.146202      -0.000000
      4 C                    -0.172492      -0.000000
      5 C                    -0.328172       0.000000
      6 H                     0.189493      -0.000000
      7 H                     0.194262      -0.000000
      8 H                     0.180576      -0.000000
      9 H                     0.139376       0.000000
     10 H                     0.152787      -0.000000
     11 H                     0.126251      -0.000000
  --------------------------------------------------------
  Sum of atomic charges =    -0.000000

                    Cartesian Multipole Moments
 -----------------------------------------------------------------
    Charge (ESU x 10^10)
                 0.0000
    Dipole Moment (Debye)
         X      -3.7191      Y      -2.7629      Z       0.5853
       Tot       4.6699
    Quadrupole Moments (Debye-Ang)
        XX     -63.9720     XY       1.8701     YY     -55.8925
        XZ       1.9139     YZ      -0.6375     ZZ     -55.3754

 Final energy is   -5265.67983581584
 **  OPTIMIZATION CONVERGED  **
 Total job time:  35.25s(wall), 405.07s(cpu)
        *  Thank you very much for using Q-Chem.  Have a nice day.  *
