 Q-Chem 5.1, Q-Chem, Inc., Pleasanton, CA (2018)
 Q-Chem 5.1.1 for Intel X86 EM64T Linux

User input:
--------------------------------------------------------------

$comment
potential surface scanner
$end

$rem
JOBTYPE  PES_SCAN
UNRESTRICTED TRUE
SYM_IGNORE  TRUE
GEOM_OPT_MAX_CYCLES 400
SCF_MAX_CYCLES 400
METHOD   B3LYP
BASIS   6-31G**
PDB_PRINT 2
SCF_CONVERGENCE 6
THRESH 14
SCF_PRINT 1
$end
$molecule
0 3
Br -0.698083 1.731660 0.016317
Br 5.620775 0.233484 -0.750708
C -0.905218 -0.456012 -0.297039
C 0.184175 -0.993493 0.444244
C -2.315859 -0.799839 0.125244
H -0.757027 -0.430776 -1.374255
H 0.060208 -1.260536 1.489007
H 1.187499 -0.998066 0.033939
H -2.446362 -0.688262 1.204597
H -3.048760 -0.171082 -0.382095
H -2.516551 -1.846078 -0.138452
$end
$scan
stre 2 4 5.600000 5.601000 0.100000
$end
--------------------------------------------------------------

   37   -5265.6121281433      7.00e-07  Convergence criterion met
 Total energy in the final basis set =    -5265.6121281433
   36   -5265.6108645484      6.59e-07  Convergence criterion met
 Total energy in the final basis set =    -5265.6108645484
   34   -5265.6118545062      3.66e-07  Convergence criterion met
 Total energy in the final basis set =    -5265.6118545062
   33   -5265.6121128801      6.57e-07  Convergence criterion met
 Total energy in the final basis set =    -5265.6121128801
   32   -5265.6121183874      7.54e-07  Convergence criterion met
 Total energy in the final basis set =    -5265.6121183874
   32   -5265.6121203283      9.29e-07  Convergence criterion met
 Total energy in the final basis set =    -5265.6121203283
   35   -5265.6121235689      1.89e-07  Convergence criterion met
 Total energy in the final basis set =    -5265.6121235689
   33   -5265.6121255483      5.36e-07  Convergence criterion met
 Total energy in the final basis set =    -5265.6121255483
   32   -5265.6121272445      1.90e-07  Convergence criterion met
 Total energy in the final basis set =    -5265.6121272445
   32   -5265.6121283337      5.21e-07  Convergence criterion met
 Total energy in the final basis set =    -5265.6121283337

             Standard Nuclear Orientation (Angstroms)
    I     Atom           X                Y                Z
 ----------------------------------------------------------------
    1      Br     -0.6971848653     1.7347985976     0.0241401672
    2      Br      5.5349593176     0.2096350372    -0.7401450757
    3      C      -0.8972815853    -0.4506729427    -0.2976133424
    4      C       0.1938284493    -0.9888594010     0.4413506499
    5      C      -2.3068716607    -0.8007881639     0.1235573484
    6      H      -0.7488634409    -0.4216216577    -1.3747042806
    7      H       0.0724278845    -1.2560590284     1.4863849160
    8      H       1.1961219746    -0.9920597179     0.0296130936
    9      H      -2.4405064180    -0.6816108787     1.2016187041
   10      H      -3.0426982041    -0.1812825238    -0.3909235581
   11      H      -2.4991344519    -1.8504793207    -0.1324796223
 ----------------------------------------------------------------

   34   -5265.6121290728      1.11e-07  Convergence criterion met
 Total energy in the final basis set =    -5265.6121290728

                    Orbital Energies (a.u.)
 --------------------------------------------------------------

 Alpha MOs
 -- Occupied --
*******-482.832 -62.558 -62.490 -56.383 -56.375 -56.375 -56.311
-56.307 -56.307 -10.259 -10.226 -10.201  -8.746  -8.677  -6.582
 -6.560  -6.560  -6.507  -6.494  -6.494  -2.673  -2.668  -2.668
 -2.651  -2.651  -2.600  -2.597  -2.596  -2.587  -2.587  -0.831
 -0.798  -0.731  -0.712  -0.592  -0.494  -0.449  -0.441  -0.393
 -0.382  -0.373  -0.354  -0.324  -0.324  -0.273  -0.268  -0.229

 Beta MOs
 -- Occupied --
*******-482.831 -62.557 -62.489 -56.377 -56.374 -56.374 -56.309
-56.307 -56.307 -10.260 -10.215 -10.201  -8.742  -8.675  -6.571
 -6.558  -6.558  -6.503  -6.493  -6.493  -2.665  -2.661  -2.661
 -2.650  -2.650  -2.597  -2.594  -2.594  -2.586  -2.586  -0.822
 -0.754  -0.719  -0.696  -0.585  -0.489  -0.445  -0.436  -0.389
 -0.381  -0.331  -0.310  -0.309  -0.266  -0.263

          Ground-State Mulliken Net Atomic Charges

     Atom                 Charge (a.u.)    Spin (a.u.)
  --------------------------------------------------------
      1 Br                   -0.214165       0.332448
      2 Br                   -0.000375       0.999520
      3 C                    -0.120422      -0.102389
      4 C                    -0.162101       0.833824
      5 C                    -0.316268       0.006484
      6 H                     0.159149       0.006800
      7 H                     0.128566      -0.036572
      8 H                     0.129054      -0.037029
      9 H                     0.133423      -0.001185
     10 H                     0.139354       0.001383
     11 H                     0.123784      -0.003283
  --------------------------------------------------------
  Sum of atomic charges =    -0.000000

                    Cartesian Multipole Moments
 -----------------------------------------------------------------
    Charge (ESU x 10^10)
                -0.0000
    Dipole Moment (Debye)
         X      -0.2724      Y      -3.1328      Z      -0.1622
       Tot       3.1488
    Quadrupole Moments (Debye-Ang)
        XX     -53.1001     XY       3.5340     YY     -59.2969
        XZ       0.0039     YZ      -0.5898     ZZ     -56.0527

 Final energy is   -5265.61212907276
 **  OPTIMIZATION CONVERGED  **
 Total job time:  123.31s(wall), 1443.36s(cpu)
        *  Thank you very much for using Q-Chem.  Have a nice day.  *
