 Q-Chem 5.1, Q-Chem, Inc., Pleasanton, CA (2018)
 Q-Chem 5.1.1 for Intel X86 EM64T Linux

User input:
--------------------------------------------------------------

$comment
potential surface scanner
$end

$rem
JOBTYPE  PES_SCAN
UNRESTRICTED TRUE
SYM_IGNORE  TRUE
GEOM_OPT_MAX_CYCLES 400
SCF_MAX_CYCLES 400
METHOD   B3LYP
BASIS   6-31G**
PDB_PRINT 2
SCF_CONVERGENCE 6
THRESH 14
SCF_PRINT 1
$end
$molecule
0 1
Br -0.621000 1.744900 0.138600
Br 2.339300 0.022500 -0.135100
C -0.519000 -0.151000 -0.364100
C 0.644500 -0.814800 0.353000
C -1.843800 -0.801500 0.007700
H -0.380000 -0.157800 -1.450100
H 0.570800 -0.733000 1.441800
H 0.738000 -1.869500 0.078300
H -2.034600 -0.746700 1.085500
H -2.681600 -0.314200 -0.503400
H -1.847800 -1.857900 -0.281400
$end
$scan
stre 2 4 1.700000 1.701000 0.100000
$end
--------------------------------------------------------------

    9   -5265.7112865010      6.36e-07  Convergence criterion met
 Total energy in the final basis set =    -5265.7112865010
   10   -5265.7007251862      3.44e-07  Convergence criterion met
 Total energy in the final basis set =    -5265.7007251862
   10   -5265.6809078055      3.19e-07  Convergence criterion met
 Total energy in the final basis set =    -5265.6809078055
   10   -5265.6816619146      3.16e-07  Convergence criterion met
 Total energy in the final basis set =    -5265.6816619146
   10   -5265.6824114267      3.17e-07  Convergence criterion met
 Total energy in the final basis set =    -5265.6824114267
   10   -5265.6824554936      3.17e-07  Convergence criterion met
 Total energy in the final basis set =    -5265.6824554936
   10   -5265.6825009996      3.18e-07  Convergence criterion met
 Total energy in the final basis set =    -5265.6825009996
   10   -5265.6825088897      3.18e-07  Convergence criterion met
   10   -5265.6825455539      3.18e-07  Convergence criterion met
 Total energy in the final basis set =    -5265.6825455539
   10   -5265.6825613959      3.18e-07  Convergence criterion met
 Total energy in the final basis set =    -5265.6825613959
   10   -5265.6825751984      3.19e-07  Convergence criterion met
 Total energy in the final basis set =    -5265.6825751984
   10   -5265.6825816092      3.20e-07  Convergence criterion met
 Total energy in the final basis set =    -5265.6825816092
   10   -5265.6825850909      3.20e-07  Convergence criterion met
 Total energy in the final basis set =    -5265.6825850909
   10   -5265.6825866548      3.19e-07  Convergence criterion met
 Total energy in the final basis set =    -5265.6825866548

             Standard Nuclear Orientation (Angstroms)
    I     Atom           X                Y                Z
 ----------------------------------------------------------------
    1      Br     -0.6691120323     1.8161355294     0.1407496027
    2      Br      2.2453122534    -0.1996600762    -0.1462759975
    3      C      -0.5139386816    -0.1160794405    -0.3535665882
    4      C       0.7104731014    -0.7507033783     0.3339531879
    5      C      -1.8107056740    -0.8282319655     0.0046851160
    6      H      -0.3636658604    -0.0848404728    -1.4342695467
    7      H       0.5657606846    -0.6422698599     1.4149502496
    8      H       0.6079504497    -1.8266795465     0.1375781361
    9      H      -1.9855322244    -0.8153292903     1.0843044946
   10      H      -2.6645768530    -0.3581204105    -0.4867011702
   11      H      -1.7571651635    -1.8732210888    -0.3246074843
 ----------------------------------------------------------------

   10   -5265.6825875847      3.18e-07  Convergence criterion met
 Total energy in the final basis set =    -5265.6825875847

                    Orbital Energies (a.u.)
 --------------------------------------------------------------

 Alpha MOs
 -- Occupied --
*******-482.849 -62.522 -62.508 -56.343 -56.340 -56.340 -56.329
-56.325 -56.325 -10.265 -10.246 -10.204  -8.712  -8.695  -6.542
 -6.529  -6.529  -6.524  -6.512  -6.512  -2.637  -2.632  -2.632
 -2.622  -2.621  -2.618  -2.615  -2.614  -2.605  -2.605  -0.890
 -0.815  -0.741  -0.676  -0.600  -0.496  -0.466  -0.455  -0.432
 -0.394  -0.387  -0.354  -0.287  -0.284  -0.276  -0.272

 Beta MOs
 -- Occupied --
*******-482.849 -62.522 -62.508 -56.343 -56.340 -56.340 -56.329
-56.325 -56.325 -10.265 -10.246 -10.204  -8.712  -8.695  -6.542
 -6.529  -6.529  -6.524  -6.512  -6.512  -2.637  -2.632  -2.632
 -2.622  -2.621  -2.618  -2.615  -2.614  -2.605  -2.605  -0.890
 -0.815  -0.741  -0.676  -0.600  -0.496  -0.466  -0.455  -0.432
 -0.394  -0.387  -0.354  -0.287  -0.284  -0.276  -0.272

          Ground-State Mulliken Net Atomic Charges

     Atom                 Charge (a.u.)    Spin (a.u.)
  --------------------------------------------------------
      1 Br                   -0.114863      -0.000000
      2 Br                   -0.038226       0.000000
      3 C                    -0.146142      -0.000000
      4 C                    -0.223040       0.000000
      5 C                    -0.320045       0.000000
      6 H                     0.159668      -0.000000
      7 H                     0.154430      -0.000000
      8 H                     0.141428       0.000000
      9 H                     0.131773       0.000000
     10 H                     0.138991      -0.000000
     11 H                     0.116025       0.000000
  --------------------------------------------------------
  Sum of atomic charges =    -0.000000

                    Cartesian Multipole Moments
 -----------------------------------------------------------------
    Charge (ESU x 10^10)
                 0.0000
    Dipole Moment (Debye)
         X      -1.2418      Y      -2.5971      Z      -0.0515
       Tot       2.8792
    Quadrupole Moments (Debye-Ang)
        XX     -57.8541     XY       1.8479     YY     -57.1420
        XZ       0.5716     YZ      -0.2617     ZZ     -55.3976

 Final energy is   -5265.68258758470
 **  OPTIMIZATION CONVERGED  **
 Total job time:  87.01s(wall), 991.13s(cpu)
        *  Thank you very much for using Q-Chem.  Have a nice day.  *
