 Q-Chem 5.1, Q-Chem, Inc., Pleasanton, CA (2018)
 Q-Chem 5.1.1 for Intel X86 EM64T Linux

User input:
--------------------------------------------------------------

$comment
potential surface scanner
$end

$rem
JOBTYPE  PES_SCAN
UNRESTRICTED TRUE
SYM_IGNORE  TRUE
GEOM_OPT_MAX_CYCLES 400
SCF_MAX_CYCLES 400
METHOD   B3LYP
BASIS   6-31G**
PDB_PRINT 2
SCF_CONVERGENCE 6
THRESH 14
SCF_PRINT 1
$end
$molecule
0 3
Br -0.717770 1.748984 0.038066
Br 5.367669 0.125873 -0.743297
C -0.880043 -0.434609 -0.294535
C 0.214336 -0.960290 0.449769
C -2.286540 -0.811859 0.113862
H -0.724102 -0.399380 -1.370411
H 0.089460 -1.235550 1.492284
H 1.219490 -0.945149 0.045904
H -2.429449 -0.704392 1.192001
H -3.029253 -0.200270 -0.400268
H -2.459001 -1.862357 -0.152578
$end
$scan
stre 2 4 5.300000 5.301000 0.100000
$end
--------------------------------------------------------------

   31   -5265.6120817934      9.91e-08  Convergence criterion met
 Total energy in the final basis set =    -5265.6120817934
   34   -5265.6106720886      7.58e-08  Convergence criterion met
 Total energy in the final basis set =    -5265.6106720886
   32   -5265.6117425769      5.02e-07  Convergence criterion met
 Total energy in the final basis set =    -5265.6117425769
   33   -5265.6120231143      4.44e-07  Convergence criterion met
 Total energy in the final basis set =    -5265.6120231143
   36   -5265.6120296142      2.55e-07  Convergence criterion met
 Total energy in the final basis set =    -5265.6120296142
   31   -5265.6120321101      2.74e-07  Convergence criterion met
 Total energy in the final basis set =    -5265.6120321101
   31   -5265.6120367129      2.66e-07  Convergence criterion met
 Total energy in the final basis set =    -5265.6120367129
   31   -5265.6120395671      1.56e-07  Convergence criterion met
 Total energy in the final basis set =    -5265.6120395671
   31   -5265.6120419210      8.79e-08  Convergence criterion met
 Total energy in the final basis set =    -5265.6120419210
   31   -5265.6120431322      8.39e-08  Convergence criterion met
 Total energy in the final basis set =    -5265.6120431322

             Standard Nuclear Orientation (Angstroms)
    I     Atom           X                Y                Z
 ----------------------------------------------------------------
    1      Br     -0.7267024221     1.7548980590     0.0427470601
    2      Br      5.2849732386     0.0872643202    -0.7379011838
    3      C      -0.8721857683    -0.4270227285    -0.2942513400
    4      C       0.2247137472    -0.9476303244     0.4506975605
    5      C      -2.2764636393    -0.8164576155     0.1107893203
    6      H      -0.7146844817    -0.3893341749    -1.3698377226
    7      H       0.0998067585    -1.2267819998     1.4921693068
    8      H       1.2305736018    -0.9240926814     0.0489839157
    9      H      -2.4219265512    -0.7129728751     1.1889911421
   10      H      -3.0231804790    -0.2093127278    -0.4028606396
   11      H      -2.4401270044    -1.8675562517    -0.1587304194
 ----------------------------------------------------------------

   31   -5265.6120438960      7.02e-08  Convergence criterion met
 Total energy in the final basis set =    -5265.6120438960

                    Orbital Energies (a.u.)
 --------------------------------------------------------------

 Alpha MOs
 -- Occupied --
*******-482.832 -62.559 -62.490 -56.383 -56.375 -56.375 -56.312
-56.308 -56.307 -10.259 -10.226 -10.201  -8.746  -8.677  -6.583
 -6.560  -6.560  -6.507  -6.495  -6.494  -2.673  -2.668  -2.668
 -2.652  -2.652  -2.600  -2.597  -2.597  -2.587  -2.587  -0.831
 -0.798  -0.732  -0.711  -0.592  -0.494  -0.449  -0.441  -0.393
 -0.383  -0.373  -0.355  -0.324  -0.324  -0.273  -0.268  -0.229

 Beta MOs
 -- Occupied --
*******-482.831 -62.557 -62.489 -56.377 -56.374 -56.374 -56.310
-56.307 -56.307 -10.260 -10.215 -10.201  -8.742  -8.675  -6.572
 -6.559  -6.559  -6.503  -6.494  -6.493  -2.666  -2.662  -2.662
 -2.651  -2.651  -2.597  -2.595  -2.594  -2.587  -2.587  -0.822
 -0.755  -0.719  -0.695  -0.585  -0.489  -0.445  -0.437  -0.389
 -0.381  -0.332  -0.310  -0.310  -0.266  -0.263

          Ground-State Mulliken Net Atomic Charges

     Atom                 Charge (a.u.)    Spin (a.u.)
  --------------------------------------------------------
      1 Br                   -0.211613       0.327891
      2 Br                   -0.000774       0.998997
      3 C                    -0.121216      -0.102177
      4 C                    -0.162497       0.839414
      5 C                    -0.316094       0.006453
      6 H                     0.159145       0.006894
      7 H                     0.128587      -0.036778
      8 H                     0.128215      -0.037715
      9 H                     0.133216      -0.001172
     10 H                     0.139274       0.001400
     11 H                     0.123758      -0.003208
  --------------------------------------------------------
  Sum of atomic charges =     0.000000

                    Cartesian Multipole Moments
 -----------------------------------------------------------------
    Charge (ESU x 10^10)
                 0.0000
    Dipole Moment (Debye)
         X      -0.2071      Y      -3.1086      Z      -0.1851
       Tot       3.1209
    Quadrupole Moments (Debye-Ang)
        XX     -53.1723     XY       3.6107     YY     -59.4272
        XZ       0.0654     YZ      -0.6109     ZZ     -56.0682

 Final energy is   -5265.61204389597
 **  OPTIMIZATION CONVERGED  **
 Total job time:  119.16s(wall), 1403.36s(cpu)
        *  Thank you very much for using Q-Chem.  Have a nice day.  *
