 Q-Chem 5.1, Q-Chem, Inc., Pleasanton, CA (2018)
 Q-Chem 5.1.1 for Intel X86 EM64T Linux

User input:
--------------------------------------------------------------

$comment
potential surface scanner
$end

$rem
JOBTYPE  PES_SCAN
UNRESTRICTED TRUE
SYM_IGNORE  TRUE
GEOM_OPT_MAX_CYCLES 400
SCF_MAX_CYCLES 400
METHOD   B3LYP
BASIS   6-31G**
PDB_PRINT 2
SCF_CONVERGENCE 6
THRESH 14
SCF_PRINT 1
$end
$molecule
0 3
Br 1.961572 -0.295443 -0.721499
Br 1.040270 2.297540 0.239472
C -0.802919 -1.364529 0.009593
C 0.190035 -1.031211 0.907696
C -1.841254 -0.427712 -0.494938
H -0.810534 -2.376921 -0.392730
H 0.180840 -0.071148 1.409326
H 0.817276 -1.806384 1.334189
H -2.840565 -0.805441 -0.237542
H -1.721739 0.579515 -0.091979
H -1.808187 -0.377268 -1.590780
$end
$scan
stre 2 4 3.400000 3.401000 0.100000
$end
--------------------------------------------------------------

   14   -5265.6350560463      5.26e-07  Convergence criterion met
 Total energy in the final basis set =    -5265.6350560463
   14   -5265.6338710016      5.09e-07  Convergence criterion met
 Total energy in the final basis set =    -5265.6338710016
   14   -5265.6338516913      5.06e-07  Convergence criterion met
 Total energy in the final basis set =    -5265.6338516913
   14   -5265.6338537508      5.02e-07  Convergence criterion met
 Total energy in the final basis set =    -5265.6338537508
   14   -5265.6338550992      4.99e-07  Convergence criterion met
 Total energy in the final basis set =    -5265.6338550992
   14   -5265.6338561954      4.96e-07  Convergence criterion met
 Total energy in the final basis set =    -5265.6338561954

             Standard Nuclear Orientation (Angstroms)
    I     Atom           X                Y                Z
 ----------------------------------------------------------------
    1      Br      1.9699178573    -0.3091682343    -0.7260593039
    2      Br      0.9668061851     2.2350980904     0.2759764764
    3      C      -0.8010086211    -1.3567780080     0.0123814418
    4      C       0.2049919337    -1.0195917821     0.8977746664
    5      C      -1.8352280437    -0.4191631571    -0.4989280444
    6      H      -0.8199248935    -2.3746484503    -0.3756092201
    7      H       0.2082924984    -0.0558305971     1.3915443417
    8      H       0.8208454784    -1.8001658938     1.3316938618
    9      H      -2.8356580236    -0.7848001905    -0.2285255297
   10      H      -1.7041088841     0.5933001576    -0.1136134240
   11      H      -1.8101304869    -0.3872539347    -1.5958272660
 ----------------------------------------------------------------

   14   -5265.6338567079      4.94e-07  Convergence criterion met
 Total energy in the final basis set =    -5265.6338567079

                    Orbital Energies (a.u.)
 --------------------------------------------------------------

 Alpha MOs
 -- Occupied --
*******-482.831 -62.529 -62.488 -56.350 -56.348 -56.346 -56.311
-56.306 -56.305 -10.264 -10.254 -10.214  -8.716  -8.675  -6.544
 -6.539  -6.532  -6.507  -6.492  -6.492  -2.638  -2.638  -2.633
 -2.629  -2.628  -2.599  -2.596  -2.595  -2.584  -2.584  -0.846
 -0.781  -0.732  -0.726  -0.607  -0.516  -0.469  -0.453  -0.412
 -0.398  -0.374  -0.354  -0.307  -0.271  -0.265  -0.261  -0.252

 Beta MOs
 -- Occupied --
*******-482.829 -62.528 -62.487 -56.347 -56.346 -56.345 -56.307
-56.305 -56.305 -10.257 -10.253 -10.215  -8.713  -8.672  -6.537
 -6.534  -6.530  -6.499  -6.491  -6.490  -2.633  -2.632  -2.629
 -2.626  -2.625  -2.593  -2.591  -2.591  -2.584  -2.584  -0.832
 -0.752  -0.720  -0.698  -0.599  -0.511  -0.466  -0.441  -0.409
 -0.395  -0.338  -0.310  -0.295  -0.258  -0.254

          Ground-State Mulliken Net Atomic Charges

     Atom                 Charge (a.u.)    Spin (a.u.)
  --------------------------------------------------------
      1 Br                   -0.084169       0.797486
      2 Br                   -0.268797       0.698920
      3 C                     0.023589       0.483157
      4 C                    -0.248563       0.028893
      5 C                    -0.363670      -0.033043
      6 H                     0.132597      -0.021607
      7 H                     0.189867      -0.000492
      8 H                     0.161922      -0.000349
      9 H                     0.139704       0.022624
     10 H                     0.163814      -0.000082
     11 H                     0.153705       0.024494
  --------------------------------------------------------
  Sum of atomic charges =    -0.000000

                    Cartesian Multipole Moments
 -----------------------------------------------------------------
    Charge (ESU x 10^10)
                -0.0000
    Dipole Moment (Debye)
         X      -3.3193      Y      -4.3040      Z       0.5455
       Tot       5.4626
    Quadrupole Moments (Debye-Ang)
        XX     -57.0227     XY      -1.9038     YY     -58.8279
        XZ       1.2709     YZ      -0.8483     ZZ     -55.8496

 Final energy is   -5265.63385670793
 **  OPTIMIZATION CONVERGED  **
 Total job time:  46.59s(wall), 541.14s(cpu)
        *  Thank you very much for using Q-Chem.  Have a nice day.  *
