 Q-Chem 5.1, Q-Chem, Inc., Pleasanton, CA (2018)
 Q-Chem 5.1.1 for Intel X86 EM64T Linux

User input:
--------------------------------------------------------------

$comment
potential surface scanner
$end

$rem
JOBTYPE  PES_SCAN
UNRESTRICTED TRUE
SYM_IGNORE  TRUE
GEOM_OPT_MAX_CYCLES 400
SCF_MAX_CYCLES 400
METHOD   B3LYP
BASIS   6-31G**
PDB_PRINT 2
SCF_CONVERGENCE 6
THRESH 14
SCF_PRINT 1
$end
$molecule
0 3
Br 2.054375 0.121727 0.332393
Br 0.657226 2.471600 -0.572814
C -0.681602 -1.327522 -0.198534
C 0.056984 -1.393536 0.957033
C -1.757367 -0.338978 -0.455077
H -0.423758 -2.006859 -1.009511
H -0.210283 -0.789815 1.817742
H 0.748346 -2.211125 1.126106
H -2.102599 0.144927 0.461177
H -1.371599 0.454277 -1.116767
H -2.604928 -0.803698 -0.970945
$end
$scan
stre 2 4 4.100000 4.101000 0.100000
$end
--------------------------------------------------------------

   14   -5265.6362637102      5.50e-07  Convergence criterion met
 Total energy in the final basis set =    -5265.6362637102
   14   -5265.6355098378      5.31e-07  Convergence criterion met
 Total energy in the final basis set =    -5265.6355098378
   14   -5265.6359488548      5.41e-07  Convergence criterion met
 Total energy in the final basis set =    -5265.6359488548
   14   -5265.6359874556      5.36e-07  Convergence criterion met
 Total energy in the final basis set =    -5265.6359874556
   14   -5265.6360049545      5.31e-07  Convergence criterion met
 Total energy in the final basis set =    -5265.6360049545
   14   -5265.6360154672      5.26e-07  Convergence criterion met
 Total energy in the final basis set =    -5265.6360154672
   14   -5265.6360187875      5.23e-07  Convergence criterion met
 Total energy in the final basis set =    -5265.6360187875
   14   -5265.6360229964      5.17e-07  Convergence criterion met
   14   -5265.6360264437      5.12e-07  Convergence criterion met
 Total energy in the final basis set =    -5265.6360264437
   14   -5265.6360297829      5.07e-07  Convergence criterion met
 Total energy in the final basis set =    -5265.6360297829
   14   -5265.6360325534      5.04e-07  Convergence criterion met
 Total energy in the final basis set =    -5265.6360325534
   14   -5265.6360353210      5.04e-07  Convergence criterion met
 Total energy in the final basis set =    -5265.6360353210
   14   -5265.6360376904      5.06e-07  Convergence criterion met
 Total energy in the final basis set =    -5265.6360376904
   14   -5265.6360392224      5.10e-07  Convergence criterion met
 Total energy in the final basis set =    -5265.6360392224

             Standard Nuclear Orientation (Angstroms)
    I     Atom           X                Y                Z
 ----------------------------------------------------------------
    1      Br      2.0864349673     0.0681579818     0.2806870730
    2      Br      0.6512321971     2.4483346626    -0.4776520159
    3      C      -0.6887208216    -1.3292134936    -0.1969962973
    4      C       0.0738078064    -1.3524067359     0.9474606154
    5      C      -1.7688050432    -0.3486391026    -0.4659808148
    6      H      -0.4443050459    -2.0366685317    -0.9876747149
    7      H      -0.1806106762    -0.7181364100     1.7899097525
    8      H       0.7472351712    -2.1790837111     1.1432865092
    9      H      -2.1428024934     0.1164462740     0.4489758986
   10      H      -1.3718289098     0.4628924256    -1.0977226303
   11      H      -2.5968421517    -0.8106853590    -1.0134903755
 ----------------------------------------------------------------

   14   -5265.6360400688      5.13e-07  Convergence criterion met
 Total energy in the final basis set =    -5265.6360400688

                    Orbital Energies (a.u.)
 --------------------------------------------------------------

 Alpha MOs
 -- Occupied --
*******-482.832 -62.529 -62.489 -56.350 -56.348 -56.346 -56.312
-56.307 -56.307 -10.262 -10.254 -10.213  -8.716  -8.676  -6.544
 -6.539  -6.531  -6.508  -6.494  -6.493  -2.638  -2.637  -2.632
 -2.628  -2.627  -2.600  -2.597  -2.596  -2.586  -2.586  -0.845
 -0.780  -0.735  -0.723  -0.607  -0.516  -0.470  -0.450  -0.412
 -0.397  -0.368  -0.357  -0.307  -0.281  -0.264  -0.257  -0.249

 Beta MOs
 -- Occupied --
*******-482.830 -62.527 -62.488 -56.346 -56.345 -56.345 -56.308
-56.306 -56.306 -10.256 -10.253 -10.213  -8.712  -8.673  -6.537
 -6.533  -6.529  -6.500  -6.492  -6.491  -2.632  -2.632  -2.628
 -2.625  -2.625  -2.594  -2.592  -2.591  -2.585  -2.585  -0.832
 -0.750  -0.723  -0.695  -0.600  -0.512  -0.466  -0.439  -0.409
 -0.395  -0.333  -0.312  -0.294  -0.259  -0.252

          Ground-State Mulliken Net Atomic Charges

     Atom                 Charge (a.u.)    Spin (a.u.)
  --------------------------------------------------------
      1 Br                   -0.089397       0.817025
      2 Br                   -0.250661       0.727064
      3 C                     0.023499       0.424454
      4 C                    -0.245315       0.029933
      5 C                    -0.360297      -0.024420
      6 H                     0.135595      -0.018767
      7 H                     0.165998      -0.001208
      8 H                     0.163690       0.000735
      9 H                     0.137137       0.003357
     10 H                     0.187433       0.029540
     11 H                     0.132318       0.012288
  --------------------------------------------------------
  Sum of atomic charges =     0.000000

                    Cartesian Multipole Moments
 -----------------------------------------------------------------
    Charge (ESU x 10^10)
                 0.0000
    Dipole Moment (Debye)
         X      -2.8846      Y      -4.6376      Z       0.6851
       Tot       5.5043
    Quadrupole Moments (Debye-Ang)
        XX     -56.9544     XY      -2.3653     YY     -59.6968
        XZ       1.4349     YZ       0.5826     ZZ     -55.4278

 Final energy is   -5265.63604006880
 **  OPTIMIZATION CONVERGED  **
 Total job time:  97.43s(wall), 1135.20s(cpu)
        *  Thank you very much for using Q-Chem.  Have a nice day.  *
