 Q-Chem 5.1, Q-Chem, Inc., Pleasanton, CA (2018)
 Q-Chem 5.1.1 for Intel X86 EM64T Linux

User input:
--------------------------------------------------------------

$comment
potential surface scanner
$end

$rem
JOBTYPE  PES_SCAN
UNRESTRICTED TRUE
SYM_IGNORE  TRUE
GEOM_OPT_MAX_CYCLES 400
SCF_MAX_CYCLES 400
METHOD   B3LYP
BASIS   6-31G**
PDB_PRINT 2
SCF_CONVERGENCE 6
THRESH 14
SCF_PRINT 1
$end
$molecule
0 1
Br -0.678643 1.803562 0.169422
Br 2.362728 -0.165762 -0.221129
C -0.527107 -0.120004 -0.339529
C 0.658835 -0.770029 0.363346
C -1.834601 -0.831070 -0.006631
H -0.360582 -0.086958 -1.416714
H 0.602983 -0.615013 1.441398
H 0.626573 -1.844220 0.164176
H -2.027048 -0.826604 1.069846
H -2.676835 -0.350097 -0.507885
H -1.781504 -1.872804 -0.345499
$end
$scan
stre 2 4 2.000000 2.001000 0.100000
$end
--------------------------------------------------------------

   10   -5265.7120637756      3.85e-07  Convergence criterion met
 Total energy in the final basis set =    -5265.7120637756
    9   -5265.7128363677      6.05e-07  Convergence criterion met
 Total energy in the final basis set =    -5265.7128363677
    9   -5265.7131167878      5.96e-07  Convergence criterion met
 Total energy in the final basis set =    -5265.7131167878
    9   -5265.7131819989      5.94e-07  Convergence criterion met
 Total energy in the final basis set =    -5265.7131819989
    9   -5265.7131840070      5.93e-07  Convergence criterion met
 Total energy in the final basis set =    -5265.7131840070

             Standard Nuclear Orientation (Angstroms)
    I     Atom           X                Y                Z
 ----------------------------------------------------------------
    1      Br     -0.6805237220     1.7989940042     0.1724923736
    2      Br      2.4250139430    -0.1453743488    -0.2449044811
    3      C      -0.5337216947    -0.1221810980    -0.3354136151
    4      C       0.6331917402    -0.7801689430     0.3767132842
    5      C      -1.8462378898    -0.8309923252    -0.0089886432
    6      H      -0.3606062234    -0.0939464336    -1.4113638671
    7      H       0.6132154263    -0.6099187128     1.4519691656
    8      H       0.6371757758    -1.8510424884     0.1671466318
    9      H      -2.0430030563    -0.8285197679     1.0666649551
   10      H      -2.6837254448    -0.3441452176    -0.5125820591
   11      H      -1.7959798541    -1.8717036688    -0.3509327448
 ----------------------------------------------------------------

    9   -5265.7131846390      5.93e-07  Convergence criterion met
 Total energy in the final basis set =    -5265.7131846390

                    Orbital Energies (a.u.)
 --------------------------------------------------------------

 Alpha MOs
 -- Occupied --
*******-482.853 -62.515 -62.512 -56.336 -56.333 -56.332 -56.332
-56.329 -56.329 -10.271 -10.263 -10.210  -8.701  -8.699  -6.532
 -6.529  -6.519  -6.518  -6.516  -6.516  -2.625  -2.622  -2.622
 -2.621  -2.619  -2.618  -2.611  -2.611  -2.609  -2.608  -0.858
 -0.789  -0.746  -0.691  -0.604  -0.496  -0.465  -0.447  -0.429
 -0.390  -0.368  -0.359  -0.289  -0.286  -0.282  -0.274

 Beta MOs
 -- Occupied --
*******-482.853 -62.515 -62.512 -56.336 -56.333 -56.332 -56.332
-56.329 -56.329 -10.271 -10.263 -10.210  -8.701  -8.699  -6.532
 -6.529  -6.519  -6.518  -6.516  -6.516  -2.625  -2.622  -2.622
 -2.621  -2.619  -2.618  -2.611  -2.611  -2.609  -2.608  -0.858
 -0.789  -0.746  -0.691  -0.604  -0.496  -0.465  -0.447  -0.429
 -0.390  -0.368  -0.359  -0.289  -0.286  -0.282  -0.274

          Ground-State Mulliken Net Atomic Charges

     Atom                 Charge (a.u.)    Spin (a.u.)
  --------------------------------------------------------
      1 Br                   -0.099585       0.000000
      2 Br                   -0.094625      -0.000000
      3 C                    -0.135660      -0.000000
      4 C                    -0.244396      -0.000000
      5 C                    -0.321885       0.000000
      6 H                     0.168960       0.000000
      7 H                     0.172831       0.000000
      8 H                     0.159323      -0.000000
      9 H                     0.133452       0.000000
     10 H                     0.142851      -0.000000
     11 H                     0.118734       0.000000
  --------------------------------------------------------
  Sum of atomic charges =    -0.000000

                    Cartesian Multipole Moments
 -----------------------------------------------------------------
    Charge (ESU x 10^10)
                 0.0000
    Dipole Moment (Debye)
         X      -1.9169      Y      -2.6020      Z       0.0907
       Tot       3.2331
    Quadrupole Moments (Debye-Ang)
        XX     -59.3042     XY       1.9744     YY     -56.8132
        XZ       0.7837     YZ      -0.4141     ZZ     -55.4275

 Final energy is   -5265.71318463902
 **  OPTIMIZATION CONVERGED  **
 Total job time:  32.00s(wall), 369.04s(cpu)
        *  Thank you very much for using Q-Chem.  Have a nice day.  *
