 Q-Chem 5.1, Q-Chem, Inc., Pleasanton, CA (2018)
 Q-Chem 5.1.1 for Intel X86 EM64T Linux

User input:
--------------------------------------------------------------

$comment
potential surface scanner
$end

$rem
JOBTYPE  PES_SCAN
UNRESTRICTED TRUE
SYM_IGNORE  TRUE
GEOM_OPT_MAX_CYCLES 400
SCF_MAX_CYCLES 400
METHOD   B3LYP
BASIS   6-31G**
PDB_PRINT 2
SCF_CONVERGENCE 6
THRESH 14
SCF_PRINT 1
$end
$molecule
0 3
Br 2.076917 -0.083648 -0.185222
Br 0.718312 2.471797 -0.094385
C -0.735054 -1.380887 -0.134822
C 0.103972 -1.235782 0.947941
C -1.781338 -0.390434 -0.510930
H -0.586791 -2.245577 -0.778773
H -0.042826 -0.427570 1.657060
H 0.743243 -2.052618 1.263140
H -2.433464 -0.162218 0.340255
H -1.305460 0.562939 -0.787209
H -2.392714 -0.735005 -1.346248
$end
$scan
stre 2 4 3.800000 3.801000 0.100000
$end
--------------------------------------------------------------

   14   -5265.6353810863      4.94e-07  Convergence criterion met
 Total energy in the final basis set =    -5265.6353810863
   14   -5265.6348945590      4.84e-07  Convergence criterion met
 Total energy in the final basis set =    -5265.6348945590
   14   -5265.6350217862      4.88e-07  Convergence criterion met
 Total energy in the final basis set =    -5265.6350217862
   14   -5265.6350385039      4.84e-07  Convergence criterion met
 Total energy in the final basis set =    -5265.6350385039
   14   -5265.6350459759      4.82e-07  Convergence criterion met
 Total energy in the final basis set =    -5265.6350459759
   14   -5265.6350507239      4.80e-07  Convergence criterion met
 Total energy in the final basis set =    -5265.6350507239
   14   -5265.6350538203      4.79e-07  Convergence criterion met
 Total energy in the final basis set =    -5265.6350538203
   14   -5265.6350595774      4.76e-07  Convergence criterion met
   14   -5265.6359798585      5.72e-07  Convergence criterion met
 Total energy in the final basis set =    -5265.6359798585
   14   -5265.6359877588      5.78e-07  Convergence criterion met
 Total energy in the final basis set =    -5265.6359877588
   14   -5265.6359936060      5.80e-07  Convergence criterion met
 Total energy in the final basis set =    -5265.6359936060
   14   -5265.6359980951      5.76e-07  Convergence criterion met
 Total energy in the final basis set =    -5265.6359980951
   14   -5265.6360006944      5.70e-07  Convergence criterion met
 Total energy in the final basis set =    -5265.6360006944
   14   -5265.6360020583      5.66e-07  Convergence criterion met
 Total energy in the final basis set =    -5265.6360020583

             Standard Nuclear Orientation (Angstroms)
    I     Atom           X                Y                Z
 ----------------------------------------------------------------
    1      Br      1.9273543454    -0.2191776450    -0.6953150607
    2      Br      1.1977284570     2.4967536880     0.1778110752
    3      C      -0.8207809168    -1.3993850086     0.0120537877
    4      C       0.1594081848    -1.0816380680     0.9241394349
    5      C      -1.8475847888    -0.4489294702    -0.4921613024
    6      H      -0.8305396423    -2.4067734647    -0.4024034146
    7      H       0.1534056982    -0.1184651880     1.4245996235
    8      H       0.8047908718    -1.8499263415     1.3344342766
    9      H      -2.8530219757    -0.8216637985    -0.2529860195
   10      H      -1.7269035907     0.5518870876    -0.0729961899
   11      H      -1.7990596426    -0.3816847911    -1.5863692108
 ----------------------------------------------------------------

   14   -5265.6360029443      5.64e-07  Convergence criterion met
 Total energy in the final basis set =    -5265.6360029443

                    Orbital Energies (a.u.)
 --------------------------------------------------------------

 Alpha MOs
 -- Occupied --
*******-482.831 -62.529 -62.488 -56.350 -56.348 -56.346 -56.311
-56.306 -56.306 -10.265 -10.255 -10.217  -8.716  -8.675  -6.544
 -6.538  -6.532  -6.507  -6.492  -6.492  -2.638  -2.638  -2.633
 -2.628  -2.628  -2.599  -2.596  -2.595  -2.584  -2.584  -0.847
 -0.779  -0.733  -0.726  -0.608  -0.518  -0.470  -0.455  -0.413
 -0.399  -0.372  -0.352  -0.306  -0.274  -0.263  -0.261  -0.254

 Beta MOs
 -- Occupied --
*******-482.829 -62.528 -62.487 -56.347 -56.346 -56.345 -56.307
-56.305 -56.305 -10.259 -10.254 -10.217  -8.712  -8.672  -6.537
 -6.533  -6.530  -6.499  -6.491  -6.490  -2.632  -2.632  -2.629
 -2.625  -2.625  -2.593  -2.591  -2.591  -2.583  -2.583  -0.834
 -0.750  -0.722  -0.695  -0.601  -0.514  -0.467  -0.444  -0.411
 -0.397  -0.335  -0.308  -0.294  -0.257  -0.252

          Ground-State Mulliken Net Atomic Charges

     Atom                 Charge (a.u.)    Spin (a.u.)
  --------------------------------------------------------
      1 Br                   -0.091508       0.814692
      2 Br                   -0.256538       0.722049
      3 C                     0.022936       0.442799
      4 C                    -0.248837       0.027660
      5 C                    -0.364425      -0.029954
      6 H                     0.133550      -0.019813
      7 H                     0.185733       0.000931
      8 H                     0.162365      -0.000905
      9 H                     0.140999       0.020278
     10 H                     0.159716       0.000126
     11 H                     0.156008       0.022136
  --------------------------------------------------------
  Sum of atomic charges =     0.000000

                    Cartesian Multipole Moments
 -----------------------------------------------------------------
    Charge (ESU x 10^10)
                 0.0000
    Dipole Moment (Debye)
         X      -3.5884      Y      -4.6028      Z       0.6259
       Tot       5.8697
    Quadrupole Moments (Debye-Ang)
        XX     -57.5574     XY      -2.6566     YY     -59.5281
        XZ       1.4125     YZ      -0.5938     ZZ     -55.8472

 Final energy is   -5265.63600294433
 **  OPTIMIZATION CONVERGED  **
 Total job time:  271.68s(wall), 3103.63s(cpu)
        *  Thank you very much for using Q-Chem.  Have a nice day.  *
