 Q-Chem 5.1, Q-Chem, Inc., Pleasanton, CA (2018)
 Q-Chem 5.1.1 for Intel X86 EM64T Linux

User input:
--------------------------------------------------------------

$comment
potential surface scanner
$end

$rem
JOBTYPE  PES_SCAN
UNRESTRICTED TRUE
SYM_IGNORE  TRUE
GEOM_OPT_MAX_CYCLES 400
SCF_MAX_CYCLES 400
METHOD   B3LYP
BASIS   6-31G**
PDB_PRINT 2
SCF_CONVERGENCE 6
THRESH 14
SCF_PRINT 1
$end
$molecule
0 1
Br -0.679787 1.791406 0.179779
Br 2.480051 -0.115909 -0.281155
C -0.539392 -0.127826 -0.326803
C 0.610422 -0.793126 0.394024
C -1.860187 -0.830524 -0.012649
H -0.356485 -0.104766 -1.401000
H 0.629279 -0.605602 1.465100
H 0.651457 -1.859754 0.174088
H -2.068248 -0.827475 1.060715
H -2.687579 -0.334872 -0.524538
H -1.814731 -1.870550 -0.356763
$end
$scan
stre 2 4 2.200000 2.201000 0.100000
$end
--------------------------------------------------------------

   10   -5265.7099567090      4.64e-07  Convergence criterion met
 Total energy in the final basis set =    -5265.7099567090
   10   -5265.7040905817      5.79e-07  Convergence criterion met
 Total energy in the final basis set =    -5265.7040905817
   10   -5265.7041724638      5.85e-07  Convergence criterion met
 Total energy in the final basis set =    -5265.7041724638
   10   -5265.7042442253      5.86e-07  Convergence criterion met
 Total energy in the final basis set =    -5265.7042442253
   10   -5265.7042460095      5.86e-07  Convergence criterion met
 Total energy in the final basis set =    -5265.7042460095

             Standard Nuclear Orientation (Angstroms)
    I     Atom           X                Y                Z
 ----------------------------------------------------------------
    1      Br     -0.6855995247     1.7889859376     0.1843333972
    2      Br      2.5511937091    -0.1079436239    -0.2980213187
    3      C      -0.5468908338    -0.1263071886    -0.3247620700
    4      C       0.5844217994    -0.7999947755     0.4040278771
    5      C      -1.8699647794    -0.8320595875    -0.0140390397
    6      H      -0.3595764186    -0.1066607279    -1.3980298015
    7      H       0.6351519647    -0.5967102915     1.4701057781
    8      H       0.6548406291    -1.8619177951     0.1746988325
    9      H      -2.0795401956    -0.8305444756     1.0590031792
   10      H      -2.6957842345    -0.3345726511    -0.5266571463
   11      H      -1.8234521156    -1.8712728209    -0.3598616879
 ----------------------------------------------------------------

   10   -5265.7042465884      5.85e-07  Convergence criterion met
 Total energy in the final basis set =    -5265.7042465884

                    Orbital Energies (a.u.)
 --------------------------------------------------------------

 Alpha MOs
 -- Occupied --
*******-482.849 -62.515 -62.507 -56.337 -56.333 -56.333 -56.328
-56.324 -56.324 -10.276 -10.276 -10.215  -8.702  -8.693  -6.533
 -6.523  -6.520  -6.519  -6.510  -6.510  -2.626  -2.623  -2.622
 -2.616  -2.613  -2.612  -2.612  -2.612  -2.602  -2.602  -0.858
 -0.770  -0.748  -0.699  -0.609  -0.501  -0.470  -0.447  -0.431
 -0.396  -0.364  -0.345  -0.288  -0.287  -0.278  -0.272

 Beta MOs
 -- Occupied --
*******-482.849 -62.515 -62.507 -56.337 -56.333 -56.333 -56.328
-56.324 -56.324 -10.276 -10.276 -10.215  -8.702  -8.693  -6.533
 -6.523  -6.520  -6.519  -6.510  -6.510  -2.626  -2.623  -2.622
 -2.616  -2.613  -2.612  -2.612  -2.612  -2.602  -2.602  -0.858
 -0.770  -0.748  -0.699  -0.609  -0.501  -0.470  -0.447  -0.431
 -0.396  -0.364  -0.345  -0.288  -0.287  -0.278  -0.272

          Ground-State Mulliken Net Atomic Charges

     Atom                 Charge (a.u.)    Spin (a.u.)
  --------------------------------------------------------
      1 Br                   -0.087671      -0.000000
      2 Br                   -0.157930       0.000000
      3 C                    -0.136410       0.000000
      4 C                    -0.224835      -0.000000
      5 C                    -0.324247      -0.000000
      6 H                     0.176282       0.000000
      7 H                     0.182209       0.000000
      8 H                     0.168892      -0.000000
      9 H                     0.135535       0.000000
     10 H                     0.146684      -0.000000
     11 H                     0.121491       0.000000
  --------------------------------------------------------
  Sum of atomic charges =     0.000000

                    Cartesian Multipole Moments
 -----------------------------------------------------------------
    Charge (ESU x 10^10)
                -0.0000
    Dipole Moment (Debye)
         X      -2.5762      Y      -2.6545      Z       0.2423
       Tot       3.7070
    Quadrupole Moments (Debye-Ang)
        XX     -60.8925     XY       1.9591     YY     -56.4588
        XZ       1.0878     YZ      -0.4871     ZZ     -55.4092

 Final energy is   -5265.70424658836
 **  OPTIMIZATION CONVERGED  **
 Total job time:  33.53s(wall), 386.73s(cpu)
        *  Thank you very much for using Q-Chem.  Have a nice day.  *
