 Q-Chem 5.1, Q-Chem, Inc., Pleasanton, CA (2018)
 Q-Chem 5.1.1 for Intel X86 EM64T Linux

User input:
--------------------------------------------------------------

$comment
potential surface scanner
$end

$rem
JOBTYPE  PES_SCAN
UNRESTRICTED TRUE
SYM_IGNORE  TRUE
GEOM_OPT_MAX_CYCLES 400
SCF_MAX_CYCLES 400
METHOD   B3LYP
BASIS   6-31G**
PDB_PRINT 2
SCF_CONVERGENCE 6
THRESH 14
SCF_PRINT 1
$end
$molecule
0 3
Br 1.898149 0.407685 0.447600
Br 0.786256 2.456774 -1.227481
C -0.637507 -1.290911 -0.175029
C -0.042754 -1.590752 1.013117
C -1.728121 -0.301643 -0.356834
H -0.262469 -1.779724 -1.073071
H -0.389404 -1.149360 1.942603
H 0.736622 -2.341825 1.079312
H -2.156304 0.027163 0.592950
H -1.319514 0.583271 -0.871190
H -2.520161 -0.699678 -1.001179
$end
$scan
stre 2 4 4.600000 4.601000 0.100000
$end
--------------------------------------------------------------

   14   -5265.6358756469      7.01e-07  Convergence criterion met
 Total energy in the final basis set =    -5265.6358756469
   14   -5265.6354445924      6.98e-07  Convergence criterion met
 Total energy in the final basis set =    -5265.6354445924
   14   -5265.6358286350      7.18e-07  Convergence criterion met
 Total energy in the final basis set =    -5265.6358286350
   14   -5265.6359575735      6.44e-07  Convergence criterion met
 Total energy in the final basis set =    -5265.6359575735
   14   -5265.6359679390      6.35e-07  Convergence criterion met
 Total energy in the final basis set =    -5265.6359679390
   14   -5265.6359813524      6.36e-07  Convergence criterion met
 Total energy in the final basis set =    -5265.6359813524
   14   -5265.6359883241      6.42e-07  Convergence criterion met
 Total energy in the final basis set =    -5265.6359883241
   14   -5265.6359949190      6.49e-07  Convergence criterion met
 Total energy in the final basis set =    -5265.6359949190
   14   -5265.6359993114      6.50e-07  Convergence criterion met
 Total energy in the final basis set =    -5265.6359993114
   14   -5265.6360034666      6.48e-07  Convergence criterion met
 Total energy in the final basis set =    -5265.6360034666
   14   -5265.6360064447      6.44e-07  Convergence criterion met
 Total energy in the final basis set =    -5265.6360064447
   14   -5265.6360082102      6.41e-07  Convergence criterion met
 Total energy in the final basis set =    -5265.6360082102

             Standard Nuclear Orientation (Angstroms)
    I     Atom           X                Y                Z
 ----------------------------------------------------------------
    1      Br      1.9081035243     0.3678287843     0.4890925180
    2      Br      0.7785760754     2.4182866164    -1.1807132225
    3      C      -0.6470324839    -1.2921944124    -0.1842749994
    4      C      -0.0183162877    -1.5541505963     0.9975220438
    5      C      -1.7397735025    -0.3063213373    -0.3644685953
    6      H      -0.2887560617    -1.8006222050    -1.0782018183
    7      H      -0.3542796374    -1.0998892546     1.9245479354
    8      H       0.7545935715    -2.3114744271     1.0674447565
    9      H      -2.1650034598     0.0247532070     0.5859027010
   10      H      -1.3303964240     0.5789884775    -0.8789579307
   11      H      -2.5329223142    -0.7042048525    -1.0070953885
 ----------------------------------------------------------------

   14   -5265.6360091244      6.40e-07  Convergence criterion met
 Total energy in the final basis set =    -5265.6360091244

                    Orbital Energies (a.u.)
 --------------------------------------------------------------

 Alpha MOs
 -- Occupied --
*******-482.838 -62.529 -62.496 -56.350 -56.349 -56.346 -56.318
-56.314 -56.313 -10.259 -10.248 -10.211  -8.716  -8.683  -6.544
 -6.539  -6.531  -6.514  -6.502  -6.499  -2.638  -2.638  -2.632
 -2.629  -2.628  -2.606  -2.604  -2.602  -2.593  -2.593  -0.842
 -0.779  -0.737  -0.725  -0.603  -0.514  -0.468  -0.448  -0.409
 -0.394  -0.366  -0.353  -0.307  -0.290  -0.267  -0.264  -0.251

 Beta MOs
 -- Occupied --
*******-482.836 -62.528 -62.495 -56.346 -56.346 -56.345 -56.314
-56.312 -56.312 -10.255 -10.246 -10.211  -8.712  -8.680  -6.536
 -6.534  -6.529  -6.506  -6.499  -6.497  -2.632  -2.632  -2.628
 -2.626  -2.625  -2.600  -2.599  -2.597  -2.591  -2.591  -0.831
 -0.744  -0.724  -0.699  -0.598  -0.510  -0.465  -0.440  -0.407
 -0.393  -0.323  -0.310  -0.294  -0.264  -0.256

          Ground-State Mulliken Net Atomic Charges

     Atom                 Charge (a.u.)    Spin (a.u.)
  --------------------------------------------------------
      1 Br                   -0.102181       0.865901
      2 Br                   -0.223545       0.752369
      3 C                     0.018300       0.269688
      4 C                    -0.220893       0.117463
      5 C                    -0.365163      -0.010935
      6 H                     0.137890      -0.011888
      7 H                     0.150547      -0.005122
      8 H                     0.153851      -0.004601
      9 H                     0.130333       0.001042
     10 H                     0.185083       0.015979
     11 H                     0.135779       0.010105
  --------------------------------------------------------
  Sum of atomic charges =    -0.000000

                    Cartesian Multipole Moments
 -----------------------------------------------------------------
    Charge (ESU x 10^10)
                 0.0000
    Dipole Moment (Debye)
         X      -2.7639      Y      -4.3912      Z       1.1784
       Tot       5.3208
    Quadrupole Moments (Debye-Ang)
        XX     -56.9774     XY      -2.5434     YY     -59.2446
        XZ       1.7200     YZ       1.4917     ZZ     -56.1077

 Final energy is   -5265.63600912437
 **  OPTIMIZATION CONVERGED  **
 Total job time:  82.45s(wall), 964.21s(cpu)
        *  Thank you very much for using Q-Chem.  Have a nice day.  *
