 Q-Chem 5.1, Q-Chem, Inc., Pleasanton, CA (2018)
 Q-Chem 5.1.1 for Intel X86 EM64T Linux

User input:
--------------------------------------------------------------

$comment
potential surface scanner
$end

$rem
JOBTYPE  PES_SCAN
UNRESTRICTED TRUE
SYM_IGNORE  TRUE
GEOM_OPT_MAX_CYCLES 400
SCF_MAX_CYCLES 400
METHOD   B3LYP
BASIS   6-31G**
PDB_PRINT 2
SCF_CONVERGENCE 6
THRESH 14
SCF_PRINT 1
$end
$molecule
0 1
Br -0.621000 1.744900 0.138600
Br 2.339300 0.022500 -0.135100
C -0.519000 -0.151000 -0.364100
C 0.644500 -0.814800 0.353000
C -1.843800 -0.801500 0.007700
H -0.380000 -0.157800 -1.450100
H 0.570800 -0.733000 1.441800
H 0.738000 -1.869500 0.078300
H -2.034600 -0.746700 1.085500
H -2.681600 -0.314200 -0.503400
H -1.847800 -1.857900 -0.281400
$end
$scan
stre 2 4 2.700000 2.701000 0.100000
$end
--------------------------------------------------------------

    9   -5265.7112865010      6.36e-07  Convergence criterion met
 Total energy in the final basis set =    -5265.7112865010
   10   -5265.7087531644      4.63e-07  Convergence criterion met
 Total energy in the final basis set =    -5265.7087531644
   10   -5265.6982507831      7.95e-07  Convergence criterion met
 Total energy in the final basis set =    -5265.6982507831
   11   -5265.6857541164      1.57e-07  Convergence criterion met
 Total energy in the final basis set =    -5265.6857541164
   11   -5265.6737623484      3.29e-07  Convergence criterion met
 Total energy in the final basis set =    -5265.6737623484
   11   -5265.6625663914      4.73e-07  Convergence criterion met
 Total energy in the final basis set =    -5265.6625663914
   11   -5265.6623007685      5.76e-07  Convergence criterion met
 Total energy in the final basis set =    -5265.6623007685
   11   -5265.6627120451      6.15e-07  Convergence criterion met
   11   -5265.6630104821      5.83e-07  Convergence criterion met
 Total energy in the final basis set =    -5265.6630104821
   11   -5265.6630527659      5.80e-07  Convergence criterion met
 Total energy in the final basis set =    -5265.6630527659
   11   -5265.6630763640      5.81e-07  Convergence criterion met
 Total energy in the final basis set =    -5265.6630763640
   11   -5265.6630849080      5.82e-07  Convergence criterion met
 Total energy in the final basis set =    -5265.6630849080
   11   -5265.6630875486      5.82e-07  Convergence criterion met
 Total energy in the final basis set =    -5265.6630875486
   11   -5265.6630885674      5.82e-07  Convergence criterion met
 Total energy in the final basis set =    -5265.6630885674

             Standard Nuclear Orientation (Angstroms)
    I     Atom           X                Y                Z
 ----------------------------------------------------------------
    1      Br     -0.7103650538     1.7608786534     0.2523604059
    2      Br      2.8718438801    -0.0083281026    -0.4481223030
    3      C      -0.5798366344    -0.1379603361    -0.2771905893
    4      C       0.4787614066    -0.8444005913     0.4814675713
    5      C      -1.9313856193    -0.8419307723    -0.0374406503
    6      H      -0.3474753060    -0.1241102568    -1.3419229910
    7      H       0.6817243373    -0.5740126097     1.5117380653
    8      H       0.6946804363    -1.8694019923     0.1938540765
    9      H      -2.1983717104    -0.8436561288     1.0219563210
   10      H      -2.7140589397    -0.3196990887    -0.5918521888
   11      H      -1.8807167966    -1.8763787747    -0.3940477178
 ----------------------------------------------------------------

   11   -5265.6630890914      5.82e-07  Convergence criterion met
 Total energy in the final basis set =    -5265.6630890914

                    Orbital Energies (a.u.)
 --------------------------------------------------------------

 Alpha MOs
 -- Occupied --
*******-482.827 -62.526 -62.484 -56.347 -56.343 -56.343 -56.305
-56.302 -56.302 -10.302 -10.290 -10.230  -8.713  -8.670  -6.544
 -6.530  -6.530  -6.499  -6.487  -6.487  -2.637  -2.633  -2.633
 -2.622  -2.622  -2.592  -2.589  -2.589  -2.580  -2.580  -0.871
 -0.767  -0.736  -0.707  -0.622  -0.519  -0.489  -0.459  -0.440
 -0.411  -0.378  -0.301  -0.294  -0.291  -0.259  -0.257

 Beta MOs
 -- Occupied --
*******-482.827 -62.526 -62.484 -56.347 -56.343 -56.343 -56.305
-56.302 -56.302 -10.302 -10.290 -10.230  -8.713  -8.670  -6.544
 -6.530  -6.530  -6.499  -6.487  -6.487  -2.637  -2.633  -2.633
 -2.622  -2.622  -2.592  -2.589  -2.589  -2.580  -2.580  -0.871
 -0.767  -0.736  -0.707  -0.622  -0.519  -0.489  -0.459  -0.440
 -0.411  -0.378  -0.301  -0.294  -0.291  -0.259  -0.257

          Ground-State Mulliken Net Atomic Charges

     Atom                 Charge (a.u.)    Spin (a.u.)
  --------------------------------------------------------
      1 Br                   -0.060139      -0.000000
      2 Br                   -0.325481      -0.000000
      3 C                    -0.155656       0.000000
      4 C                    -0.139092      -0.000000
      5 C                    -0.330029      -0.000000
      6 H                     0.196574      -0.000000
      7 H                     0.199173      -0.000000
      8 H                     0.186812      -0.000000
      9 H                     0.142291      -0.000000
     10 H                     0.156410      -0.000000
     11 H                     0.129137       0.000000
  --------------------------------------------------------
  Sum of atomic charges =    -0.000000

                    Cartesian Multipole Moments
 -----------------------------------------------------------------
    Charge (ESU x 10^10)
                 0.0000
    Dipole Moment (Debye)
         X      -4.5089      Y      -2.8990      Z       0.7455
       Tot       5.4120
    Quadrupole Moments (Debye-Ang)
        XX     -66.3148     XY       1.6265     YY     -55.4909
        XZ       2.4081     YZ      -0.6675     ZZ     -55.3674

 Final energy is   -5265.66308909144
 **  OPTIMIZATION CONVERGED  **
 Total job time:  107.63s(wall), 1254.09s(cpu)
        *  Thank you very much for using Q-Chem.  Have a nice day.  *
