 Q-Chem 5.1, Q-Chem, Inc., Pleasanton, CA (2018)
 Q-Chem 5.1.1 for Intel X86 EM64T Linux

User input:
--------------------------------------------------------------

$comment
potential surface scanner
$end

$rem
JOBTYPE  PES_SCAN
UNRESTRICTED TRUE
SYM_IGNORE  TRUE
GEOM_OPT_MAX_CYCLES 400
SCF_MAX_CYCLES 400
METHOD   B3LYP
BASIS   6-31G**
PDB_PRINT 2
SCF_CONVERGENCE 6
THRESH 14
SCF_PRINT 1
$end
$molecule
0 3
Br 1.226295 -0.181629 -1.668653
Br 1.999252 1.309524 0.745998
C -0.566707 -1.118900 -0.048580
C -0.020386 -0.728437 1.167631
C -1.830163 -0.520823 -0.590249
H -0.270458 -2.087463 -0.440221
H -0.448714 0.090012 1.734331
H 0.777663 -1.294241 1.632134
H -2.685036 -1.082291 -0.187506
H -1.939835 0.525378 -0.295701
H -1.877120 -0.590130 -1.678375
$end
$scan
stre 2 4 2.800000 2.801000 0.100000
$end
--------------------------------------------------------------

   14   -5265.6276470442      4.53e-07  Convergence criterion met
 Total energy in the final basis set =    -5265.6276470442
   13   -5265.6269410433      8.86e-07  Convergence criterion met
 Total energy in the final basis set =    -5265.6269410433
   13   -5265.6270990652      8.72e-07  Convergence criterion met
 Total energy in the final basis set =    -5265.6270990652
   13   -5265.6272497319      8.60e-07  Convergence criterion met
 Total energy in the final basis set =    -5265.6272497319
   13   -5265.6272797431      8.64e-07  Convergence criterion met
 Total energy in the final basis set =    -5265.6272797431
   13   -5265.6273401573      8.76e-07  Convergence criterion met
 Total energy in the final basis set =    -5265.6273401573
   13   -5265.6273638561      8.72e-07  Convergence criterion met
 Total energy in the final basis set =    -5265.6273638561
   13   -5265.6274128301      6.85e-07  Convergence criterion met
   14   -5265.6351458954      8.00e-07  Convergence criterion met
 Total energy in the final basis set =    -5265.6351458954
   14   -5265.6351482175      7.99e-07  Convergence criterion met
 Total energy in the final basis set =    -5265.6351482175
   14   -5265.6351539603      7.99e-07  Convergence criterion met
 Total energy in the final basis set =    -5265.6351539603
   14   -5265.6351566997      7.95e-07  Convergence criterion met
 Total energy in the final basis set =    -5265.6351566997
   14   -5265.6351627967      7.93e-07  Convergence criterion met
 Total energy in the final basis set =    -5265.6351627967
   14   -5265.6351656350      7.90e-07  Convergence criterion met
 Total energy in the final basis set =    -5265.6351656350

             Standard Nuclear Orientation (Angstroms)
    I     Atom           X                Y                Z
 ----------------------------------------------------------------
    1      Br      1.3502227022     0.1269176680    -2.6435818786
    2      Br      1.8435659632     0.7022652702     0.1314316371
    3      C      -0.6645933539    -1.1511120381     0.2865530138
    4      C      -0.1743266266    -0.6980729368     1.4757400106
    5      C      -1.7401424945    -0.5038718136    -0.5053319973
    6      H      -0.2081701060    -2.0394216689    -0.1475271742
    7      H      -0.5969387688     0.1735792583     1.9659591523
    8      H       0.5827591280    -1.2534055230     2.0173566049
    9      H      -2.4906782612    -1.2431690041    -0.8101631570
   10      H      -2.2298101555     0.3092135862     0.0359839121
   11      H      -1.3070970269    -0.1019227980    -1.4356111236
 ----------------------------------------------------------------

   14   -5265.6351662805      7.89e-07  Convergence criterion met
 Total energy in the final basis set =    -5265.6351662805

                    Orbital Energies (a.u.)
 --------------------------------------------------------------

 Alpha MOs
 -- Occupied --
*******-482.836 -62.531 -62.493 -56.352 -56.351 -56.348 -56.316
-56.311 -56.310 -10.260 -10.248 -10.213  -8.718  -8.680  -6.546
 -6.541  -6.533  -6.511  -6.499  -6.496  -2.640  -2.640  -2.634
 -2.630  -2.629  -2.604  -2.601  -2.600  -2.590  -2.590  -0.842
 -0.780  -0.735  -0.726  -0.603  -0.513  -0.468  -0.448  -0.410
 -0.394  -0.364  -0.357  -0.307  -0.286  -0.268  -0.266  -0.251

 Beta MOs
 -- Occupied --
*******-482.834 -62.529 -62.492 -56.348 -56.348 -56.347 -56.311
-56.310 -56.310 -10.256 -10.246 -10.213  -8.714  -8.677  -6.539
 -6.536  -6.531  -6.503  -6.496  -6.495  -2.634  -2.634  -2.630
 -2.627  -2.626  -2.598  -2.596  -2.595  -2.589  -2.589  -0.831
 -0.745  -0.724  -0.698  -0.598  -0.510  -0.466  -0.440  -0.408
 -0.392  -0.321  -0.313  -0.294  -0.261  -0.255

          Ground-State Mulliken Net Atomic Charges

     Atom                 Charge (a.u.)    Spin (a.u.)
  --------------------------------------------------------
      1 Br                   -0.241122       0.735882
      2 Br                   -0.094449       0.881535
      3 C                     0.023871       0.275017
      4 C                    -0.222607       0.114410
      5 C                    -0.366603      -0.013868
      6 H                     0.146480      -0.012131
      7 H                     0.147170      -0.005098
      8 H                     0.155856      -0.004369
      9 H                     0.138723       0.011296
     10 H                     0.127632       0.000498
     11 H                     0.185050       0.016827
  --------------------------------------------------------
  Sum of atomic charges =    -0.000000

                    Cartesian Multipole Moments
 -----------------------------------------------------------------
    Charge (ESU x 10^10)
                -0.0000
    Dipole Moment (Debye)
         X      -3.4603      Y      -1.8440      Z       3.5067
       Tot       5.2604
    Quadrupole Moments (Debye-Ang)
        XX     -58.3051     XY       0.0774     YY     -55.1836
        XZ       4.7906     YZ       0.4346     ZZ     -60.5168

 Final energy is   -5265.63516628049
 **  OPTIMIZATION CONVERGED  **
 Total job time:  272.47s(wall), 3157.43s(cpu)
        *  Thank you very much for using Q-Chem.  Have a nice day.  *
