 Q-Chem 5.1, Q-Chem, Inc., Pleasanton, CA (2018)
 Q-Chem 5.1.1 for Intel X86 EM64T Linux

User input:
--------------------------------------------------------------

$comment
potential surface scanner
$end

$rem
JOBTYPE  PES_SCAN
UNRESTRICTED TRUE
SYM_IGNORE  TRUE
GEOM_OPT_MAX_CYCLES 400
SCF_MAX_CYCLES 400
METHOD   B3LYP
BASIS   6-31G**
PDB_PRINT 2
SCF_CONVERGENCE 6
THRESH 14
SCF_PRINT 1
$end
$molecule
0 3
Br 2.095409 -0.016132 0.061208
Br 0.662470 2.454191 -0.296696
C -0.705902 -1.348174 -0.171114
C 0.081608 -1.299785 0.956405
C -1.776516 -0.368145 -0.485954
H -0.483497 -2.112568 -0.913532
H -0.133051 -0.592251 1.750452
H 0.743205 -2.122998 1.200485
H -2.256750 0.018500 0.417054
H -1.331347 0.502607 -0.994906
H -2.530833 -0.794248 -1.152597
$end
$scan
stre 2 4 3.900000 3.901000 0.100000
$end
--------------------------------------------------------------

   14   -5265.6356852488      5.00e-07  Convergence criterion met
 Total energy in the final basis set =    -5265.6356852488
   14   -5265.6350363939      4.87e-07  Convergence criterion met
 Total energy in the final basis set =    -5265.6350363939
   14   -5265.6352097266      4.93e-07  Convergence criterion met
 Total energy in the final basis set =    -5265.6352097266
   14   -5265.6352309286      4.88e-07  Convergence criterion met
 Total energy in the final basis set =    -5265.6352309286
   14   -5265.6352411166      4.84e-07  Convergence criterion met
 Total energy in the final basis set =    -5265.6352411166
   14   -5265.6352482557      4.79e-07  Convergence criterion met
 Total energy in the final basis set =    -5265.6352482557
   14   -5265.6352521665      4.76e-07  Convergence criterion met
 Total energy in the final basis set =    -5265.6352521665
   14   -5265.6352580893      4.72e-07  Convergence criterion met
   14   -5265.6352917832      4.62e-07  Convergence criterion met
 Total energy in the final basis set =    -5265.6352917832
   14   -5265.6353165866      4.64e-07  Convergence criterion met
 Total energy in the final basis set =    -5265.6353165866
   14   -5265.6353451018      4.73e-07  Convergence criterion met
 Total energy in the final basis set =    -5265.6353451018
   14   -5265.6353652466      4.83e-07  Convergence criterion met
 Total energy in the final basis set =    -5265.6353652466
   14   -5265.6353790932      4.93e-07  Convergence criterion met
 Total energy in the final basis set =    -5265.6353790932
   14   -5265.6353805614      4.94e-07  Convergence criterion met
 Total energy in the final basis set =    -5265.6353805614

             Standard Nuclear Orientation (Angstroms)
    I     Atom           X                Y                Z
 ----------------------------------------------------------------
    1      Br      2.0769169585    -0.0836479304    -0.1852217559
    2      Br      0.7183118955     2.4717972811    -0.0943847240
    3      C      -0.7350544304    -1.3808873744    -0.1348223447
    4      C       0.1039718964    -1.2357822653     0.9479414312
    5      C      -1.7813381041    -0.3904338721    -0.5109302598
    6      H      -0.5867913442    -2.2455769006    -0.7787734144
    7      H      -0.0428256232    -0.4275700283     1.6570597482
    8      H       0.7432427335    -2.0526178899     1.2631395602
    9      H      -2.4334642882    -0.1622177806     0.3402546156
   10      H      -1.3054595865     0.5629385521    -0.7872093933
   11      H      -2.3927141073    -0.7350047916    -1.3462484632
 ----------------------------------------------------------------

   14   -5265.6353810874      4.94e-07  Convergence criterion met
 Total energy in the final basis set =    -5265.6353810874

                    Orbital Energies (a.u.)
 --------------------------------------------------------------

 Alpha MOs
 -- Occupied --
*******-482.832 -62.529 -62.490 -56.350 -56.348 -56.346 -56.312
-56.307 -56.307 -10.263 -10.255 -10.212  -8.716  -8.677  -6.544
 -6.539  -6.532  -6.508  -6.495  -6.493  -2.638  -2.637  -2.632
 -2.629  -2.628  -2.601  -2.597  -2.596  -2.586  -2.586  -0.845
 -0.780  -0.734  -0.723  -0.608  -0.516  -0.470  -0.450  -0.413
 -0.396  -0.368  -0.356  -0.307  -0.280  -0.265  -0.257  -0.251

 Beta MOs
 -- Occupied --
*******-482.830 -62.527 -62.489 -56.346 -56.346 -56.345 -56.308
-56.306 -56.306 -10.257 -10.254 -10.212  -8.712  -8.674  -6.537
 -6.534  -6.530  -6.500  -6.493  -6.492  -2.632  -2.632  -2.628
 -2.626  -2.625  -2.595  -2.593  -2.592  -2.585  -2.585  -0.832
 -0.749  -0.722  -0.696  -0.600  -0.512  -0.466  -0.438  -0.411
 -0.393  -0.332  -0.311  -0.294  -0.259  -0.254

          Ground-State Mulliken Net Atomic Charges

     Atom                 Charge (a.u.)    Spin (a.u.)
  --------------------------------------------------------
      1 Br                   -0.091383       0.812685
      2 Br                   -0.254732       0.718523
      3 C                     0.010180       0.433389
      4 C                    -0.239146       0.038992
      5 C                    -0.367561      -0.024512
      6 H                     0.137689      -0.019684
      7 H                     0.175111      -0.001121
      8 H                     0.163806      -0.000113
      9 H                     0.144214       0.016766
     10 H                     0.191990       0.024645
     11 H                     0.129831       0.000429
  --------------------------------------------------------
  Sum of atomic charges =    -0.000000

                    Cartesian Multipole Moments
 -----------------------------------------------------------------
    Charge (ESU x 10^10)
                -0.0000
    Dipole Moment (Debye)
         X      -2.9619      Y      -4.5784      Z       0.6835
       Tot       5.4956
    Quadrupole Moments (Debye-Ang)
        XX     -57.0820     XY      -2.2846     YY     -59.5566
        XZ       1.2104     YZ      -0.1095     ZZ     -55.5324

 Final energy is   -5265.63538108743
 **  OPTIMIZATION CONVERGED  **
 Total job time:  109.72s(wall), 1285.63s(cpu)
        *  Thank you very much for using Q-Chem.  Have a nice day.  *
