 Q-Chem 5.1, Q-Chem, Inc., Pleasanton, CA (2018)
 Q-Chem 5.1.1 for Intel X86 EM64T Linux

User input:
--------------------------------------------------------------

$comment
potential surface scanner
$end

$rem
JOBTYPE  PES_SCAN
UNRESTRICTED TRUE
SYM_IGNORE  TRUE
GEOM_OPT_MAX_CYCLES 400
SCF_MAX_CYCLES 400
METHOD   B3LYP
BASIS   6-31G**
PDB_PRINT 2
SCF_CONVERGENCE 6
THRESH 14
SCF_PRINT 1
$end
$molecule
0 3
Br 1.359702 0.079505 -2.553771
Br 1.812839 0.691775 0.270411
C -0.671371 -1.155824 0.258690
C -0.104122 -0.651244 1.402471
C -1.768067 -0.512847 -0.506068
H -0.239551 -2.059975 -0.166886
H -0.530033 0.214162 1.899969
H 0.625946 -1.227661 1.958500
H -2.508893 -1.256935 -0.820618
H -2.264120 0.281499 0.056909
H -1.347538 -0.081455 -1.428796
$end
$scan
stre 2 4 2.500000 2.501000 0.100000
$end
--------------------------------------------------------------

   14   -5265.6357136750      5.29e-07  Convergence criterion met
 Total energy in the final basis set =    -5265.6357136750
   13   -5265.6343316796      8.48e-07  Convergence criterion met
 Total energy in the final basis set =    -5265.6343316796
   13   -5265.6353502875      9.75e-07  Convergence criterion met
 Total energy in the final basis set =    -5265.6353502875
   14   -5265.6354785670      3.65e-07  Convergence criterion met
 Total energy in the final basis set =    -5265.6354785670
   14   -5265.6355506212      3.81e-07  Convergence criterion met
 Total energy in the final basis set =    -5265.6355506212
   14   -5265.6355741403      3.88e-07  Convergence criterion met
 Total energy in the final basis set =    -5265.6355741403
   14   -5265.6355871423      3.91e-07  Convergence criterion met
 Total energy in the final basis set =    -5265.6355871423
   14   -5265.6355961400      3.92e-07  Convergence criterion met
 Total energy in the final basis set =    -5265.6355961400
   14   -5265.6356005417      3.92e-07  Convergence criterion met
 Total energy in the final basis set =    -5265.6356005417
   14   -5265.6356025020      3.92e-07  Convergence criterion met
 Total energy in the final basis set =    -5265.6356025020
   14   -5265.6356035335      3.92e-07  Convergence criterion met
 Total energy in the final basis set =    -5265.6356035335

             Standard Nuclear Orientation (Angstroms)
    I     Atom           X                Y                Z
 ----------------------------------------------------------------
    1      Br      1.3759608628     0.0293634343    -2.5096741030
    2      Br      1.7545627508     0.7272023912     0.3272508329
    3      C      -0.6722549450    -1.1606830257     0.2439769116
    4      C      -0.0648115471    -0.6362582467     1.3668915012
    5      C      -1.7757448354    -0.5109169414    -0.5050271920
    6      H      -0.2548283063    -2.0712784316    -0.1813639073
    7      H      -0.5054900793     0.2112876729     1.8817249065
    8      H       0.6514393172    -1.2264827781     1.9256326808
    9      H      -2.5238564979    -1.2487481874    -0.8160637003
   10      H      -2.2611138981     0.2846140819     0.0657097795
   11      H      -1.3590708217    -0.0770999694    -1.4282467098
 ----------------------------------------------------------------

   14   -5265.6356043649      3.93e-07  Convergence criterion met
 Total energy in the final basis set =    -5265.6356043649

                    Orbital Energies (a.u.)
 --------------------------------------------------------------

 Alpha MOs
 -- Occupied --
*******-482.832 -62.528 -62.489 -56.349 -56.347 -56.345 -56.312
-56.307 -56.306 -10.263 -10.258 -10.214  -8.715  -8.676  -6.543
 -6.537  -6.530  -6.508  -6.493  -6.492  -2.637  -2.637  -2.631
 -2.627  -2.626  -2.600  -2.597  -2.596  -2.585  -2.585  -0.847
 -0.779  -0.735  -0.724  -0.608  -0.517  -0.471  -0.452  -0.413
 -0.398  -0.372  -0.354  -0.304  -0.273  -0.264  -0.259  -0.254

 Beta MOs
 -- Occupied --
*******-482.830 -62.526 -62.488 -56.346 -56.345 -56.344 -56.307
-56.306 -56.306 -10.257 -10.256 -10.214  -8.711  -8.673  -6.536
 -6.532  -6.528  -6.500  -6.492  -6.491  -2.631  -2.631  -2.627
 -2.624  -2.624  -2.594  -2.592  -2.592  -2.584  -2.584  -0.833
 -0.750  -0.722  -0.696  -0.600  -0.513  -0.468  -0.440  -0.410
 -0.396  -0.338  -0.309  -0.292  -0.259  -0.253

          Ground-State Mulliken Net Atomic Charges

     Atom                 Charge (a.u.)    Spin (a.u.)
  --------------------------------------------------------
      1 Br                   -0.256397       0.715007
      2 Br                   -0.092238       0.793543
      3 C                     0.031772       0.479728
      4 C                    -0.253389       0.016433
      5 C                    -0.365796      -0.031016
      6 H                     0.149590      -0.021100
      7 H                     0.161486      -0.000571
      8 H                     0.169614       0.000249
      9 H                     0.138099       0.014262
     10 H                     0.127464       0.002099
     11 H                     0.189795       0.031366
  --------------------------------------------------------
  Sum of atomic charges =    -0.000000

                    Cartesian Multipole Moments
 -----------------------------------------------------------------
    Charge (ESU x 10^10)
                -0.0000
    Dipole Moment (Debye)
         X      -3.7121      Y      -1.9056      Z       3.5470
       Tot       5.4765
    Quadrupole Moments (Debye-Ang)
        XX     -58.7652     XY       0.0802     YY     -55.0268
        XZ       4.8499     YZ       0.1034     ZZ     -60.1806

 Final energy is   -5265.63560436494
 **  OPTIMIZATION CONVERGED  **
 Total job time:  78.14s(wall), 911.83s(cpu)
        *  Thank you very much for using Q-Chem.  Have a nice day.  *
