 Q-Chem 5.1, Q-Chem, Inc., Pleasanton, CA (2018)
 Q-Chem 5.1.1 for Intel X86 EM64T Linux

User input:
--------------------------------------------------------------

$comment
potential surface scanner
$end

$rem
JOBTYPE  PES_SCAN
UNRESTRICTED TRUE
SYM_IGNORE  TRUE
GEOM_OPT_MAX_CYCLES 400
SCF_MAX_CYCLES 400
METHOD   B3LYP
BASIS   6-31G**
PDB_PRINT 2
SCF_CONVERGENCE 6
THRESH 14
SCF_PRINT 1
$end
$molecule
0 3
Br 1.876305 0.436679 0.411848
Br 0.793861 2.496596 -1.279504
C -0.624492 -1.286240 -0.166161
C -0.063924 -1.624581 1.027033
C -1.715378 -0.295618 -0.348794
H -0.231325 -1.753307 -1.068037
H -0.426286 -1.201840 1.959335
H 0.719050 -2.372204 1.090639
H -2.143388 0.032763 0.601201
H -1.311207 0.587559 -0.867593
H -2.508422 -0.698808 -0.989169
$end
$scan
stre 2 4 4.700000 4.701000 0.100000
$end
--------------------------------------------------------------

   14   -5265.6356309019      8.28e-07  Convergence criterion met
 Total energy in the final basis set =    -5265.6356309019
   14   -5265.6353008981      6.79e-07  Convergence criterion met
 Total energy in the final basis set =    -5265.6353008981
   14   -5265.6357071711      7.45e-07  Convergence criterion met
 Total energy in the final basis set =    -5265.6357071711
   14   -5265.6358318733      3.40e-07  Convergence criterion met
 Total energy in the final basis set =    -5265.6358318733
   14   -5265.6358413832      5.76e-07  Convergence criterion met
 Total energy in the final basis set =    -5265.6358413832
   14   -5265.6358545312      7.39e-07  Convergence criterion met
 Total energy in the final basis set =    -5265.6358545312
   14   -5265.6358599587      7.39e-07  Convergence criterion met
 Total energy in the final basis set =    -5265.6358599587
   14   -5265.6358643333      7.28e-07  Convergence criterion met
 Total energy in the final basis set =    -5265.6358643333
   14   -5265.6358675963      7.18e-07  Convergence criterion met
 Total energy in the final basis set =    -5265.6358675963
   14   -5265.6358711140      7.09e-07  Convergence criterion met
 Total energy in the final basis set =    -5265.6358711140
   14   -5265.6358736139      7.03e-07  Convergence criterion met
 Total energy in the final basis set =    -5265.6358736139
   14   -5265.6358749558      7.01e-07  Convergence criterion met
 Total energy in the final basis set =    -5265.6358749558

             Standard Nuclear Orientation (Angstroms)
    I     Atom           X                Y                Z
 ----------------------------------------------------------------
    1      Br      1.8981491600     0.4076853692     0.4476001601
    2      Br      0.7862555048     2.4567735618    -1.2274813226
    3      C      -0.6375073759    -1.2909111864    -0.1750287427
    4      C      -0.0427543165    -1.5907524237     1.0131168325
    5      C      -1.7281207315    -0.3016433958    -0.3568340413
    6      H      -0.2624685874    -1.7797235221    -1.0730709137
    7      H      -0.3894035687    -1.1493600938     1.9426031703
    8      H       0.7366224262    -2.3418246637     1.0793119186
    9      H      -2.1563039653     0.0271627953     0.5929500628
   10      H      -1.3195139217     0.5832710042    -0.8711898510
   11      H      -2.5201606239    -0.6996784450    -1.0011792731
 ----------------------------------------------------------------

   14   -5265.6358756471      7.01e-07  Convergence criterion met
 Total energy in the final basis set =    -5265.6358756471

                    Orbital Energies (a.u.)
 --------------------------------------------------------------

 Alpha MOs
 -- Occupied --
*******-482.840 -62.530 -62.497 -56.351 -56.349 -56.347 -56.320
-56.316 -56.315 -10.258 -10.247 -10.211  -8.717  -8.684  -6.544
 -6.540  -6.532  -6.515  -6.503  -6.500  -2.639  -2.638  -2.633
 -2.629  -2.628  -2.608  -2.605  -2.603  -2.595  -2.595  -0.840
 -0.780  -0.738  -0.726  -0.602  -0.513  -0.467  -0.447  -0.408
 -0.393  -0.366  -0.351  -0.307  -0.292  -0.268  -0.267  -0.251

 Beta MOs
 -- Occupied --
*******-482.838 -62.528 -62.496 -56.347 -56.346 -56.345 -56.315
-56.314 -56.314 -10.254 -10.244 -10.211  -8.713  -8.681  -6.537
 -6.534  -6.530  -6.507  -6.501  -6.499  -2.633  -2.632  -2.628
 -2.626  -2.625  -2.602  -2.600  -2.599  -2.593  -2.593  -0.830
 -0.744  -0.723  -0.699  -0.597  -0.510  -0.464  -0.439  -0.406
 -0.392  -0.322  -0.309  -0.294  -0.265  -0.256

          Ground-State Mulliken Net Atomic Charges

     Atom                 Charge (a.u.)    Spin (a.u.)
  --------------------------------------------------------
      1 Br                   -0.102663       0.876237
      2 Br                   -0.217490       0.759753
      3 C                     0.013732       0.227663
      4 C                    -0.213142       0.144081
      5 C                    -0.364804      -0.008417
      6 H                     0.137751      -0.009999
      7 H                     0.147007      -0.006331
      8 H                     0.150763      -0.005936
      9 H                     0.129726       0.000647
     10 H                     0.183132       0.013141
     11 H                     0.135990       0.009161
  --------------------------------------------------------
  Sum of atomic charges =    -0.000000

                    Cartesian Multipole Moments
 -----------------------------------------------------------------
    Charge (ESU x 10^10)
                 0.0000
    Dipole Moment (Debye)
         X      -2.7040      Y      -4.3427      Z       1.2095
       Tot       5.2568
    Quadrupole Moments (Debye-Ang)
        XX     -56.9319     XY      -2.5302     YY     -59.2766
        XZ       1.7080     YZ       1.5023     ZZ     -56.1557

 Final energy is   -5265.63587564714
 **  OPTIMIZATION CONVERGED  **
 Total job time:  81.71s(wall), 956.22s(cpu)
        *  Thank you very much for using Q-Chem.  Have a nice day.  *
