 Q-Chem 5.1, Q-Chem, Inc., Pleasanton, CA (2018)
 Q-Chem 5.1.1 for Intel X86 EM64T Linux

User input:
--------------------------------------------------------------

$comment
potential surface scanner
$end

$rem
JOBTYPE  PES_SCAN
UNRESTRICTED TRUE
SYM_IGNORE  TRUE
GEOM_OPT_MAX_CYCLES 400
SCF_MAX_CYCLES 400
METHOD   B3LYP
BASIS   6-31G**
PDB_PRINT 2
SCF_CONVERGENCE 6
THRESH 14
SCF_PRINT 1
$end
$molecule
0 3
Br -0.734358 1.763418 0.046223
Br 5.118265 0.028466 -0.713005
C -0.857229 -0.416077 -0.296038
C 0.245153 -0.929520 0.446753
C -2.257329 -0.821853 0.108254
H -0.700544 -0.375226 -1.371649
H 0.124139 -1.213235 1.487412
H 1.250624 -0.896968 0.043679
H -2.403741 -0.722296 1.186707
H -3.010729 -0.221665 -0.403911
H -2.409454 -1.874044 -0.163627
$end
$scan
stre 2 4 5.000000 5.001000 0.100000
$end
--------------------------------------------------------------

   44   -5265.6119760883      6.95e-07  Convergence criterion met
 Total energy in the final basis set =    -5265.6119760883
   33   -5265.6105132865      3.41e-07  Convergence criterion met
 Total energy in the final basis set =    -5265.6105132865
   36   -5265.6116388277      9.01e-07  Convergence criterion met
 Total energy in the final basis set =    -5265.6116388277
  113   -5265.6127549276      2.89e-07  Convergence criterion met
 Total energy in the final basis set =    -5265.6127549276
   90   -5265.6124332939      4.78e-07  Convergence criterion met
 Total energy in the final basis set =    -5265.6124332939
   82   -5265.6124360766      4.04e-07  Convergence criterion met
 Total energy in the final basis set =    -5265.6124360766
   55   -5265.6124290545      8.30e-07  Convergence criterion met
 Total energy in the final basis set =    -5265.6124290545
   76   -5265.6124409989      9.24e-07  Convergence criterion met
   15   -5265.6323489874      6.51e-07  Convergence criterion met
 Total energy in the final basis set =    -5265.6323489874
   15   -5265.6323595124      6.40e-07  Convergence criterion met
 Total energy in the final basis set =    -5265.6323595124
   15   -5265.6323803569      6.21e-07  Convergence criterion met
 Total energy in the final basis set =    -5265.6323803569
   15   -5265.6324075787      5.96e-07  Convergence criterion met
 Total energy in the final basis set =    -5265.6324075787
   15   -5265.6324191763      5.88e-07  Convergence criterion met
 Total energy in the final basis set =    -5265.6324191763
   15   -5265.6324230802      5.93e-07  Convergence criterion met
 Total energy in the final basis set =    -5265.6324230802

             Standard Nuclear Orientation (Angstroms)
    I     Atom           X                Y                Z
 ----------------------------------------------------------------
    1      Br      1.3113899180     1.0134108101     0.8174250561
    2      Br      2.2290716561     2.0841042627    -1.7047713494
    3      C      -0.6488323648    -1.1311156406    -0.2208093880
    4      C       0.0151102503    -1.5812569127     0.8766047245
    5      C      -1.9679608009    -0.4369176906    -0.2035248842
    6      H      -0.1922277090    -1.2857677594    -1.1973112475
    7      H      -0.4005614051    -1.4657272258     1.8733114271
    8      H       0.9562795251    -2.1127986540     0.7885938550
    9      H      -2.3507437834    -0.3025037020     0.8109292979
   10      H      -1.8840165657     0.5456739977    -0.6822384010
   11      H      -2.7027117207    -1.0061014854    -0.7874110906
 ----------------------------------------------------------------

   15   -5265.6324234616      5.90e-07  Convergence criterion met
 Total energy in the final basis set =    -5265.6324234616

                    Orbital Energies (a.u.)
 --------------------------------------------------------------

 Alpha MOs
 -- Occupied --
*******-482.839 -62.531 -62.496 -56.353 -56.351 -56.348 -56.319
-56.314 -56.313 -10.257 -10.244 -10.216  -8.719  -8.683  -6.547
 -6.541  -6.534  -6.514  -6.502  -6.499  -2.641  -2.640  -2.635
 -2.631  -2.630  -2.607  -2.604  -2.602  -2.593  -2.593  -0.839
 -0.780  -0.735  -0.728  -0.602  -0.512  -0.467  -0.450  -0.410
 -0.393  -0.367  -0.350  -0.308  -0.288  -0.273  -0.267  -0.250

 Beta MOs
 -- Occupied --
*******-482.837 -62.530 -62.495 -56.349 -56.348 -56.347 -56.314
-56.313 -56.313 -10.254 -10.242 -10.216  -8.714  -8.680  -6.539
 -6.536  -6.532  -6.506  -6.499  -6.498  -2.634  -2.634  -2.630
 -2.628  -2.627  -2.601  -2.599  -2.598  -2.592  -2.591  -0.830
 -0.744  -0.724  -0.698  -0.598  -0.509  -0.465  -0.444  -0.408
 -0.392  -0.323  -0.307  -0.295  -0.259  -0.255

          Ground-State Mulliken Net Atomic Charges

     Atom                 Charge (a.u.)    Spin (a.u.)
  --------------------------------------------------------
      1 Br                   -0.098249       0.887155
      2 Br                   -0.205225       0.784311
      3 C                     0.003667       0.201612
      4 C                    -0.210133       0.141185
      5 C                    -0.358419      -0.013333
      6 H                     0.142854      -0.008961
      7 H                     0.140548      -0.006175
      8 H                     0.152178      -0.005906
      9 H                     0.129739       0.000050
     10 H                     0.163487       0.011829
     11 H                     0.139552       0.008233
  --------------------------------------------------------
  Sum of atomic charges =     0.000000

                    Cartesian Multipole Moments
 -----------------------------------------------------------------
    Charge (ESU x 10^10)
                 0.0000
    Dipole Moment (Debye)
         X      -3.7976      Y      -4.0487      Z       1.3938
       Tot       5.7233
    Quadrupole Moments (Debye-Ang)
        XX     -59.9146     XY      -4.4619     YY     -58.7474
        XZ       3.3128     YZ       2.0184     ZZ     -56.9175

 Final energy is   -5265.63242346165
 **  OPTIMIZATION CONVERGED  **
 Total job time:  743.61s(wall), 8644.14s(cpu)
        *  Thank you very much for using Q-Chem.  Have a nice day.  *
