 Q-Chem 5.1, Q-Chem, Inc., Pleasanton, CA (2018)
 Q-Chem 5.1.1 for Intel X86 EM64T Linux

User input:
--------------------------------------------------------------

$comment
potential surface scanner
$end

$rem
JOBTYPE  PES_SCAN
UNRESTRICTED TRUE
SYM_IGNORE  TRUE
GEOM_OPT_MAX_CYCLES 400
SCF_MAX_CYCLES 400
METHOD   B3LYP
BASIS   6-31G**
PDB_PRINT 2
SCF_CONVERGENCE 6
THRESH 14
SCF_PRINT 1
$end
$molecule
0 3
Br 1.908104 0.367829 0.489093
Br 0.778576 2.418287 -1.180713
C -0.647032 -1.292194 -0.184275
C -0.018316 -1.554151 0.997522
C -1.739774 -0.306321 -0.364469
H -0.288756 -1.800622 -1.078202
H -0.354280 -1.099889 1.924548
H 0.754594 -2.311474 1.067445
H -2.165003 0.024753 0.585903
H -1.330396 0.578988 -0.878958
H -2.532922 -0.704205 -1.007095
$end
$scan
stre 2 4 4.500000 4.501000 0.100000
$end
--------------------------------------------------------------

   14   -5265.6360091243      6.40e-07  Convergence criterion met
 Total energy in the final basis set =    -5265.6360091243
   14   -5265.6357404960      5.96e-07  Convergence criterion met
 Total energy in the final basis set =    -5265.6357404960
   14   -5265.6359479329      6.07e-07  Convergence criterion met
 Total energy in the final basis set =    -5265.6359479329
   14   -5265.6360156411      6.14e-07  Convergence criterion met
 Total energy in the final basis set =    -5265.6360156411
   14   -5265.6360204205      6.15e-07  Convergence criterion met
 Total energy in the final basis set =    -5265.6360204205
   14   -5265.6360278719      6.16e-07  Convergence criterion met
 Total energy in the final basis set =    -5265.6360278719
   14   -5265.6360323447      6.17e-07  Convergence criterion met
 Total energy in the final basis set =    -5265.6360323447
   14   -5265.6360367848      6.18e-07  Convergence criterion met
 Total energy in the final basis set =    -5265.6360367848
   14   -5265.6360387242      6.19e-07  Convergence criterion met
 Total energy in the final basis set =    -5265.6360387242

             Standard Nuclear Orientation (Angstroms)
    I     Atom           X                Y                Z
 ----------------------------------------------------------------
    1      Br      1.9292061222     0.3389242765     0.5281605504
    2      Br      0.7661613557     2.3766504554    -1.1335740089
    3      C      -0.6545577473    -1.2918836064    -0.1933038980
    4      C       0.0026519236    -1.5210211002     0.9818957004
    5      C      -1.7500335184    -0.3098774817    -0.3721958655
    6      H      -0.3123022651    -1.8194866184    -1.0823290563
    7      H      -0.3252365272    -1.0557481854     1.9061698920
    8      H       0.7670043473    -2.2865002284     1.0565696395
    9      H      -2.1693467027     0.0262754538     0.5790876325
   10      H      -1.3422970278     0.5741870987    -0.8910338377
   11      H      -2.5464549603    -0.7105190639    -1.0086477483
 ----------------------------------------------------------------

   14   -5265.6360397113      6.20e-07  Convergence criterion met
 Total energy in the final basis set =    -5265.6360397113

                    Orbital Energies (a.u.)
 --------------------------------------------------------------

 Alpha MOs
 -- Occupied --
*******-482.837 -62.529 -62.495 -56.350 -56.348 -56.346 -56.317
-56.313 -56.312 -10.259 -10.249 -10.212  -8.716  -8.682  -6.543
 -6.539  -6.531  -6.513  -6.500  -6.498  -2.638  -2.638  -2.632
 -2.628  -2.627  -2.605  -2.603  -2.601  -2.592  -2.592  -0.842
 -0.779  -0.737  -0.725  -0.604  -0.514  -0.468  -0.449  -0.410
 -0.395  -0.366  -0.354  -0.307  -0.289  -0.267  -0.262  -0.250

 Beta MOs
 -- Occupied --
*******-482.835 -62.527 -62.493 -56.346 -56.345 -56.345 -56.313
-56.311 -56.311 -10.255 -10.247 -10.212  -8.712  -8.678  -6.536
 -6.534  -6.529  -6.505  -6.498  -6.496  -2.632  -2.631  -2.628
 -2.625  -2.624  -2.599  -2.598  -2.596  -2.590  -2.590  -0.831
 -0.745  -0.724  -0.698  -0.598  -0.511  -0.465  -0.439  -0.407
 -0.393  -0.324  -0.311  -0.294  -0.263  -0.255

          Ground-State Mulliken Net Atomic Charges

     Atom                 Charge (a.u.)    Spin (a.u.)
  --------------------------------------------------------
      1 Br                   -0.100503       0.857158
      2 Br                   -0.228229       0.746554
      3 C                     0.021952       0.304890
      4 C                    -0.227433       0.094213
      5 C                    -0.365142      -0.012687
      6 H                     0.137595      -0.013474
      7 H                     0.153377      -0.004048
      8 H                     0.156058      -0.003411
      9 H                     0.130784       0.001445
     10 H                     0.186089       0.018413
     11 H                     0.135452       0.010947
  --------------------------------------------------------
  Sum of atomic charges =    -0.000000

                    Cartesian Multipole Moments
 -----------------------------------------------------------------
    Charge (ESU x 10^10)
                -0.0000
    Dipole Moment (Debye)
         X      -2.8022      Y      -4.4047      Z       1.1346
       Tot       5.3424
    Quadrupole Moments (Debye-Ang)
        XX     -56.9947     XY      -2.5253     YY     -59.1824
        XZ       1.7172     YZ       1.4643     ZZ     -56.0659

 Final energy is   -5265.63603971131
 **  OPTIMIZATION CONVERGED  **
 Total job time:  64.22s(wall), 748.40s(cpu)
        *  Thank you very much for using Q-Chem.  Have a nice day.  *
