 Q-Chem 5.1, Q-Chem, Inc., Pleasanton, CA (2018)
 Q-Chem 5.1.1 for Intel X86 EM64T Linux

User input:
--------------------------------------------------------------

$comment
potential surface scanner
$end

$rem
JOBTYPE  PES_SCAN
UNRESTRICTED TRUE
SYM_IGNORE  TRUE
GEOM_OPT_MAX_CYCLES 400
SCF_MAX_CYCLES 400
METHOD   B3LYP
BASIS   6-31G**
PDB_PRINT 2
SCF_CONVERGENCE 6
THRESH 14
SCF_PRINT 1
$end
$molecule
0 1
Br -0.621000 1.744900 0.138600
Br 2.339300 0.022500 -0.135100
C -0.519000 -0.151000 -0.364100
C 0.644500 -0.814800 0.353000
C -1.843800 -0.801500 0.007700
H -0.380000 -0.157800 -1.450100
H 0.570800 -0.733000 1.441800
H 0.738000 -1.869500 0.078300
H -2.034600 -0.746700 1.085500
H -2.681600 -0.314200 -0.503400
H -1.847800 -1.857900 -0.281400
$end
$scan
stre 2 4 0.900000 0.901000 0.100000
$end
--------------------------------------------------------------

    9   -5265.7112865010      6.36e-07  Convergence criterion met
 Total energy in the final basis set =    -5265.7112865010
   10   -5265.7007251862      3.44e-07  Convergence criterion met
 Total energy in the final basis set =    -5265.7007251862
   10   -5265.6662322229      3.17e-07  Convergence criterion met
 Total energy in the final basis set =    -5265.6662322229
   10   -5265.6026243111      3.26e-07  Convergence criterion met
 Total energy in the final basis set =    -5265.6026243111
   10   -5265.5003292695      3.66e-07  Convergence criterion met
 Total energy in the final basis set =    -5265.5003292695
   10   -5265.3263892184      4.46e-07  Convergence criterion met
 Total energy in the final basis set =    -5265.3263892184
   10   -5265.0581336150      5.81e-07  Convergence criterion met
 Total energy in the final basis set =    -5265.0581336150
   10   -5264.8951817658      9.62e-07  Convergence criterion met
   11   -5262.8819039808      3.11e-07  Convergence criterion met
 Total energy in the final basis set =    -5262.8819039808
   11   -5262.8819065585      3.10e-07  Convergence criterion met
 Total energy in the final basis set =    -5262.8819065585
   11   -5262.8819105132      3.10e-07  Convergence criterion met
 Total energy in the final basis set =    -5262.8819105132
   11   -5262.8819141855      3.09e-07  Convergence criterion met
 Total energy in the final basis set =    -5262.8819141855
   11   -5262.8819159654      3.09e-07  Convergence criterion met
 Total energy in the final basis set =    -5262.8819159654
   11   -5262.8819164747      3.09e-07  Convergence criterion met
 Total energy in the final basis set =    -5262.8819164747

             Standard Nuclear Orientation (Angstroms)
    I     Atom           X                Y                Z
 ----------------------------------------------------------------
    1      Br     -0.4101720392     1.6977312220    -0.2989848878
    2      Br      1.7645706528     0.0562002672     0.8953383421
    3      C      -0.7443367511    -0.2320552840    -0.6055154617
    4      C       1.3892722697    -0.7038179881     0.5928087496
    5      C      -2.0092373969    -0.7047069610     0.0669467867
    6      H      -0.7638259893    -0.3340558197    -1.6941902629
    7      H       0.6832105156    -1.5052571210     1.0031621971
    8      H       1.4697725740    -1.3604574795    -0.3355148755
    9      H      -1.9759946843    -0.5586435484     1.1539507006
   10      H      -2.9441475069    -0.2479464591    -0.2937069860
   11      H      -2.0943116444    -1.7859908284    -0.1134943022
 ----------------------------------------------------------------

   11   -5262.8819168395      3.09e-07  Convergence criterion met
 Total energy in the final basis set =    -5262.8819168395

                    Orbital Energies (a.u.)
 --------------------------------------------------------------

 Alpha MOs
 -- Occupied --
*******-482.836 -62.703 -62.495 -56.519 -56.514 -56.511 -56.315
-56.313 -56.312 -10.542 -10.182 -10.168  -8.962  -8.682  -6.838
 -6.753  -6.745  -6.509  -6.502  -6.499  -2.939  -2.896  -2.891
 -2.829  -2.829  -2.603  -2.601  -2.599  -2.594  -2.594  -1.076
 -0.782  -0.704  -0.676  -0.642  -0.626  -0.552  -0.431  -0.414
 -0.394  -0.361  -0.326  -0.285  -0.265  -0.221  -0.164

 Beta MOs
 -- Occupied --
*******-482.836 -62.703 -62.495 -56.519 -56.514 -56.511 -56.315
-56.313 -56.312 -10.542 -10.182 -10.168  -8.962  -8.682  -6.838
 -6.753  -6.745  -6.509  -6.502  -6.499  -2.939  -2.896  -2.891
 -2.829  -2.829  -2.603  -2.601  -2.599  -2.594  -2.594  -1.076
 -0.782  -0.704  -0.676  -0.642  -0.626  -0.552  -0.431  -0.414
 -0.394  -0.361  -0.326  -0.285  -0.265  -0.221  -0.164

          Ground-State Mulliken Net Atomic Charges

     Atom                 Charge (a.u.)    Spin (a.u.)
  --------------------------------------------------------
      1 Br                   -0.163307      -0.000000
      2 Br                    1.137439       0.000000
      3 C                    -0.362711       0.000000
      4 C                    -0.855951      -0.000000
      5 C                    -0.302690       0.000000
      6 H                     0.103872      -0.000000
      7 H                     0.069852       0.000000
      8 H                     0.074149       0.000000
      9 H                     0.095246      -0.000000
     10 H                     0.103796       0.000000
     11 H                     0.100305      -0.000000
  --------------------------------------------------------
  Sum of atomic charges =    -0.000000

                    Cartesian Multipole Moments
 -----------------------------------------------------------------
    Charge (ESU x 10^10)
                 0.0000
    Dipole Moment (Debye)
         X       2.5145      Y      -2.6969      Z       1.2914
       Tot       3.9069
    Quadrupole Moments (Debye-Ang)
        XX     -51.5036     XY      -1.7777     YY     -57.6933
        XZ       1.7178     YZ      -0.8085     ZZ     -54.3134

 Final energy is   -5262.88191683945
 **  OPTIMIZATION CONVERGED  **
 Total job time:  416.88s(wall), 4788.71s(cpu)
        *  Thank you very much for using Q-Chem.  Have a nice day.  *
