 Q-Chem 5.1, Q-Chem, Inc., Pleasanton, CA (2018)
 Q-Chem 5.1.1 for Intel X86 EM64T Linux

User input:
--------------------------------------------------------------

$comment
potential surface scanner
$end

$rem
JOBTYPE  PES_SCAN
UNRESTRICTED TRUE
SYM_IGNORE  TRUE
GEOM_OPT_MAX_CYCLES 400
SCF_MAX_CYCLES 400
METHOD   B3LYP
BASIS   6-31G**
PDB_PRINT 2
SCF_CONVERGENCE 6
THRESH 14
SCF_PRINT 1
$end
$molecule
0 1
Br -0.621000 1.744900 0.138600
Br 2.339300 0.022500 -0.135100
C -0.519000 -0.151000 -0.364100
C 0.644500 -0.814800 0.353000
C -1.843800 -0.801500 0.007700
H -0.380000 -0.157800 -1.450100
H 0.570800 -0.733000 1.441800
H 0.738000 -1.869500 0.078300
H -2.034600 -0.746700 1.085500
H -2.681600 -0.314200 -0.503400
H -1.847800 -1.857900 -0.281400
$end
$scan
stre 2 4 1.400000 1.401000 0.100000
$end
--------------------------------------------------------------

    9   -5265.7112865010      6.36e-07  Convergence criterion met
 Total energy in the final basis set =    -5265.7112865010
   10   -5265.7007251862      3.44e-07  Convergence criterion met
 Total energy in the final basis set =    -5265.7007251862
   10   -5265.6662322229      3.17e-07  Convergence criterion met
 Total energy in the final basis set =    -5265.6662322229
   10   -5265.6026243111      3.26e-07  Convergence criterion met
 Total energy in the final basis set =    -5265.6026243111
   10   -5265.5077808156      3.63e-07  Convergence criterion met
 Total energy in the final basis set =    -5265.5077808156
   10   -5265.4694418337      3.85e-07  Convergence criterion met
 Total energy in the final basis set =    -5265.4694418337
   10   -5265.4678847778      3.89e-07  Convergence criterion met
 Total energy in the final basis set =    -5265.4678847778
   10   -5265.4680338839      3.94e-07  Convergence criterion met
 Total energy in the final basis set =    -5265.4680338839
   10   -5265.4680361403      3.94e-07  Convergence criterion met
 Total energy in the final basis set =    -5265.4680361403

             Standard Nuclear Orientation (Angstroms)
    I     Atom           X                Y                Z
 ----------------------------------------------------------------
    1      Br     -0.6538807926     1.8373075351     0.0907618531
    2      Br      2.0748058400    -0.2314819639    -0.0141159100
    3      C      -0.5005535436    -0.1051937099    -0.3729269196
    4      C       0.8000954480    -0.7203201958     0.2959672026
    5      C      -1.7771544488    -0.8232359151     0.0272466644
    6      H      -0.3659242661    -0.0879686050    -1.4578129079
    7      H       0.4934978864    -0.7171683673     1.3667913156
    8      H       0.5896537716    -1.7913116902     0.0581501052
    9      H      -1.9312817753    -0.7823202714     1.1094882496
   10      H      -2.6485611577    -0.3808708676    -0.4590710621
   11      H      -1.7158969621    -1.8764359488    -0.2736785908
 ----------------------------------------------------------------

   10   -5265.4680382400      3.94e-07  Convergence criterion met
 Total energy in the final basis set =    -5265.4680382400

                    Orbital Energies (a.u.)
 --------------------------------------------------------------

 Alpha MOs
 -- Occupied --
*******-482.847 -62.530 -62.505 -56.350 -56.348 -56.347 -56.326
-56.322 -56.322 -10.259 -10.239 -10.201  -8.727  -8.692  -6.559
 -6.544  -6.544  -6.522  -6.510  -6.509  -2.657  -2.648  -2.648
 -2.637  -2.637  -2.615  -2.612  -2.612  -2.602  -2.602  -0.979
 -0.820  -0.738  -0.661  -0.598  -0.515  -0.482  -0.472  -0.441
 -0.407  -0.389  -0.354  -0.284  -0.277  -0.260  -0.259

 Beta MOs
 -- Occupied --
*******-482.847 -62.530 -62.505 -56.350 -56.348 -56.347 -56.326
-56.322 -56.322 -10.259 -10.239 -10.201  -8.727  -8.692  -6.559
 -6.544  -6.544  -6.522  -6.510  -6.509  -2.657  -2.648  -2.648
 -2.637  -2.637  -2.615  -2.612  -2.612  -2.602  -2.602  -0.979
 -0.820  -0.738  -0.661  -0.598  -0.515  -0.482  -0.472  -0.441
 -0.407  -0.389  -0.354  -0.284  -0.277  -0.260  -0.259

          Ground-State Mulliken Net Atomic Charges

     Atom                 Charge (a.u.)    Spin (a.u.)
  --------------------------------------------------------
      1 Br                   -0.127888      -0.000000
      2 Br                    0.039342      -0.000000
      3 C                    -0.170214      -0.000000
      4 C                    -0.184214       0.000000
      5 C                    -0.319640       0.000000
      6 H                     0.150927      -0.000000
      7 H                     0.119029      -0.000000
      8 H                     0.107878      -0.000000
      9 H                     0.132138      -0.000000
     10 H                     0.137239      -0.000000
     11 H                     0.115404      -0.000000
  --------------------------------------------------------
  Sum of atomic charges =    -0.000000

                    Cartesian Multipole Moments
 -----------------------------------------------------------------
    Charge (ESU x 10^10)
                 0.0000
    Dipole Moment (Debye)
         X      -0.8026      Y      -2.6578      Z      -0.1275
       Tot       2.7792
    Quadrupole Moments (Debye-Ang)
        XX     -57.1378     XY       1.4624     YY     -57.2764
        XZ       0.5685     YZ      -0.0444     ZZ     -55.2736

 Final energy is   -5265.46803823999
 **  OPTIMIZATION CONVERGED  **
 Total job time:  58.25s(wall), 664.11s(cpu)
        *  Thank you very much for using Q-Chem.  Have a nice day.  *
