 Q-Chem 5.1, Q-Chem, Inc., Pleasanton, CA (2018)
 Q-Chem 5.1.1 for Intel X86 EM64T Linux

User input:
--------------------------------------------------------------

$comment
potential surface scanner
$end

$rem
JOBTYPE  PES_SCAN
UNRESTRICTED TRUE
SYM_IGNORE  TRUE
GEOM_OPT_MAX_CYCLES 400
SCF_MAX_CYCLES 400
METHOD   B3LYP
BASIS   6-31G**
PDB_PRINT 2
SCF_CONVERGENCE 6
THRESH 14
SCF_PRINT 1
$end
$molecule
0 3
Br 2.075852 -0.481425 -0.696807
Br 0.819797 1.945869 0.197766
C -0.776410 -1.281258 0.010259
C 0.255024 -0.922572 0.870876
C -1.863059 -0.392062 -0.474947
H -0.762465 -2.295154 -0.388443
H 0.244044 0.010544 1.407593
H 0.831441 -1.728109 1.316588
H -2.836680 -0.872764 -0.311496
H -1.849626 0.588132 0.000711
H -1.773126 -0.250202 -1.561291
$end
$scan
stre 2 4 2.900000 2.901000 0.100000
$end
--------------------------------------------------------------

   12   -5265.6223258838      8.45e-07  Convergence criterion met
 Total energy in the final basis set =    -5265.6223258838
   12   -5265.6167206375      6.96e-07  Convergence criterion met
 Total energy in the final basis set =    -5265.6167206375
   12   -5265.6166545380      7.03e-07  Convergence criterion met
 Total energy in the final basis set =    -5265.6166545380
   12   -5265.6166863978      7.11e-07  Convergence criterion met
 Total energy in the final basis set =    -5265.6166863978
   12   -5265.6167549645      7.48e-07  Convergence criterion met
 Total energy in the final basis set =    -5265.6167549645
   13   -5265.6166061819      4.25e-07  Convergence criterion met
 Total energy in the final basis set =    -5265.6166061819
   12   -5265.6168098262      8.07e-07  Convergence criterion met
 Total energy in the final basis set =    -5265.6168098262
   12   -5265.6168276406      8.45e-07  Convergence criterion met
   14   -5265.6276344674      4.73e-07  Convergence criterion met
 Total energy in the final basis set =    -5265.6276344674
   14   -5265.6276380472      4.64e-07  Convergence criterion met
 Total energy in the final basis set =    -5265.6276380472
   14   -5265.6276411921      4.55e-07  Convergence criterion met
 Total energy in the final basis set =    -5265.6276411921
   14   -5265.6276436765      4.49e-07  Convergence criterion met
 Total energy in the final basis set =    -5265.6276436765
   14   -5265.6276453964      4.48e-07  Convergence criterion met
 Total energy in the final basis set =    -5265.6276453964
   14   -5265.6276465502      4.50e-07  Convergence criterion met
 Total energy in the final basis set =    -5265.6276465502

             Standard Nuclear Orientation (Angstroms)
    I     Atom           X                Y                Z
 ----------------------------------------------------------------
    1      Br      1.2262954218    -0.1816286572    -1.6686526731
    2      Br      1.9992521358     1.3095244342     0.7459983506
    3      C      -0.5667069337    -1.1189002765    -0.0485803591
    4      C      -0.0203860712    -0.7284371549     1.1676314715
    5      C      -1.8301627199    -0.5208230328    -0.5902492464
    6      H      -0.2704583473    -2.0874634418    -0.4402206566
    7      H      -0.4487140847     0.0900115389     1.7343308397
    8      H       0.7776631126    -1.2942407472     1.6321338923
    9      H      -2.6850357605    -1.0822909230    -0.1875059971
   10      H      -1.9398351260     0.5253775878    -0.2957011527
   11      H      -1.8771196269    -0.5901303276    -1.6783754692
 ----------------------------------------------------------------

   14   -5265.6276470465      4.53e-07  Convergence criterion met
 Total energy in the final basis set =    -5265.6276470465

                    Orbital Energies (a.u.)
 --------------------------------------------------------------

 Alpha MOs
 -- Occupied --
*******-482.839 -62.518 -62.496 -56.338 -56.337 -56.335 -56.318
-56.314 -56.313 -10.270 -10.254 -10.216  -8.705  -8.683  -6.531
 -6.528  -6.520  -6.513  -6.502  -6.499  -2.626  -2.626  -2.620
 -2.618  -2.617  -2.606  -2.604  -2.602  -2.593  -2.593  -0.845
 -0.768  -0.739  -0.726  -0.607  -0.513  -0.468  -0.454  -0.410
 -0.398  -0.368  -0.343  -0.299  -0.286  -0.268  -0.256  -0.254

 Beta MOs
 -- Occupied --
*******-482.837 -62.516 -62.495 -56.335 -56.335 -56.334 -56.314
-56.313 -56.312 -10.268 -10.248 -10.216  -8.701  -8.680  -6.525
 -6.523  -6.519  -6.506  -6.500  -6.498  -2.621  -2.621  -2.617
 -2.615  -2.614  -2.601  -2.599  -2.598  -2.592  -2.592  -0.832
 -0.737  -0.721  -0.702  -0.600  -0.509  -0.464  -0.448  -0.407
 -0.396  -0.327  -0.303  -0.288  -0.259  -0.257

          Ground-State Mulliken Net Atomic Charges

     Atom                 Charge (a.u.)    Spin (a.u.)
  --------------------------------------------------------
      1 Br                   -0.137934       0.762686
      2 Br                   -0.225391       0.713445
      3 C                    -0.063135       0.107043
      4 C                    -0.153757       0.453434
      5 C                    -0.340220      -0.005202
      6 H                     0.162497      -0.002342
      7 H                     0.160785      -0.018495
      8 H                     0.164097      -0.019717
      9 H                     0.137943       0.003290
     10 H                     0.145586      -0.000323
     11 H                     0.149529       0.006181
  --------------------------------------------------------
  Sum of atomic charges =     0.000000

                    Cartesian Multipole Moments
 -----------------------------------------------------------------
    Charge (ESU x 10^10)
                 0.0000
    Dipole Moment (Debye)
         X      -4.1427      Y      -2.8865      Z       1.1573
       Tot       5.1800
    Quadrupole Moments (Debye-Ang)
        XX     -60.0239     XY      -1.7449     YY     -56.1717
        XZ       0.8962     YZ      -0.7670     ZZ     -55.9405

 Final energy is   -5265.62764704646
 **  OPTIMIZATION CONVERGED  **
 Total job time:  254.72s(wall), 2970.31s(cpu)
        *  Thank you very much for using Q-Chem.  Have a nice day.  *
