 Q-Chem 5.1, Q-Chem, Inc., Pleasanton, CA (2018)
 Q-Chem 5.1.1 for Intel X86 EM64T Linux

User input:
--------------------------------------------------------------

$comment
potential surface scanner
$end

$rem
JOBTYPE  PES_SCAN
UNRESTRICTED TRUE
SYM_IGNORE  TRUE
GEOM_OPT_MAX_CYCLES 400
SCF_MAX_CYCLES 400
METHOD   B3LYP
BASIS   6-31G**
PDB_PRINT 2
SCF_CONVERGENCE 6
THRESH 14
SCF_PRINT 1
$end
$molecule
0 1
Br -0.698666 1.772858 0.221463
Br 2.735664 -0.069028 -0.417137
C -0.566239 -0.133332 -0.295056
C 0.518719 -0.825227 0.456544
C -1.907551 -0.836859 -0.027554
H -0.349474 -0.120229 -1.362818
H 0.681190 -0.560953 1.496028
H 0.670472 -1.872292 0.208484
H -2.152118 -0.839501 1.037595
H -2.707164 -0.322053 -0.564410
H -1.860034 -1.872383 -0.382343
$end
$scan
stre 2 4 2.600000 2.601000 0.100000
$end
--------------------------------------------------------------

   11   -5265.6798357993      3.15e-07  Convergence criterion met
 Total energy in the final basis set =    -5265.6798357993
   11   -5265.6714250289      3.89e-07  Convergence criterion met
 Total energy in the final basis set =    -5265.6714250289
   11   -5265.6713273736      3.95e-07  Convergence criterion met
 Total energy in the final basis set =    -5265.6713273736
   11   -5265.6714002280      4.05e-07  Convergence criterion met
 Total energy in the final basis set =    -5265.6714002280
   11   -5265.6714019192      4.05e-07  Convergence criterion met
 Total energy in the final basis set =    -5265.6714019192

             Standard Nuclear Orientation (Angstroms)
    I     Atom           X                Y                Z
 ----------------------------------------------------------------
    1      Br     -0.6986865015     1.7684169773     0.2199331892
    2      Br      2.8084595532    -0.0438339461    -0.4270563368
    3      C      -0.5735401973    -0.1372066343    -0.2916612013
    4      C       0.4978270297    -0.8351952751     0.4644157913
    5      C      -1.9201960284    -0.8367574519    -0.0259460391
    6      H      -0.3536692334    -0.1314269200    -1.3590231861
    7      H       0.6822900335    -0.5647653339     1.4983409297
    8      H       0.6809868286    -1.8725839425     0.1987410323
    9      H      -2.1680215386    -0.8341145111     1.0383229002
   10      H      -2.7142321182    -0.3182464169    -0.5675592560
   11      H      -1.8764188275    -1.8732855455    -0.3777118234
 ----------------------------------------------------------------

   11   -5265.6714027866      4.06e-07  Convergence criterion met
 Total energy in the final basis set =    -5265.6714027866

                    Orbital Energies (a.u.)
 --------------------------------------------------------------

 Alpha MOs
 -- Occupied --
*******-482.831 -62.524 -62.488 -56.345 -56.341 -56.341 -56.310
-56.306 -56.306 -10.297 -10.287 -10.227  -8.711  -8.674  -6.541
 -6.528  -6.528  -6.503  -6.491  -6.491  -2.635  -2.631  -2.631
 -2.620  -2.620  -2.597  -2.593  -2.593  -2.584  -2.584  -0.868
 -0.765  -0.738  -0.708  -0.619  -0.515  -0.485  -0.457  -0.438
 -0.408  -0.375  -0.306  -0.293  -0.292  -0.263  -0.260

 Beta MOs
 -- Occupied --
*******-482.831 -62.524 -62.488 -56.345 -56.341 -56.341 -56.310
-56.306 -56.306 -10.297 -10.287 -10.227  -8.711  -8.674  -6.541
 -6.528  -6.528  -6.503  -6.491  -6.491  -2.635  -2.631  -2.631
 -2.620  -2.620  -2.597  -2.593  -2.593  -2.584  -2.584  -0.868
 -0.765  -0.738  -0.708  -0.619  -0.515  -0.485  -0.457  -0.438
 -0.408  -0.375  -0.306  -0.293  -0.292  -0.263  -0.260

          Ground-State Mulliken Net Atomic Charges

     Atom                 Charge (a.u.)    Spin (a.u.)
  --------------------------------------------------------
      1 Br                   -0.065108      -0.000000
      2 Br                   -0.296765       0.000000
      3 C                    -0.151031      -0.000000
      4 C                    -0.154893       0.000000
      5 C                    -0.329213       0.000000
      6 H                     0.192763      -0.000000
      7 H                     0.197020       0.000000
      8 H                     0.183799      -0.000000
      9 H                     0.140840      -0.000000
     10 H                     0.154786      -0.000000
     11 H                     0.127802      -0.000000
  --------------------------------------------------------
  Sum of atomic charges =     0.000000

                    Cartesian Multipole Moments
 -----------------------------------------------------------------
    Charge (ESU x 10^10)
                 0.0000
    Dipole Moment (Debye)
         X      -4.1358      Y      -2.8221      Z       0.6683
       Tot       5.0513
    Quadrupole Moments (Debye-Ang)
        XX     -65.1470     XY       1.7809     YY     -55.6808
        XZ       2.1368     YZ      -0.6297     ZZ     -55.3772

 Final energy is   -5265.67140278662
 **  OPTIMIZATION CONVERGED  **
 Total job time:  34.90s(wall), 402.59s(cpu)
        *  Thank you very much for using Q-Chem.  Have a nice day.  *
