 Q-Chem 5.1, Q-Chem, Inc., Pleasanton, CA (2018)
 Q-Chem 5.1.1 for Intel X86 EM64T Linux

User input:
--------------------------------------------------------------

$comment
potential surface scanner
$end

$rem
JOBTYPE  PES_SCAN
UNRESTRICTED TRUE
SYM_IGNORE  TRUE
GEOM_OPT_MAX_CYCLES 400
SCF_MAX_CYCLES 400
METHOD   B3LYP
BASIS   6-31G**
PDB_PRINT 2
SCF_CONVERGENCE 6
THRESH 14
SCF_PRINT 1
$end
$molecule
0 3
Br 1.957736 -0.299998 -0.758525
Br 1.007257 2.186107 0.434558
C -0.808154 -1.357930 0.015158
C 0.216368 -0.988048 0.869573
C -1.843658 -0.432732 -0.516370
H -0.840651 -2.390588 -0.330504
H 0.220442 -0.010755 1.333573
H 0.834080 -1.755721 1.323820
H -2.841991 -0.770592 -0.204927
H -1.691255 0.594880 -0.181777
H -1.845380 -0.453625 -1.613772
$end
$scan
stre 2 4 3.200000 3.201000 0.100000
$end
--------------------------------------------------------------

   13   -5265.6323486523      9.68e-07  Convergence criterion met
 Total energy in the final basis set =    -5265.6323486523
   13   -5265.6299015928      5.45e-07  Convergence criterion met
 Total energy in the final basis set =    -5265.6299015928
   13   -5265.6299821349      6.29e-07  Convergence criterion met
 Total energy in the final basis set =    -5265.6299821349
   13   -5265.6300191712      5.91e-07  Convergence criterion met
 Total energy in the final basis set =    -5265.6300191712
   13   -5265.6300261678      5.63e-07  Convergence criterion met
 Total energy in the final basis set =    -5265.6300261678
   13   -5265.6300301901      5.41e-07  Convergence criterion met
 Total energy in the final basis set =    -5265.6300301901
   13   -5265.6300312975      5.39e-07  Convergence criterion met
 Total energy in the final basis set =    -5265.6300312975

             Standard Nuclear Orientation (Angstroms)
    I     Atom           X                Y                Z
 ----------------------------------------------------------------
    1      Br      1.9842348281    -0.3459321580    -0.7469125007
    2      Br      0.9496702827     2.1122736644     0.3985316881
    3      C      -0.7962025837    -1.3370382078     0.0097111846
    4      C       0.2259031891    -0.9688691219     0.8704649435
    5      C      -1.8457113556    -0.4214492714    -0.5102903869
    6      H      -0.8135238053    -2.3646958530    -0.3517264760
    7      H       0.2228775430    -0.0024221232     1.3528476082
    8      H       0.8340555778    -1.7454082585     1.3233419647
    9      H      -2.8382513978    -0.7822888188    -0.2058870051
   10      H      -1.7127096561     0.6036142053    -0.1612573639
   11      H      -1.8455486221    -0.4267860572    -1.6080166565
 ----------------------------------------------------------------

   13   -5265.6300319598      5.41e-07  Convergence criterion met
 Total energy in the final basis set =    -5265.6300319598

                    Orbital Energies (a.u.)
 --------------------------------------------------------------

 Alpha MOs
 -- Occupied --
*******-482.831 -62.529 -62.489 -56.350 -56.348 -56.346 -56.311
-56.306 -56.306 -10.263 -10.252 -10.214  -8.716  -8.676  -6.543
 -6.538  -6.531  -6.508  -6.493  -6.493  -2.638  -2.637  -2.632
 -2.628  -2.627  -2.600  -2.596  -2.596  -2.585  -2.585  -0.846
 -0.782  -0.732  -0.726  -0.606  -0.514  -0.469  -0.453  -0.411
 -0.398  -0.375  -0.354  -0.307  -0.269  -0.266  -0.260  -0.252

 Beta MOs
 -- Occupied --
*******-482.829 -62.527 -62.488 -56.346 -56.345 -56.345 -56.307
-56.305 -56.305 -10.256 -10.251 -10.214  -8.712  -8.673  -6.537
 -6.533  -6.530  -6.500  -6.491  -6.491  -2.632  -2.632  -2.628
 -2.625  -2.625  -2.594  -2.592  -2.592  -2.584  -2.584  -0.831
 -0.754  -0.719  -0.700  -0.597  -0.510  -0.466  -0.440  -0.408
 -0.395  -0.341  -0.310  -0.295  -0.258  -0.256

          Ground-State Mulliken Net Atomic Charges

     Atom                 Charge (a.u.)    Spin (a.u.)
  --------------------------------------------------------
      1 Br                   -0.082265       0.779020
      2 Br                   -0.269303       0.690774
      3 C                     0.024536       0.515054
      4 C                    -0.250745       0.025229
      5 C                    -0.363874      -0.035535
      6 H                     0.131719      -0.023000
      7 H                     0.192421      -0.001807
      8 H                     0.161896       0.000264
      9 H                     0.139839       0.024107
     10 H                     0.163856      -0.000020
     11 H                     0.151921       0.025915
  --------------------------------------------------------
  Sum of atomic charges =    -0.000000

                    Cartesian Multipole Moments
 -----------------------------------------------------------------
    Charge (ESU x 10^10)
                -0.0000
    Dipole Moment (Debye)
         X      -3.3045      Y      -4.1113      Z       0.4244
       Tot       5.2917
    Quadrupole Moments (Debye-Ang)
        XX     -57.0111     XY      -1.7151     YY     -58.5189
        XZ       1.1068     YZ      -1.0486     ZZ     -55.9288

 Final energy is   -5265.63003195977
 **  OPTIMIZATION CONVERGED  **
 Total job time:  50.44s(wall), 587.71s(cpu)
        *  Thank you very much for using Q-Chem.  Have a nice day.  *
