 Q-Chem 5.1, Q-Chem, Inc., Pleasanton, CA (2018)
 Q-Chem 5.1.1 for Intel X86 EM64T Linux

User input:
--------------------------------------------------------------

$comment
potential surface scanner
$end

$rem
JOBTYPE  PES_SCAN
UNRESTRICTED TRUE
SYM_IGNORE  TRUE
GEOM_OPT_MAX_CYCLES 400
SCF_MAX_CYCLES 400
METHOD   B3LYP
BASIS   6-31G**
PDB_PRINT 2
SCF_CONVERGENCE 6
THRESH 14
SCF_PRINT 1
$end
$molecule
0 1
Br -0.621000 1.744900 0.138600
Br 2.339300 0.022500 -0.135100
C -0.519000 -0.151000 -0.364100
C 0.644500 -0.814800 0.353000
C -1.843800 -0.801500 0.007700
H -0.380000 -0.157800 -1.450100
H 0.570800 -0.733000 1.441800
H 0.738000 -1.869500 0.078300
H -2.034600 -0.746700 1.085500
H -2.681600 -0.314200 -0.503400
H -1.847800 -1.857900 -0.281400
$end
$scan
stre 2 4 1.300000 1.301000 0.100000
$end
--------------------------------------------------------------

    9   -5265.7112865010      6.36e-07  Convergence criterion met
 Total energy in the final basis set =    -5265.7112865010
   10   -5265.7007251862      3.44e-07  Convergence criterion met
 Total energy in the final basis set =    -5265.7007251862
   10   -5265.6662322229      3.17e-07  Convergence criterion met
 Total energy in the final basis set =    -5265.6662322229
   10   -5265.6026243111      3.26e-07  Convergence criterion met
 Total energy in the final basis set =    -5265.6026243111
   10   -5265.5003292695      3.66e-07  Convergence criterion met
 Total energy in the final basis set =    -5265.5003292695
   10   -5265.3280924496      4.45e-07  Convergence criterion met
 Total energy in the final basis set =    -5265.3280924496
   10   -5265.2949883417      4.65e-07  Convergence criterion met
 Total energy in the final basis set =    -5265.2949883417
   10   -5265.2917719363      4.70e-07  Convergence criterion met
   10   -5265.2922939326      4.90e-07  Convergence criterion met
 Total energy in the final basis set =    -5265.2922939326
   10   -5265.2923164884      4.95e-07  Convergence criterion met
 Total energy in the final basis set =    -5265.2923164884
   10   -5265.2923264675      4.98e-07  Convergence criterion met
 Total energy in the final basis set =    -5265.2923264675
   10   -5265.2923309417      4.98e-07  Convergence criterion met
 Total energy in the final basis set =    -5265.2923309417
   10   -5265.2923350851      4.99e-07  Convergence criterion met
 Total energy in the final basis set =    -5265.2923350851
   10   -5265.2923384837      4.99e-07  Convergence criterion met
 Total energy in the final basis set =    -5265.2923384837

             Standard Nuclear Orientation (Angstroms)
    I     Atom           X                Y                Z
 ----------------------------------------------------------------
    1      Br     -0.6504186152     1.8446246254     0.0891681465
    2      Br      2.0231935124    -0.2635998189    -0.0023837070
    3      C      -0.5015741790    -0.0981022952    -0.3757655113
    4      C       0.8374245061    -0.7085092287     0.2908871349
    5      C      -1.7687329996    -0.8256358989     0.0285421181
    6      H      -0.3635002824    -0.0812791501    -1.4608611020
    7      H       0.4850326849    -0.7089448902     1.3576582289
    8      H       0.5683859742    -1.7797893665     0.0624466646
    9      H      -1.9186452956    -0.7902555565     1.1114803024
   10      H      -2.6466947727    -0.3905091549    -0.4528409996
   11      H      -1.6996705331    -1.8769992655    -0.2775312755
 ----------------------------------------------------------------

   10   -5265.2923400148      5.00e-07  Convergence criterion met
 Total energy in the final basis set =    -5265.2923400148

                    Orbital Energies (a.u.)
 --------------------------------------------------------------

 Alpha MOs
 -- Occupied --
*******-482.846 -62.537 -62.504 -56.355 -56.354 -56.354 -56.325
-56.322 -56.322 -10.256 -10.245 -10.200  -8.739  -8.691  -6.572
 -6.555  -6.555  -6.521  -6.509  -6.509  -2.673  -2.661  -2.660
 -2.647  -2.647  -2.614  -2.611  -2.611  -2.601  -2.601  -1.013
 -0.819  -0.737  -0.656  -0.598  -0.529  -0.491  -0.477  -0.443
 -0.409  -0.390  -0.354  -0.283  -0.276  -0.250  -0.250

 Beta MOs
 -- Occupied --
*******-482.846 -62.537 -62.504 -56.355 -56.354 -56.354 -56.325
-56.322 -56.322 -10.256 -10.245 -10.200  -8.739  -8.691  -6.572
 -6.555  -6.555  -6.521  -6.509  -6.509  -2.673  -2.661  -2.660
 -2.647  -2.647  -2.614  -2.611  -2.611  -2.601  -2.601  -1.013
 -0.819  -0.737  -0.656  -0.598  -0.529  -0.491  -0.477  -0.443
 -0.409  -0.390  -0.354  -0.283  -0.276  -0.250  -0.250

          Ground-State Mulliken Net Atomic Charges

     Atom                 Charge (a.u.)    Spin (a.u.)
  --------------------------------------------------------
      1 Br                   -0.133597      -0.000000
      2 Br                    0.118663       0.000000
      3 C                    -0.181303       0.000000
      4 C                    -0.208337      -0.000000
      5 C                    -0.319179       0.000000
      6 H                     0.147433      -0.000000
      7 H                     0.102157       0.000000
      8 H                     0.088979       0.000000
      9 H                     0.132280      -0.000000
     10 H                     0.136878      -0.000000
     11 H                     0.116026      -0.000000
  --------------------------------------------------------
  Sum of atomic charges =    -0.000000

                    Cartesian Multipole Moments
 -----------------------------------------------------------------
    Charge (ESU x 10^10)
                 0.0000
    Dipole Moment (Debye)
         X      -0.6322      Y      -2.6654      Z      -0.1384
       Tot       2.7429
    Quadrupole Moments (Debye-Ang)
        XX     -56.8946     XY       1.2936     YY     -57.3795
        XZ       0.6513     YZ       0.0026     ZZ     -55.2062

 Final energy is   -5265.29234001478
 **  OPTIMIZATION CONVERGED  **
 Total job time:  92.20s(wall), 1073.23s(cpu)
        *  Thank you very much for using Q-Chem.  Have a nice day.  *
