 Q-Chem 5.1, Q-Chem, Inc., Pleasanton, CA (2018)
 Q-Chem 5.1.1 for Intel X86 EM64T Linux

User input:
--------------------------------------------------------------

$comment
potential surface scanner
$end

$rem
JOBTYPE  PES_SCAN
UNRESTRICTED TRUE
SYM_IGNORE  TRUE
GEOM_OPT_MAX_CYCLES 400
SCF_MAX_CYCLES 400
METHOD   B3LYP
BASIS   6-31G**
PDB_PRINT 2
SCF_CONVERGENCE 6
THRESH 14
SCF_PRINT 1
$end
$molecule
0 3
Br 1.942132 -0.267055 -0.730228
Br 1.142832 2.367946 0.258408
C -0.810526 -1.377290 0.010107
C 0.176808 -1.038291 0.909830
C -1.850527 -0.443803 -0.497739
H -0.815264 -2.390811 -0.389381
H 0.163792 -0.073147 1.403239
H 0.815110 -1.804229 1.336026
H -2.849543 -0.823296 -0.242207
H -1.735038 0.563742 -0.093903
H -1.814979 -0.392769 -1.593344
$end
$scan
stre 2 4 3.500000 3.501000 0.100000
$end
--------------------------------------------------------------

   14   -5265.6358869177      5.47e-07  Convergence criterion met
 Total energy in the final basis set =    -5265.6358869177
   14   -5265.6350127749      5.45e-07  Convergence criterion met
 Total energy in the final basis set =    -5265.6350127749
   14   -5265.6350291049      5.40e-07  Convergence criterion met
 Total energy in the final basis set =    -5265.6350291049
   14   -5265.6350481058      5.29e-07  Convergence criterion met
 Total energy in the final basis set =    -5265.6350481058
   14   -5265.6350527348      5.30e-07  Convergence criterion met
 Total energy in the final basis set =    -5265.6350527348
   14   -5265.6350543886      5.29e-07  Convergence criterion met
 Total energy in the final basis set =    -5265.6350543886
   14   -5265.6350556866      5.27e-07  Convergence criterion met
 Total energy in the final basis set =    -5265.6350556866

             Standard Nuclear Orientation (Angstroms)
    I     Atom           X                Y                Z
 ----------------------------------------------------------------
    1      Br      1.9615724095    -0.2954427099    -0.7214992649
    2      Br      1.0402703292     2.2975395378     0.2394717563
    3      C      -0.8029194446    -1.3645288056     0.0095932892
    4      C       0.1900352347    -1.0312105525     0.9076958558
    5      C      -1.8412543474    -0.4277120961    -0.4949375582
    6      H      -0.8105335001    -2.3769209683    -0.3927298115
    7      H       0.1808402752    -0.0711483699     1.4093259246
    8      H       0.8172764742    -1.8063844383     1.3341886487
    9      H      -2.8405649978    -0.8054409842    -0.2375416530
   10      H      -1.7217385113     0.5795147504    -0.0919791104
   11      H      -1.8081869217    -0.3772683634    -1.5907800766
 ----------------------------------------------------------------

   14   -5265.6350560379      5.26e-07  Convergence criterion met
 Total energy in the final basis set =    -5265.6350560379

                    Orbital Energies (a.u.)
 --------------------------------------------------------------

 Alpha MOs
 -- Occupied --
*******-482.830 -62.529 -62.488 -56.350 -56.349 -56.346 -56.310
-56.305 -56.305 -10.264 -10.254 -10.215  -8.716  -8.675  -6.544
 -6.539  -6.532  -6.507  -6.492  -6.491  -2.638  -2.638  -2.633
 -2.629  -2.628  -2.599  -2.595  -2.595  -2.584  -2.584  -0.847
 -0.781  -0.732  -0.726  -0.607  -0.516  -0.469  -0.454  -0.412
 -0.398  -0.373  -0.354  -0.307  -0.272  -0.264  -0.261  -0.252

 Beta MOs
 -- Occupied --
*******-482.828 -62.528 -62.487 -56.347 -56.346 -56.345 -56.306
-56.304 -56.304 -10.258 -10.253 -10.216  -8.713  -8.672  -6.537
 -6.534  -6.530  -6.499  -6.490  -6.490  -2.633  -2.632  -2.629
 -2.626  -2.625  -2.593  -2.591  -2.590  -2.583  -2.583  -0.833
 -0.752  -0.721  -0.697  -0.600  -0.512  -0.466  -0.442  -0.409
 -0.396  -0.337  -0.310  -0.295  -0.258  -0.253

          Ground-State Mulliken Net Atomic Charges

     Atom                 Charge (a.u.)    Spin (a.u.)
  --------------------------------------------------------
      1 Br                   -0.085358       0.805205
      2 Br                   -0.267193       0.704719
      3 C                     0.022852       0.467456
      4 C                    -0.247530       0.030568
      5 C                    -0.363645      -0.031965
      6 H                     0.133130      -0.020884
      7 H                     0.188063      -0.000321
      8 H                     0.162551      -0.000437
      9 H                     0.140148       0.021916
     10 H                     0.162358       0.000002
     11 H                     0.154625       0.023742
  --------------------------------------------------------
  Sum of atomic charges =    -0.000000

                    Cartesian Multipole Moments
 -----------------------------------------------------------------
    Charge (ESU x 10^10)
                -0.0000
    Dipole Moment (Debye)
         X      -3.4117      Y      -4.3870      Z       0.5797
       Tot       5.5877
    Quadrupole Moments (Debye-Ang)
        XX     -57.1742     XY      -2.1445     YY     -59.0311
        XZ       1.3034     YZ      -0.7462     ZZ     -55.8157

 Final energy is   -5265.63505603789
 **  OPTIMIZATION CONVERGED  **
 Total job time:  52.63s(wall), 613.12s(cpu)
        *  Thank you very much for using Q-Chem.  Have a nice day.  *
