 Q-Chem 5.1, Q-Chem, Inc., Pleasanton, CA (2018)
 Q-Chem 5.1.1 for Intel X86 EM64T Linux

User input:
--------------------------------------------------------------

$comment
potential surface scanner
$end

$rem
JOBTYPE  PES_SCAN
UNRESTRICTED TRUE
SYM_IGNORE  TRUE
GEOM_OPT_MAX_CYCLES 400
SCF_MAX_CYCLES 400
METHOD   B3LYP
BASIS   6-31G**
PDB_PRINT 2
SCF_CONVERGENCE 6
THRESH 14
SCF_PRINT 1
$end
$molecule
0 3
Br 1.927354 -0.219178 -0.695315
Br 1.197728 2.496754 0.177811
C -0.820781 -1.399385 0.012054
C 0.159408 -1.081638 0.924139
C -1.847585 -0.448929 -0.492161
H -0.830540 -2.406773 -0.402403
H 0.153406 -0.118465 1.424600
H 0.804791 -1.849926 1.334434
H -2.853022 -0.821664 -0.252986
H -1.726904 0.551887 -0.072996
H -1.799060 -0.381685 -1.586369
$end
$scan
stre 2 4 3.700000 3.701000 0.100000
$end
--------------------------------------------------------------

   14   -5265.6360029440      5.64e-07  Convergence criterion met
 Total energy in the final basis set =    -5265.6360029440
   14   -5265.6361061389      5.63e-07  Convergence criterion met
 Total energy in the final basis set =    -5265.6361061389
   14   -5265.6361357563      5.67e-07  Convergence criterion met
 Total energy in the final basis set =    -5265.6361357563
   14   -5265.6361576049      5.72e-07  Convergence criterion met
 Total energy in the final basis set =    -5265.6361576049
   14   -5265.6361623562      5.74e-07  Convergence criterion met
 Total energy in the final basis set =    -5265.6361623562

             Standard Nuclear Orientation (Angstroms)
    I     Atom           X                Y                Z
 ----------------------------------------------------------------
    1      Br      1.9324708263    -0.2368619409    -0.7222367259
    2      Br      1.1998818927     2.4379829331     0.2582446331
    3      C      -0.8189572373    -1.3914537614     0.0114597080
    4      C       0.1673378877    -1.0544638555     0.9114434654
    5      C      -1.8538442904    -0.4533104343    -0.4989184966
    6      H      -0.8293941698    -2.4061944563    -0.3847281050
    7      H       0.1628885667    -0.0817699428     1.3934103679
    8      H       0.8104147142    -1.8170418517     1.3361005383
    9      H      -2.8551823514    -0.8263541474    -0.2431847468
   10      H      -1.7332217650     0.5542225285    -0.0962480915
   11      H      -1.8175990738    -0.4037570714    -1.5945345469
 ----------------------------------------------------------------

   14   -5265.6361649997      5.74e-07  Convergence criterion met
 Total energy in the final basis set =    -5265.6361649997

                    Orbital Energies (a.u.)
 --------------------------------------------------------------

 Alpha MOs
 -- Occupied --
*******-482.831 -62.529 -62.488 -56.350 -56.348 -56.346 -56.311
-56.306 -56.306 -10.265 -10.255 -10.217  -8.716  -8.675  -6.544
 -6.538  -6.532  -6.507  -6.492  -6.492  -2.638  -2.638  -2.633
 -2.628  -2.628  -2.599  -2.596  -2.595  -2.584  -2.584  -0.847
 -0.780  -0.732  -0.726  -0.608  -0.517  -0.470  -0.455  -0.413
 -0.399  -0.372  -0.352  -0.306  -0.273  -0.263  -0.261  -0.254

 Beta MOs
 -- Occupied --
*******-482.829 -62.528 -62.487 -56.347 -56.346 -56.345 -56.307
-56.305 -56.305 -10.259 -10.253 -10.217  -8.712  -8.672  -6.537
 -6.533  -6.530  -6.499  -6.491  -6.490  -2.632  -2.632  -2.629
 -2.625  -2.625  -2.593  -2.591  -2.591  -2.583  -2.583  -0.834
 -0.750  -0.722  -0.696  -0.601  -0.514  -0.467  -0.444  -0.411
 -0.397  -0.335  -0.308  -0.294  -0.258  -0.252

          Ground-State Mulliken Net Atomic Charges

     Atom                 Charge (a.u.)    Spin (a.u.)
  --------------------------------------------------------
      1 Br                   -0.090413       0.811672
      2 Br                   -0.259057       0.717212
      3 C                     0.023017       0.450918
      4 C                    -0.248687       0.027425
      5 C                    -0.364571      -0.030619
      6 H                     0.133429      -0.020173
      7 H                     0.187107       0.000804
      8 H                     0.162599      -0.000730
      9 H                     0.141170       0.020717
     10 H                     0.160056       0.000135
     11 H                     0.155350       0.022639
  --------------------------------------------------------
  Sum of atomic charges =     0.000000

                    Cartesian Multipole Moments
 -----------------------------------------------------------------
    Charge (ESU x 10^10)
                 0.0000
    Dipole Moment (Debye)
         X      -3.6005      Y      -4.5338      Z       0.5450
       Tot       5.8152
    Quadrupole Moments (Debye-Ang)
        XX     -57.5534     XY      -2.5663     YY     -59.3483
        XZ       1.2993     YZ      -0.7639     ZZ     -55.8890

 Final energy is   -5265.63616499974
 **  OPTIMIZATION CONVERGED  **
 Total job time:  39.08s(wall), 454.23s(cpu)
        *  Thank you very much for using Q-Chem.  Have a nice day.  *
