 Q-Chem 5.1, Q-Chem, Inc., Pleasanton, CA (2018)
 Q-Chem 5.1.1 for Intel X86 EM64T Linux

User input:
--------------------------------------------------------------

$comment
potential surface scanner
$end

$rem
JOBTYPE  PES_SCAN
UNRESTRICTED TRUE
SYM_IGNORE  TRUE
GEOM_OPT_MAX_CYCLES 400
SCF_MAX_CYCLES 400
METHOD   B3LYP
BASIS   6-31G**
PDB_PRINT 2
SCF_CONVERGENCE 6
THRESH 14
SCF_PRINT 1
$end
$molecule
0 3
Br 1.354191 0.109471 -2.593906
Br 1.827120 0.700810 0.206187
C -0.669219 -1.154993 0.272170
C -0.140291 -0.677195 1.439232
C -1.754224 -0.508982 -0.506663
H -0.226426 -2.052074 -0.157633
H -0.560264 0.194353 1.931395
H 0.607047 -1.240839 1.984967
H -2.505917 -1.248570 -0.807192
H -2.239648 0.302416 0.040862
H -1.327578 -0.103397 -1.438609
$end
$scan
stre 2 4 2.600000 2.601000 0.100000
$end
--------------------------------------------------------------

   14   -5265.6355248441      6.69e-07  Convergence criterion met
 Total energy in the final basis set =    -5265.6355248441
   14   -5265.6353775313      4.60e-07  Convergence criterion met
 Total energy in the final basis set =    -5265.6353775313
   14   -5265.6355225114      4.70e-07  Convergence criterion met
 Total energy in the final basis set =    -5265.6355225114
   14   -5265.6356183288      4.92e-07  Convergence criterion met
 Total energy in the final basis set =    -5265.6356183288
   14   -5265.6356596379      5.09e-07  Convergence criterion met
 Total energy in the final basis set =    -5265.6356596379
   14   -5265.6356860808      5.23e-07  Convergence criterion met
 Total energy in the final basis set =    -5265.6356860808
   14   -5265.6356965073      5.27e-07  Convergence criterion met
 Total energy in the final basis set =    -5265.6356965073
   14   -5265.6357028787      5.28e-07  Convergence criterion met
   14   -5265.6357053666      5.27e-07  Convergence criterion met
 Total energy in the final basis set =    -5265.6357053666
   14   -5265.6357071513      5.27e-07  Convergence criterion met
 Total energy in the final basis set =    -5265.6357071513
   14   -5265.6357087505      5.28e-07  Convergence criterion met
 Total energy in the final basis set =    -5265.6357087505
   14   -5265.6357104444      5.29e-07  Convergence criterion met
 Total energy in the final basis set =    -5265.6357104444
   14   -5265.6357119074      5.30e-07  Convergence criterion met
 Total energy in the final basis set =    -5265.6357119074
   14   -5265.6357130035      5.30e-07  Convergence criterion met
 Total energy in the final basis set =    -5265.6357130035

             Standard Nuclear Orientation (Angstroms)
    I     Atom           X                Y                Z
 ----------------------------------------------------------------
    1      Br      1.3597016185     0.0795054969    -2.5537711074
    2      Br      1.8128394992     0.6917753481     0.2704106264
    3      C      -0.6713710686    -1.1558244146     0.2586902083
    4      C      -0.1041219519    -0.6512441553     1.4024705563
    5      C      -1.7680671697    -0.5128467886    -0.5060677105
    6      H      -0.2395514379    -2.0599752125    -0.1668862509
    7      H      -0.5300328981     0.2141619395     1.8999691017
    8      H       0.6259459838    -1.2276611486     1.9585002827
    9      H      -2.5088933482    -1.2569352283    -0.8206178056
   10      H      -2.2641200360     0.2814990702     0.0569085375
   11      H      -1.3475381911    -0.0814549069    -1.4287964385
 ----------------------------------------------------------------

   14   -5265.6357136742      5.29e-07  Convergence criterion met
 Total energy in the final basis set =    -5265.6357136742

                    Orbital Energies (a.u.)
 --------------------------------------------------------------

 Alpha MOs
 -- Occupied --
*******-482.832 -62.529 -62.490 -56.350 -56.348 -56.346 -56.312
-56.307 -56.307 -10.263 -10.255 -10.214  -8.716  -8.677  -6.544
 -6.538  -6.531  -6.508  -6.494  -6.493  -2.638  -2.637  -2.632
 -2.628  -2.627  -2.601  -2.597  -2.596  -2.586  -2.586  -0.846
 -0.779  -0.735  -0.725  -0.607  -0.516  -0.471  -0.451  -0.412
 -0.397  -0.368  -0.355  -0.305  -0.277  -0.265  -0.261  -0.253

 Beta MOs
 -- Occupied --
*******-482.830 -62.527 -62.489 -56.346 -56.345 -56.344 -56.308
-56.306 -56.306 -10.257 -10.253 -10.214  -8.712  -8.674  -6.537
 -6.533  -6.529  -6.500  -6.492  -6.492  -2.632  -2.632  -2.628
 -2.625  -2.624  -2.595  -2.593  -2.592  -2.585  -2.585  -0.833
 -0.747  -0.724  -0.696  -0.600  -0.513  -0.468  -0.440  -0.410
 -0.395  -0.331  -0.310  -0.292  -0.259  -0.253

          Ground-State Mulliken Net Atomic Charges

     Atom                 Charge (a.u.)    Spin (a.u.)
  --------------------------------------------------------
      1 Br                   -0.254236       0.719018
      2 Br                   -0.095578       0.833072
      3 C                     0.031983       0.403895
      4 C                    -0.242980       0.048654
      5 C                    -0.366734      -0.024614
      6 H                     0.149249      -0.017799
      7 H                     0.156544      -0.002229
      8 H                     0.165784      -0.001022
      9 H                     0.138665       0.013217
     10 H                     0.127874       0.001518
     11 H                     0.189429       0.026291
  --------------------------------------------------------
  Sum of atomic charges =    -0.000000

                    Cartesian Multipole Moments
 -----------------------------------------------------------------
    Charge (ESU x 10^10)
                 0.0000
    Dipole Moment (Debye)
         X      -3.6837      Y      -1.9097      Z       3.5648
       Tot       5.4703
    Quadrupole Moments (Debye-Ang)
        XX     -58.6199     XY       0.0777     YY     -55.0693
        XZ       4.8907     YZ       0.2619     ZZ     -60.3780

 Final energy is   -5265.63571367418
 **  OPTIMIZATION CONVERGED  **
 Total job time:  95.94s(wall), 1122.80s(cpu)
        *  Thank you very much for using Q-Chem.  Have a nice day.  *
