 Q-Chem 5.1, Q-Chem, Inc., Pleasanton, CA (2018)
 Q-Chem 5.1.1 for Intel X86 EM64T Linux

User input:
--------------------------------------------------------------

$comment
potential surface scanner
$end

$rem
JOBTYPE  PES_SCAN
UNRESTRICTED TRUE
SYM_IGNORE  TRUE
GEOM_OPT_MAX_CYCLES 400
SCF_MAX_CYCLES 400
METHOD   B3LYP
BASIS   6-31G**
PDB_PRINT 2
SCF_CONVERGENCE 6
THRESH 14
SCF_PRINT 1
$end
$molecule
0 3
Br -0.710365 1.760879 0.252360
Br 2.871844 -0.008328 -0.448122
C -0.579837 -0.137960 -0.277191
C 0.478761 -0.844401 0.481468
C -1.931386 -0.841931 -0.037441
H -0.347475 -0.124110 -1.341923
H 0.681724 -0.574013 1.511738
H 0.694680 -1.869402 0.193854
H -2.198372 -0.843656 1.021956
H -2.714059 -0.319699 -0.591852
H -1.880717 -1.876379 -0.394048
$end
$scan
stre 2 4 5.700000 5.701000 0.100000
$end
--------------------------------------------------------------

   18   -5265.5888596798      6.19e-07  Convergence criterion met
 Total energy in the final basis set =    -5265.5888596798
   35   -5265.5947865605      3.49e-07  Convergence criterion met
 Total energy in the final basis set =    -5265.5947865605
   37   -5265.5985223143      7.62e-07  Convergence criterion met
 Total energy in the final basis set =    -5265.5985223143
   28   -5265.5983049104      5.47e-07  Convergence criterion met
 Total energy in the final basis set =    -5265.5983049104
   25   -5265.6001231242      8.80e-07  Convergence criterion met
 Total energy in the final basis set =    -5265.6001231242
   34   -5265.6015040583      8.76e-07  Convergence criterion met
 Total energy in the final basis set =    -5265.6015040583
   65   -5265.6023859505      6.08e-07  Convergence criterion met
 Total energy in the final basis set =    -5265.6023859505
   72   -5265.6030204343      1.86e-07  Convergence criterion met
   34   -5265.6121055406      6.70e-07  Convergence criterion met
 Total energy in the final basis set =    -5265.6121055406
   37   -5265.6121095851      1.79e-07  Convergence criterion met
 Total energy in the final basis set =    -5265.6121095851
   39   -5265.6121146492      3.63e-07  Convergence criterion met
 Total energy in the final basis set =    -5265.6121146492
   39   -5265.6121202573      3.84e-07  Convergence criterion met
 Total energy in the final basis set =    -5265.6121202573
   36   -5265.6121248951      3.50e-07  Convergence criterion met
 Total energy in the final basis set =    -5265.6121248951
   39   -5265.6121273948      1.43e-07  Convergence criterion met
 Total energy in the final basis set =    -5265.6121273948

             Standard Nuclear Orientation (Angstroms)
    I     Atom           X                Y                Z
 ----------------------------------------------------------------
    1      Br     -0.6980834564     1.7316603599     0.0163173690
    2      Br      5.6207750987     0.2334835849    -0.7507082180
    3      C      -0.9052178660    -0.4560123802    -0.2970394317
    4      C       0.1841752621    -0.9934932377     0.4442442972
    5      C      -2.3158585809    -0.7998390796     0.1252436741
    6      H      -0.7570265250    -0.4307757841    -1.3742546625
    7      H       0.0602077799    -1.2605357433     1.4890068224
    8      H       1.1874990381    -0.9980661361     0.0339394201
    9      H      -2.4463619534    -0.6882615784     1.2045971875
   10      H      -3.0487596785    -0.1710824482    -0.3820949859
   11      H      -2.5165511187    -1.8460775572    -0.1384524722
 ----------------------------------------------------------------

   37   -5265.6121281438      6.86e-07  Convergence criterion met
 Total energy in the final basis set =    -5265.6121281438

                    Orbital Energies (a.u.)
 --------------------------------------------------------------

 Alpha MOs
 -- Occupied --
*******-482.831 -62.558 -62.489 -56.383 -56.375 -56.375 -56.311
-56.307 -56.307 -10.259 -10.226 -10.201  -8.745  -8.676  -6.582
 -6.560  -6.560  -6.507  -6.494  -6.494  -2.673  -2.668  -2.667
 -2.651  -2.651  -2.600  -2.597  -2.596  -2.587  -2.587  -0.831
 -0.798  -0.731  -0.712  -0.592  -0.494  -0.449  -0.441  -0.392
 -0.383  -0.373  -0.354  -0.324  -0.324  -0.273  -0.268  -0.229

 Beta MOs
 -- Occupied --
*******-482.830 -62.557 -62.489 -56.377 -56.374 -56.374 -56.309
-56.307 -56.306 -10.260 -10.215 -10.201  -8.742  -8.675  -6.571
 -6.558  -6.558  -6.503  -6.493  -6.493  -2.665  -2.661  -2.661
 -2.650  -2.650  -2.597  -2.594  -2.594  -2.586  -2.586  -0.822
 -0.754  -0.719  -0.696  -0.585  -0.489  -0.445  -0.437  -0.389
 -0.381  -0.331  -0.310  -0.309  -0.266  -0.263

          Ground-State Mulliken Net Atomic Charges

     Atom                 Charge (a.u.)    Spin (a.u.)
  --------------------------------------------------------
      1 Br                   -0.214914       0.334176
      2 Br                   -0.000271       0.999644
      3 C                    -0.120008      -0.102521
      4 C                    -0.162056       0.832017
      5 C                    -0.316464       0.006386
      6 H                     0.159201       0.006897
      7 H                     0.128528      -0.036516
      8 H                     0.129416      -0.036959
      9 H                     0.133032      -0.001168
     10 H                     0.139697       0.001362
     11 H                     0.123839      -0.003318
  --------------------------------------------------------
  Sum of atomic charges =     0.000000

                    Cartesian Multipole Moments
 -----------------------------------------------------------------
    Charge (ESU x 10^10)
                -0.0000
    Dipole Moment (Debye)
         X      -0.2794      Y      -3.1422      Z      -0.1517
       Tot       3.1583
    Quadrupole Moments (Debye-Ang)
        XX     -53.0835     XY       3.5418     YY     -59.2759
        XZ      -0.0149     YZ      -0.5863     ZZ     -56.0511

 Final energy is   -5265.61212814383
 **  OPTIMIZATION CONVERGED  **
 Total job time:  671.26s(wall), 7881.38s(cpu)
        *  Thank you very much for using Q-Chem.  Have a nice day.  *
