 Q-Chem 5.1, Q-Chem, Inc., Pleasanton, CA (2018)
 Q-Chem 5.1.1 for Intel X86 EM64T Linux

User input:
--------------------------------------------------------------

$comment
potential surface scanner
$end

$rem
JOBTYPE  PES_SCAN
UNRESTRICTED TRUE
SYM_IGNORE  TRUE
GEOM_OPT_MAX_CYCLES 400
SCF_MAX_CYCLES 400
METHOD   B3LYP
BASIS   6-31G**
PDB_PRINT 2
SCF_CONVERGENCE 6
THRESH 14
SCF_PRINT 1
$end
$molecule
0 1
Br -0.688369 1.784033 0.190682
Br 2.615289 -0.090178 -0.325296
C -0.553540 -0.128656 -0.318342
C 0.561034 -0.809456 0.418124
C -1.882231 -0.832852 -0.016459
H -0.358736 -0.113593 -1.390239
H 0.645929 -0.590229 1.478049
H 0.663445 -1.865462 0.178042
H -2.099347 -0.831379 1.054953
H -2.701315 -0.329892 -0.534639
H -1.837358 -1.871335 -0.364077
$end
$scan
stre 2 4 2.400000 2.401000 0.100000
$end
--------------------------------------------------------------

   11   -5265.6965214784      9.72e-08  Convergence criterion met
 Total energy in the final basis set =    -5265.6965214784
   11   -5265.6880721867      1.63e-07  Convergence criterion met
 Total energy in the final basis set =    -5265.6880721867
   11   -5265.6880302956      1.68e-07  Convergence criterion met
 Total energy in the final basis set =    -5265.6880302956
   11   -5265.6881488546      1.75e-07  Convergence criterion met
 Total energy in the final basis set =    -5265.6881488546
   11   -5265.6881522481      1.76e-07  Convergence criterion met
 Total energy in the final basis set =    -5265.6881522481
   11   -5265.6881555660      1.76e-07  Convergence criterion met
 Total energy in the final basis set =    -5265.6881555660
   11   -5265.6881586719      1.76e-07  Convergence criterion met
 Total energy in the final basis set =    -5265.6881586719
   11   -5265.6881628468      1.75e-07  Convergence criterion met
 Total energy in the final basis set =    -5265.6881628468
   11   -5265.6881651141      1.75e-07  Convergence criterion met
 Total energy in the final basis set =    -5265.6881651141

             Standard Nuclear Orientation (Angstroms)
    I     Atom           X                Y                Z
 ----------------------------------------------------------------
    1      Br     -0.6977139007     1.7773866097     0.2222050683
    2      Br      2.6644441007    -0.0932357283    -0.4058580918
    3      C      -0.5592565479    -0.1295534935    -0.2981012805
    4      C       0.5407267755    -0.8150681992     0.4478290625
    5      C      -1.8952815911    -0.8366870068    -0.0285158688
    6      H      -0.3462746624    -0.1102910722    -1.3664440953
    7      H       0.6783210900    -0.5595728426     1.4935111365
    8      H       0.6609074860    -1.8703566636     0.2159800146
    9      H      -2.1371589068    -0.8436602355     1.0373273707
   10      H      -2.7002389308    -0.3264538768    -0.5617486007
   11      H      -1.8436739123    -1.8715064910    -0.3853867157
 ----------------------------------------------------------------

   11   -5265.6881656855      1.75e-07  Convergence criterion met
 Total energy in the final basis set =    -5265.6881656855

                    Orbital Energies (a.u.)
 --------------------------------------------------------------

 Alpha MOs
 -- Occupied --
*******-482.840 -62.520 -62.498 -56.341 -56.337 -56.337 -56.319
-56.315 -56.315 -10.288 -10.281 -10.221  -8.707  -8.683  -6.537
 -6.524  -6.524  -6.513  -6.501  -6.501  -2.630  -2.627  -2.626
 -2.616  -2.616  -2.606  -2.603  -2.603  -2.593  -2.593  -0.862
 -0.763  -0.744  -0.706  -0.614  -0.508  -0.478  -0.452  -0.434
 -0.402  -0.369  -0.324  -0.291  -0.289  -0.271  -0.267

 Beta MOs
 -- Occupied --
*******-482.840 -62.520 -62.498 -56.341 -56.337 -56.337 -56.319
-56.315 -56.315 -10.288 -10.281 -10.221  -8.707  -8.683  -6.537
 -6.524  -6.524  -6.513  -6.501  -6.501  -2.630  -2.627  -2.626
 -2.616  -2.616  -2.606  -2.603  -2.603  -2.593  -2.593  -0.862
 -0.763  -0.744  -0.706  -0.614  -0.508  -0.478  -0.452  -0.434
 -0.402  -0.369  -0.324  -0.291  -0.289  -0.271  -0.267

          Ground-State Mulliken Net Atomic Charges

     Atom                 Charge (a.u.)    Spin (a.u.)
  --------------------------------------------------------
      1 Br                   -0.077083       0.000000
      2 Br                   -0.230278       0.000000
      3 C                    -0.141831      -0.000000
      4 C                    -0.190941       0.000000
      5 C                    -0.326995      -0.000000
      6 H                     0.185863      -0.000000
      7 H                     0.190986       0.000000
      8 H                     0.177051      -0.000000
      9 H                     0.137932      -0.000000
     10 H                     0.150646      -0.000000
     11 H                     0.124649       0.000000
  --------------------------------------------------------
  Sum of atomic charges =    -0.000000

                    Cartesian Multipole Moments
 -----------------------------------------------------------------
    Charge (ESU x 10^10)
                -0.0000
    Dipole Moment (Debye)
         X      -3.3063      Y      -2.7077      Z       0.4981
       Tot       4.3025
    Quadrupole Moments (Debye-Ang)
        XX     -62.8543     XY       1.9354     YY     -56.1074
        XZ       1.6897     YZ      -0.6365     ZZ     -55.3743

 Final energy is   -5265.68816568552
 **  OPTIMIZATION CONVERGED  **
 Total job time:  58.03s(wall), 674.98s(cpu)
        *  Thank you very much for using Q-Chem.  Have a nice day.  *
