 Q-Chem 5.1, Q-Chem, Inc., Pleasanton, CA (2018)
 Q-Chem 5.1.1 for Intel X86 EM64T Linux

User input:
--------------------------------------------------------------

$comment
potential surface scanner
$end

$rem
JOBTYPE  PES_SCAN
UNRESTRICTED TRUE
SYM_IGNORE  TRUE
GEOM_OPT_MAX_CYCLES 400
SCF_MAX_CYCLES 400
METHOD   B3LYP
BASIS   6-31G**
PDB_PRINT 2
SCF_CONVERGENCE 6
THRESH 14
SCF_PRINT 1
$end
$molecule
0 1
Br -0.621000 1.744900 0.138600
Br 2.339300 0.022500 -0.135100
C -0.519000 -0.151000 -0.364100
C 0.644500 -0.814800 0.353000
C -1.843800 -0.801500 0.007700
H -0.380000 -0.157800 -1.450100
H 0.570800 -0.733000 1.441800
H 0.738000 -1.869500 0.078300
H -2.034600 -0.746700 1.085500
H -2.681600 -0.314200 -0.503400
H -1.847800 -1.857900 -0.281400
$end
$scan
stre 2 4 1.200000 1.201000 0.100000
$end
--------------------------------------------------------------

    9   -5265.7112865010      6.36e-07  Convergence criterion met
 Total energy in the final basis set =    -5265.7112865010
   10   -5265.7007251862      3.44e-07  Convergence criterion met
 Total energy in the final basis set =    -5265.7007251862
   10   -5265.6662322229      3.17e-07  Convergence criterion met
 Total energy in the final basis set =    -5265.6662322229
   10   -5265.6026243111      3.26e-07  Convergence criterion met
 Total energy in the final basis set =    -5265.6026243111
   10   -5265.5003292695      3.66e-07  Convergence criterion met
 Total energy in the final basis set =    -5265.5003292695
   10   -5265.3263892184      4.46e-07  Convergence criterion met
 Total energy in the final basis set =    -5265.3263892184
   10   -5265.1010987759      5.58e-07  Convergence criterion met
 Total energy in the final basis set =    -5265.1010987759
   10   -5265.0339607399      6.01e-07  Convergence criterion met
   10   -5265.0153579737      8.58e-07  Convergence criterion met
 Total energy in the final basis set =    -5265.0153579737
   10   -5265.0153761814      8.07e-07  Convergence criterion met
 Total energy in the final basis set =    -5265.0153761814
   10   -5265.0153894887      7.86e-07  Convergence criterion met
 Total energy in the final basis set =    -5265.0153894887
   10   -5265.0154035764      7.72e-07  Convergence criterion met
 Total energy in the final basis set =    -5265.0154035764
   10   -5265.0154143938      7.64e-07  Convergence criterion met
 Total energy in the final basis set =    -5265.0154143938
   10   -5265.0154181044      7.63e-07  Convergence criterion met
 Total energy in the final basis set =    -5265.0154181044

             Standard Nuclear Orientation (Angstroms)
    I     Atom           X                Y                Z
 ----------------------------------------------------------------
    1      Br     -0.6465281874     1.8520687455     0.0845969941
    2      Br      1.9776201478    -0.2909741549     0.0150769385
    3      C      -0.5077375049    -0.0888345922    -0.3813309424
    4      C       0.8829528667    -0.6996921781     0.2883044329
    5      C      -1.7640170016    -0.8267577321     0.0294350238
    6      H      -0.3643919519    -0.0755955827    -1.4668783809
    7      H       0.4778419620    -0.7064551394     1.3495600170
    8      H       0.5528843271    -1.7698535826     0.0641687977
    9      H      -1.9069724654    -0.7957712692     1.1135373509
   10      H      -2.6503908862    -0.4007271366    -0.4452138425
   11      H      -1.6864613062    -1.8764073775    -0.2804563890
 ----------------------------------------------------------------

   10   -5265.0154189738      7.64e-07  Convergence criterion met
 Total energy in the final basis set =    -5265.0154189738

                    Orbital Energies (a.u.)
 --------------------------------------------------------------

 Alpha MOs
 -- Occupied --
*******-482.845 -62.549 -62.503 -56.367 -56.366 -56.365 -56.324
-56.321 -56.321 -10.262 -10.252 -10.198  -8.758  -8.690  -6.596
 -6.573  -6.572  -6.520  -6.508  -6.508  -2.700  -2.682  -2.681
 -2.664  -2.664  -2.613  -2.610  -2.610  -2.601  -2.601  -1.044
 -0.816  -0.736  -0.649  -0.601  -0.549  -0.505  -0.477  -0.445
 -0.410  -0.391  -0.353  -0.283  -0.275  -0.240  -0.237

 Beta MOs
 -- Occupied --
*******-482.845 -62.549 -62.503 -56.367 -56.366 -56.365 -56.324
-56.321 -56.321 -10.262 -10.252 -10.198  -8.758  -8.690  -6.596
 -6.573  -6.572  -6.520  -6.508  -6.508  -2.700  -2.682  -2.681
 -2.664  -2.664  -2.613  -2.610  -2.610  -2.601  -2.601  -1.044
 -0.816  -0.736  -0.649  -0.601  -0.549  -0.505  -0.477  -0.445
 -0.410  -0.391  -0.353  -0.283  -0.275  -0.240  -0.237

          Ground-State Mulliken Net Atomic Charges

     Atom                 Charge (a.u.)    Spin (a.u.)
  --------------------------------------------------------
      1 Br                   -0.139451       0.000000
      2 Br                    0.254450      -0.000000
      3 C                    -0.195051       0.000000
      4 C                    -0.277848       0.000000
      5 C                    -0.318152       0.000000
      6 H                     0.142818      -0.000000
      7 H                     0.082039       0.000000
      8 H                     0.066182       0.000000
      9 H                     0.132131       0.000000
     10 H                     0.136255       0.000000
     11 H                     0.116628      -0.000000
  --------------------------------------------------------
  Sum of atomic charges =    -0.000000

                    Cartesian Multipole Moments
 -----------------------------------------------------------------
    Charge (ESU x 10^10)
                 0.0000
    Dipole Moment (Debye)
         X      -0.4025      Y      -2.6694      Z      -0.1482
       Tot       2.7036
    Quadrupole Moments (Debye-Ang)
        XX     -56.5805     XY       1.0660     YY     -57.4982
        XZ       0.7543     YZ       0.0562     ZZ     -55.1392

 Final energy is   -5265.01541897385
 **  OPTIMIZATION CONVERGED  **
 Total job time:  109.38s(wall), 1274.01s(cpu)
        *  Thank you very much for using Q-Chem.  Have a nice day.  *
