 Q-Chem 5.1, Q-Chem, Inc., Pleasanton, CA (2018)
 Q-Chem 5.1.1 for Intel X86 EM64T Linux

User input:
--------------------------------------------------------------

$comment
potential surface scanner
$end

$rem
JOBTYPE  PES_SCAN
UNRESTRICTED TRUE
SYM_IGNORE  TRUE
GEOM_OPT_MAX_CYCLES 400
SCF_MAX_CYCLES 400
METHOD   B3LYP
BASIS   6-31G**
PDB_PRINT 2
SCF_CONVERGENCE 6
THRESH 14
SCF_PRINT 1
$end
$molecule
0 3
Br -0.733063 1.760017 0.045899
Br 5.202191 0.054402 -0.727292
C -0.864660 -0.420700 -0.294707
C 0.235061 -0.936793 0.449634
C -2.266726 -0.819901 0.108946
H -0.706881 -0.380870 -1.370181
H 0.112030 -1.218184 1.490704
H 1.240699 -0.909598 0.047029
H -2.413426 -0.719002 1.187233
H -3.017096 -0.216763 -0.404160
H -2.423332 -1.871609 -0.162307
$end
$scan
stre 2 4 5.100000 5.101000 0.100000
$end
--------------------------------------------------------------

   31   -5265.6120065268      3.50e-07  Convergence criterion met
 Total energy in the final basis set =    -5265.6120065268
   32   -5265.6105507486      1.88e-07  Convergence criterion met
 Total energy in the final basis set =    -5265.6105507486
   31   -5265.6116652192      6.95e-07  Convergence criterion met
 Total energy in the final basis set =    -5265.6116652192
   33   -5265.6119603889      9.88e-07  Convergence criterion met
 Total energy in the final basis set =    -5265.6119603889
   34   -5265.6119662069      9.71e-07  Convergence criterion met
 Total energy in the final basis set =    -5265.6119662069
   37   -5265.6119676476      1.49e-07  Convergence criterion met
 Total energy in the final basis set =    -5265.6119676476
   37   -5265.6119711777      4.27e-07  Convergence criterion met
 Total energy in the final basis set =    -5265.6119711777
   43   -5265.6119735391      3.15e-07  Convergence criterion met
 Total energy in the final basis set =    -5265.6119735391
   48   -5265.6119757349      8.88e-07  Convergence criterion met
 Total energy in the final basis set =    -5265.6119757349

             Standard Nuclear Orientation (Angstroms)
    I     Atom           X                Y                Z
 ----------------------------------------------------------------
    1      Br     -0.7343579008     1.7634181146     0.0462229979
    2      Br      5.1182653118     0.0284656616    -0.7130046047
    3      C      -0.8572291646    -0.4160770204    -0.2960379087
    4      C       0.2451529214    -0.9295202004     0.4467534460
    5      C      -2.2573285236    -0.8218532254     0.1082536299
    6      H      -0.7005435356    -0.3752263178    -1.3716494663
    7      H       0.1241387914    -1.2132346102     1.4874123665
    8      H       1.2506241866    -0.8969676617     0.0436787679
    9      H      -2.4037413003    -0.7222964351     1.1867066076
   10      H      -3.0107293995    -0.2216653537    -0.4039112237
   11      H      -2.4094543867    -1.8740439515    -0.1636266125
 ----------------------------------------------------------------

   44   -5265.6119760740      9.18e-07  Convergence criterion met
 Total energy in the final basis set =    -5265.6119760740

                    Orbital Energies (a.u.)
 --------------------------------------------------------------

 Alpha MOs
 -- Occupied --
*******-482.832 -62.559 -62.490 -56.383 -56.376 -56.376 -56.312
-56.308 -56.308 -10.259 -10.226 -10.201  -8.746  -8.677  -6.583
 -6.561  -6.561  -6.507  -6.495  -6.494  -2.674  -2.668  -2.668
 -2.652  -2.652  -2.600  -2.597  -2.597  -2.588  -2.588  -0.831
 -0.799  -0.732  -0.712  -0.592  -0.494  -0.449  -0.441  -0.393
 -0.383  -0.373  -0.355  -0.324  -0.324  -0.273  -0.268  -0.229

 Beta MOs
 -- Occupied --
*******-482.831 -62.557 -62.490 -56.378 -56.375 -56.375 -56.310
-56.307 -56.307 -10.260 -10.215 -10.201  -8.742  -8.676  -6.572
 -6.559  -6.559  -6.504  -6.494  -6.494  -2.666  -2.662  -2.662
 -2.651  -2.651  -2.598  -2.595  -2.595  -2.587  -2.587  -0.822
 -0.755  -0.719  -0.695  -0.585  -0.489  -0.445  -0.437  -0.389
 -0.381  -0.332  -0.310  -0.310  -0.266  -0.264

          Ground-State Mulliken Net Atomic Charges

     Atom                 Charge (a.u.)    Spin (a.u.)
  --------------------------------------------------------
      1 Br                   -0.209874       0.325748
      2 Br                   -0.001423       0.998217
      3 C                    -0.121710      -0.102045
      4 C                    -0.162546       0.842699
      5 C                    -0.316013       0.006495
      6 H                     0.159220       0.006911
      7 H                     0.128749      -0.036886
      8 H                     0.127366      -0.038231
      9 H                     0.133240      -0.001171
     10 H                     0.139217       0.001425
     11 H                     0.123774      -0.003163
  --------------------------------------------------------
  Sum of atomic charges =     0.000000

                    Cartesian Multipole Moments
 -----------------------------------------------------------------
    Charge (ESU x 10^10)
                 0.0000
    Dipole Moment (Debye)
         X      -0.1937      Y      -3.0918      Z      -0.1913
       Tot       3.1037
    Quadrupole Moments (Debye-Ang)
        XX     -53.1746     XY       3.5915     YY     -59.5471
        XZ       0.0581     YZ      -0.6190     ZZ     -56.0642

 Final energy is   -5265.61197607398
 **  OPTIMIZATION CONVERGED  **
 Total job time:  123.04s(wall), 1449.19s(cpu)
        *  Thank you very much for using Q-Chem.  Have a nice day.  *
