 Q-Chem 5.1, Q-Chem, Inc., Pleasanton, CA (2018)
 Q-Chem 5.1.1 for Intel X86 EM64T Linux

User input:
--------------------------------------------------------------

$comment
potential surface scanner
$end

$rem
JOBTYPE  PES_SCAN
UNRESTRICTED TRUE
SYM_IGNORE  TRUE
GEOM_OPT_MAX_CYCLES 400
SCF_MAX_CYCLES 400
METHOD   B3LYP
BASIS   6-31G**
PDB_PRINT 2
SCF_CONVERGENCE 6
THRESH 14
SCF_PRINT 1
$end
$molecule
0 1
Br -0.621000 1.744900 0.138600
Br 2.339300 0.022500 -0.135100
C -0.519000 -0.151000 -0.364100
C 0.644500 -0.814800 0.353000
C -1.843800 -0.801500 0.007700
H -0.380000 -0.157800 -1.450100
H 0.570800 -0.733000 1.441800
H 0.738000 -1.869500 0.078300
H -2.034600 -0.746700 1.085500
H -2.681600 -0.314200 -0.503400
H -1.847800 -1.857900 -0.281400
$end
$scan
stre 2 4 1.100000 1.101000 0.100000
$end
--------------------------------------------------------------

    9   -5265.7112865010      6.36e-07  Convergence criterion met
 Total energy in the final basis set =    -5265.7112865010
   10   -5265.7007251862      3.44e-07  Convergence criterion met
 Total energy in the final basis set =    -5265.7007251862
   10   -5265.6662322229      3.17e-07  Convergence criterion met
 Total energy in the final basis set =    -5265.6662322229
   10   -5265.6026243111      3.26e-07  Convergence criterion met
 Total energy in the final basis set =    -5265.6026243111
   10   -5265.5003292695      3.66e-07  Convergence criterion met
 Total energy in the final basis set =    -5265.5003292695
   10   -5265.3263892184      4.46e-07  Convergence criterion met
 Total energy in the final basis set =    -5265.3263892184
   10   -5265.0581336149      5.81e-07  Convergence criterion met
 Total energy in the final basis set =    -5265.0581336149
   10   -5264.8294204010      9.75e-07  Convergence criterion met
   10   -5264.5815387656      9.05e-07  Convergence criterion met
 Total energy in the final basis set =    -5264.5815387656
   10   -5264.5815956505      9.06e-07  Convergence criterion met
 Total energy in the final basis set =    -5264.5815956505
   10   -5264.5816239573      9.07e-07  Convergence criterion met
 Total energy in the final basis set =    -5264.5816239573
   10   -5264.5816324997      9.07e-07  Convergence criterion met
 Total energy in the final basis set =    -5264.5816324997
   10   -5264.5816357573      9.07e-07  Convergence criterion met
 Total energy in the final basis set =    -5264.5816357573
   10   -5264.5816383669      9.06e-07  Convergence criterion met
 Total energy in the final basis set =    -5264.5816383669

             Standard Nuclear Orientation (Angstroms)
    I     Atom           X                Y                Z
 ----------------------------------------------------------------
    1      Br     -0.6411595878     1.8598531909     0.0774935586
    2      Br      1.9442713898    -0.3166614887     0.0349750374
    3      C      -0.5257622102    -0.0738991263    -0.3898441307
    4      C       0.9453655208    -0.6976734782     0.2938531648
    5      C      -1.7683095382    -0.8249932556     0.0280171288
    6      H      -0.3701918959    -0.0713483559    -1.4749262766
    7      H       0.4788654498    -0.7068887219     1.3438422021
    8      H       0.5497103639    -1.7605786116     0.0669241233
    9      H      -1.9023777826    -0.8008727494     1.1138178084
   10      H      -2.6677656958    -0.4136712626    -0.4366611710
   11      H      -1.6778460138    -1.8722661407    -0.2866914451
 ----------------------------------------------------------------

   10   -5264.5816398293      9.05e-07  Convergence criterion met
 Total energy in the final basis set =    -5264.5816398293

                    Orbital Energies (a.u.)
 --------------------------------------------------------------

 Alpha MOs
 -- Occupied --
*******-482.844 -62.571 -62.502 -56.388 -56.387 -56.386 -56.323
-56.320 -56.320 -10.300 -10.244 -10.195  -8.791  -8.689  -6.636
 -6.602  -6.601  -6.518  -6.507  -6.507  -2.743  -2.717  -2.716
 -2.692  -2.692  -2.612  -2.609  -2.609  -2.600  -2.600  -1.064
 -0.812  -0.733  -0.640  -0.606  -0.576  -0.521  -0.471  -0.444
 -0.409  -0.390  -0.352  -0.284  -0.274  -0.230  -0.221

 Beta MOs
 -- Occupied --
*******-482.844 -62.571 -62.502 -56.388 -56.387 -56.386 -56.323
-56.320 -56.320 -10.300 -10.244 -10.195  -8.791  -8.689  -6.636
 -6.602  -6.601  -6.518  -6.507  -6.507  -2.743  -2.717  -2.716
 -2.692  -2.692  -2.612  -2.609  -2.609  -2.600  -2.600  -1.064
 -0.812  -0.733  -0.640  -0.606  -0.576  -0.521  -0.471  -0.444
 -0.409  -0.390  -0.352  -0.284  -0.274  -0.230  -0.221

          Ground-State Mulliken Net Atomic Charges

     Atom                 Charge (a.u.)    Spin (a.u.)
  --------------------------------------------------------
      1 Br                   -0.144551      -0.000000
      2 Br                    0.459630       0.000000
      3 C                    -0.215543       0.000000
      4 C                    -0.406475      -0.000000
      5 C                    -0.316146      -0.000000
      6 H                     0.136038      -0.000000
      7 H                     0.062319       0.000000
      8 H                     0.042737      -0.000000
      9 H                     0.130773       0.000000
     10 H                     0.134798       0.000000
     11 H                     0.116420      -0.000000
  --------------------------------------------------------
  Sum of atomic charges =    -0.000000

                    Cartesian Multipole Moments
 -----------------------------------------------------------------
    Charge (ESU x 10^10)
                -0.0000
    Dipole Moment (Debye)
         X      -0.0700      Y      -2.6852      Z      -0.1330
       Tot       2.6894
    Quadrupole Moments (Debye-Ang)
        XX     -56.1654     XY       0.7412     YY     -57.6001
        XZ       0.8877     YZ       0.0991     ZZ     -55.0559

 Final energy is   -5264.58163982929
 **  OPTIMIZATION CONVERGED  **
 Total job time:  136.35s(wall), 1535.72s(cpu)
        *  Thank you very much for using Q-Chem.  Have a nice day.  *
