 Q-Chem 5.1, Q-Chem, Inc., Pleasanton, CA (2018)
 Q-Chem 5.1.1 for Intel X86 EM64T Linux

User input:
--------------------------------------------------------------

$comment
potential surface scanner
$end

$rem
JOBTYPE  PES_SCAN
UNRESTRICTED TRUE
SYM_IGNORE  TRUE
GEOM_OPT_MAX_CYCLES 400
SCF_MAX_CYCLES 400
METHOD   B3LYP
BASIS   6-31G**
PDB_PRINT 2
SCF_CONVERGENCE 6
THRESH 14
SCF_PRINT 1
$end
$molecule
0 3
Br 2.086435 0.068158 0.280687
Br 0.651232 2.448335 -0.477652
C -0.688721 -1.329213 -0.196996
C 0.073808 -1.352407 0.947461
C -1.768805 -0.348639 -0.465981
H -0.444305 -2.036669 -0.987675
H -0.180611 -0.718136 1.789910
H 0.747235 -2.179084 1.143287
H -2.142802 0.116446 0.448976
H -1.371829 0.462892 -1.097723
H -2.596842 -0.810685 -1.013490
$end
$scan
stre 2 4 4.000000 4.001000 0.100000
$end
--------------------------------------------------------------

   14   -5265.6360400706      5.13e-07  Convergence criterion met
 Total energy in the final basis set =    -5265.6360400706
   14   -5265.6352319258      5.00e-07  Convergence criterion met
 Total energy in the final basis set =    -5265.6352319258
   14   -5265.6355772310      5.06e-07  Convergence criterion met
 Total energy in the final basis set =    -5265.6355772310
   14   -5265.6356090248      5.01e-07  Convergence criterion met
 Total energy in the final basis set =    -5265.6356090248
   14   -5265.6356222660      4.97e-07  Convergence criterion met
 Total energy in the final basis set =    -5265.6356222660
   14   -5265.6356307921      4.92e-07  Convergence criterion met
 Total energy in the final basis set =    -5265.6356307921
   14   -5265.6356340619      4.89e-07  Convergence criterion met
 Total energy in the final basis set =    -5265.6356340619
   14   -5265.6356386516      4.84e-07  Convergence criterion met
   14   -5265.6356705816      4.74e-07  Convergence criterion met
 Total energy in the final basis set =    -5265.6356705816
   14   -5265.6356741677      4.80e-07  Convergence criterion met
 Total energy in the final basis set =    -5265.6356741677
   14   -5265.6356771703      4.86e-07  Convergence criterion met
 Total energy in the final basis set =    -5265.6356771703
   14   -5265.6356800781      4.91e-07  Convergence criterion met
 Total energy in the final basis set =    -5265.6356800781
   14   -5265.6356827110      4.96e-07  Convergence criterion met
 Total energy in the final basis set =    -5265.6356827110
   14   -5265.6356844001      4.99e-07  Convergence criterion met
 Total energy in the final basis set =    -5265.6356844001

             Standard Nuclear Orientation (Angstroms)
    I     Atom           X                Y                Z
 ----------------------------------------------------------------
    1      Br      2.0954086287    -0.0161315713     0.0612082114
    2      Br      0.6624702332     2.4541914986    -0.2966964595
    3      C      -0.7059021367    -1.3481741249    -0.1711144351
    4      C       0.0816078099    -1.2997846000     0.9564046272
    5      C      -1.7765163848    -0.3681448213    -0.4859541922
    6      H      -0.4834968403    -2.1125682685    -0.9135318147
    7      H      -0.1330513266    -0.5922506386     1.7504517055
    8      H       0.7432052524    -2.1229981212     1.2004849594
    9      H      -2.2567497470     0.0184999433     0.4170542987
   10      H      -1.3313471966     0.5026071629    -0.9949059163
   11      H      -2.5308332920    -0.7942484591    -1.1525969844
 ----------------------------------------------------------------

   14   -5265.6356852497      5.00e-07  Convergence criterion met
 Total energy in the final basis set =    -5265.6356852497

                    Orbital Energies (a.u.)
 --------------------------------------------------------------

 Alpha MOs
 -- Occupied --
*******-482.832 -62.529 -62.489 -56.350 -56.348 -56.346 -56.312
-56.307 -56.307 -10.262 -10.255 -10.212  -8.716  -8.676  -6.544
 -6.539  -6.532  -6.508  -6.494  -6.493  -2.638  -2.637  -2.632
 -2.629  -2.628  -2.600  -2.597  -2.596  -2.586  -2.586  -0.845
 -0.781  -0.734  -0.723  -0.607  -0.516  -0.470  -0.450  -0.413
 -0.397  -0.368  -0.357  -0.307  -0.280  -0.264  -0.256  -0.249

 Beta MOs
 -- Occupied --
*******-482.830 -62.527 -62.488 -56.346 -56.346 -56.345 -56.308
-56.306 -56.306 -10.256 -10.253 -10.212  -8.712  -8.673  -6.537
 -6.534  -6.530  -6.500  -6.492  -6.491  -2.632  -2.632  -2.628
 -2.625  -2.625  -2.594  -2.592  -2.591  -2.585  -2.585  -0.832
 -0.750  -0.722  -0.695  -0.600  -0.512  -0.467  -0.438  -0.410
 -0.394  -0.333  -0.312  -0.295  -0.259  -0.253

          Ground-State Mulliken Net Atomic Charges

     Atom                 Charge (a.u.)    Spin (a.u.)
  --------------------------------------------------------
      1 Br                   -0.090159       0.816180
      2 Br                   -0.253260       0.722542
      3 C                     0.017061       0.423700
      4 C                    -0.241441       0.037294
      5 C                    -0.362218      -0.024143
      6 H                     0.136744      -0.018869
      7 H                     0.168453      -0.001557
      8 H                     0.164511       0.000699
      9 H                     0.138737       0.007299
     10 H                     0.191038       0.030324
     11 H                     0.130536       0.006531
  --------------------------------------------------------
  Sum of atomic charges =    -0.000000

                    Cartesian Multipole Moments
 -----------------------------------------------------------------
    Charge (ESU x 10^10)
                -0.0000
    Dipole Moment (Debye)
         X      -2.8866      Y      -4.5942      Z       0.6684
       Tot       5.4668
    Quadrupole Moments (Debye-Ang)
        XX     -57.0367     XY      -2.3580     YY     -59.7011
        XZ       1.3305     YZ       0.2744     ZZ     -55.3774

 Final energy is   -5265.63568524972
 **  OPTIMIZATION CONVERGED  **
 Total job time:  130.29s(wall), 1513.53s(cpu)
        *  Thank you very much for using Q-Chem.  Have a nice day.  *
