 Q-Chem 5.1, Q-Chem, Inc., Pleasanton, CA (2018)
 Q-Chem 5.1.1 for Intel X86 EM64T Linux

User input:
--------------------------------------------------------------

$comment
potential surface scanner
$end

$rem
JOBTYPE  PES_SCAN
UNRESTRICTED TRUE
SYM_IGNORE  TRUE
GEOM_OPT_MAX_CYCLES 400
SCF_MAX_CYCLES 400
METHOD   B3LYP
BASIS   6-31G**
PDB_PRINT 2
SCF_CONVERGENCE 6
THRESH 14
SCF_PRINT 1
$end
$molecule
0 1
Br -0.621000 1.744900 0.138600
Br 2.339300 0.022500 -0.135100
C -0.519000 -0.151000 -0.364100
C 0.644500 -0.814800 0.353000
C -1.843800 -0.801500 0.007700
H -0.380000 -0.157800 -1.450100
H 0.570800 -0.733000 1.441800
H 0.738000 -1.869500 0.078300
H -2.034600 -0.746700 1.085500
H -2.681600 -0.314200 -0.503400
H -1.847800 -1.857900 -0.281400
$end
$scan
stre 2 4 1.900000 1.901000 0.100000
$end
--------------------------------------------------------------

    9   -5265.7112865010      6.36e-07  Convergence criterion met
 Total energy in the final basis set =    -5265.7112865010
   10   -5265.7114878050      3.83e-07  Convergence criterion met
 Total energy in the final basis set =    -5265.7114878050
   10   -5265.7117765757      3.84e-07  Convergence criterion met
 Total energy in the final basis set =    -5265.7117765757
   10   -5265.7118612243      3.85e-07  Convergence criterion met
 Total energy in the final basis set =    -5265.7118612243
   10   -5265.7119329384      3.86e-07  Convergence criterion met
 Total energy in the final basis set =    -5265.7119329384
   10   -5265.7120050888      3.86e-07  Convergence criterion met
 Total energy in the final basis set =    -5265.7120050888
   10   -5265.7120490783      3.85e-07  Convergence criterion met
 Total energy in the final basis set =    -5265.7120490783
   10   -5265.7120613122      3.85e-07  Convergence criterion met
 Total energy in the final basis set =    -5265.7120613122
   10   -5265.7120630958      3.85e-07  Convergence criterion met
 Total energy in the final basis set =    -5265.7120630958

             Standard Nuclear Orientation (Angstroms)
    I     Atom           X                Y                Z
 ----------------------------------------------------------------
    1      Br     -0.6786432454     1.8035622612     0.1694220621
    2      Br      2.3627283851    -0.1657624360    -0.2211291141
    3      C      -0.5271069296    -0.1200044204    -0.3395286876
    4      C       0.6588352219    -0.7700294560     0.3633455326
    5      C      -1.8346009255    -0.8310702402    -0.0066314767
    6      H      -0.3605817022    -0.0869581300    -1.4167143992
    7      H       0.6029827721    -0.6150131360     1.4413983301
    8      H       0.6265733626    -1.8442198110     0.1641756616
    9      H      -2.0270478152    -0.8266037000     1.0698457201
   10      H      -2.6768349929    -0.3500967027    -0.5078848751
   11      H      -1.7815041308    -1.8728042288    -0.3454987539
 ----------------------------------------------------------------

   10   -5265.7120637776      3.85e-07  Convergence criterion met
 Total energy in the final basis set =    -5265.7120637776

                    Orbital Energies (a.u.)
 --------------------------------------------------------------

 Alpha MOs
 -- Occupied --
*******-482.852 -62.518 -62.510 -56.339 -56.335 -56.335 -56.331
-56.328 -56.327 -10.268 -10.257 -10.208  -8.705  -8.697  -6.536
 -6.527  -6.522  -6.522  -6.515  -6.514  -2.629  -2.625  -2.625
 -2.621  -2.617  -2.617  -2.615  -2.615  -2.607  -2.607  -0.863
 -0.800  -0.744  -0.686  -0.603  -0.495  -0.464  -0.449  -0.429
 -0.388  -0.378  -0.357  -0.289  -0.286  -0.280  -0.274

 Beta MOs
 -- Occupied --
*******-482.852 -62.518 -62.510 -56.339 -56.335 -56.335 -56.331
-56.328 -56.327 -10.268 -10.257 -10.208  -8.705  -8.697  -6.536
 -6.527  -6.522  -6.522  -6.515  -6.514  -2.629  -2.625  -2.625
 -2.621  -2.617  -2.617  -2.615  -2.615  -2.607  -2.607  -0.863
 -0.800  -0.744  -0.686  -0.603  -0.495  -0.464  -0.449  -0.429
 -0.388  -0.378  -0.357  -0.289  -0.286  -0.280  -0.274

          Ground-State Mulliken Net Atomic Charges

     Atom                 Charge (a.u.)    Spin (a.u.)
  --------------------------------------------------------
      1 Br                   -0.105172      -0.000000
      2 Br                   -0.070470      -0.000000
      3 C                    -0.137626       0.000000
      4 C                    -0.244677       0.000000
      5 C                    -0.321050       0.000000
      6 H                     0.165741      -0.000000
      7 H                     0.167676      -0.000000
      8 H                     0.154011       0.000000
      9 H                     0.132734      -0.000000
     10 H                     0.141237       0.000000
     11 H                     0.117596      -0.000000
  --------------------------------------------------------
  Sum of atomic charges =    -0.000000

                    Cartesian Multipole Moments
 -----------------------------------------------------------------
    Charge (ESU x 10^10)
                -0.0000
    Dipole Moment (Debye)
         X      -1.6461      Y      -2.5876      Z       0.0333
       Tot       3.0670
    Quadrupole Moments (Debye-Ang)
        XX     -58.6999     XY       1.9566     YY     -56.9563
        XZ       0.6915     YZ      -0.3799     ZZ     -55.4254

 Final energy is   -5265.71206377761
 **  OPTIMIZATION CONVERGED  **
 Total job time:  56.07s(wall), 646.85s(cpu)
        *  Thank you very much for using Q-Chem.  Have a nice day.  *
