 Q-Chem 5.1, Q-Chem, Inc., Pleasanton, CA (2018)
 Q-Chem 5.1.1 for Intel X86 EM64T Linux

User input:
--------------------------------------------------------------

$comment
potential surface scanner
$end

$rem
JOBTYPE  PES_SCAN
UNRESTRICTED TRUE
SYM_IGNORE  TRUE
GEOM_OPT_MAX_CYCLES 400
SCF_MAX_CYCLES 400
METHOD   B3LYP
BASIS   6-31G**
PDB_PRINT 2
SCF_CONVERGENCE 6
THRESH 14
SCF_PRINT 1
$end
$molecule
0 3
Br 1.969918 -0.309168 -0.726059
Br 0.966806 2.235098 0.275976
C -0.801009 -1.356778 0.012381
C 0.204992 -1.019592 0.897775
C -1.835228 -0.419163 -0.498928
H -0.819925 -2.374648 -0.375609
H 0.208292 -0.055831 1.391544
H 0.820845 -1.800166 1.331694
H -2.835658 -0.784800 -0.228526
H -1.704109 0.593300 -0.113613
H -1.810130 -0.387254 -1.595827
$end
$scan
stre 2 4 3.300000 3.301000 0.100000
$end
--------------------------------------------------------------

   14   -5265.6338567107      4.94e-07  Convergence criterion met
 Total energy in the final basis set =    -5265.6338567107
   13   -5265.6322779112      9.91e-07  Convergence criterion met
 Total energy in the final basis set =    -5265.6322779112
   14   -5265.6322720792      4.45e-07  Convergence criterion met
 Total energy in the final basis set =    -5265.6322720792
   13   -5265.6322963633      9.98e-07  Convergence criterion met
 Total energy in the final basis set =    -5265.6322963633
   13   -5265.6323184691      9.82e-07  Convergence criterion met
 Total energy in the final basis set =    -5265.6323184691
   13   -5265.6323325872      9.74e-07  Convergence criterion met
 Total energy in the final basis set =    -5265.6323325872
   13   -5265.6323457509      9.59e-07  Convergence criterion met
 Total energy in the final basis set =    -5265.6323457509
   13   -5265.6323469692      9.65e-07  Convergence criterion met
 Total energy in the final basis set =    -5265.6323469692
   13   -5265.6323482302      9.69e-07  Convergence criterion met
 Total energy in the final basis set =    -5265.6323482302

             Standard Nuclear Orientation (Angstroms)
    I     Atom           X                Y                Z
 ----------------------------------------------------------------
    1      Br      1.9577364090    -0.2999978523    -0.7585245849
    2      Br      1.0072565920     2.1861066125     0.4345576868
    3      C      -0.8081540111    -1.3579303337     0.0151575094
    4      C       0.2163681981    -0.9880479497     0.8695733672
    5      C      -1.8436581605    -0.4327317552    -0.5163699600
    6      H      -0.8406505562    -2.3905880370    -0.3305037690
    7      H       0.2204416788    -0.0107545167     1.3335731821
    8      H       0.8340801592    -1.7557205631     1.3238199957
    9      H      -2.8419912454    -0.7705924924    -0.2049268435
   10      H      -1.6912548160     0.5948798335    -0.1817767090
   11      H      -1.8453802478    -0.4536249459    -1.6137718748
 ----------------------------------------------------------------

   13   -5265.6323486435      9.68e-07  Convergence criterion met
 Total energy in the final basis set =    -5265.6323486435

                    Orbital Energies (a.u.)
 --------------------------------------------------------------

 Alpha MOs
 -- Occupied --
*******-482.831 -62.529 -62.489 -56.350 -56.348 -56.346 -56.312
-56.306 -56.306 -10.264 -10.253 -10.215  -8.716  -8.676  -6.544
 -6.538  -6.532  -6.508  -6.493  -6.493  -2.638  -2.637  -2.632
 -2.628  -2.628  -2.600  -2.597  -2.596  -2.586  -2.585  -0.846
 -0.781  -0.732  -0.727  -0.607  -0.515  -0.469  -0.453  -0.411
 -0.399  -0.374  -0.353  -0.307  -0.270  -0.266  -0.261  -0.253

 Beta MOs
 -- Occupied --
*******-482.829 -62.527 -62.488 -56.346 -56.346 -56.345 -56.307
-56.306 -56.306 -10.256 -10.252 -10.215  -8.712  -8.673  -6.537
 -6.534  -6.530  -6.500  -6.492  -6.491  -2.632  -2.632  -2.629
 -2.625  -2.625  -2.595  -2.592  -2.592  -2.585  -2.585  -0.831
 -0.753  -0.719  -0.700  -0.598  -0.511  -0.465  -0.441  -0.408
 -0.396  -0.339  -0.309  -0.295  -0.259  -0.255

          Ground-State Mulliken Net Atomic Charges

     Atom                 Charge (a.u.)    Spin (a.u.)
  --------------------------------------------------------
      1 Br                   -0.083765       0.784683
      2 Br                   -0.266910       0.695027
      3 C                     0.023969       0.507003
      4 C                    -0.250098       0.022641
      5 C                    -0.365239      -0.034694
      6 H                     0.131791      -0.022671
      7 H                     0.191738      -0.000378
      8 H                     0.161691      -0.000251
      9 H                     0.140483       0.023627
     10 H                     0.164198       0.000021
     11 H                     0.152141       0.024994
  --------------------------------------------------------
  Sum of atomic charges =    -0.000000

                    Cartesian Multipole Moments
 -----------------------------------------------------------------
    Charge (ESU x 10^10)
                -0.0000
    Dipole Moment (Debye)
         X      -3.3637      Y      -4.2191      Z       0.3742
       Tot       5.4088
    Quadrupole Moments (Debye-Ang)
        XX     -57.0964     XY      -1.8514     YY     -58.6375
        XZ       1.0649     YZ      -1.1628     ZZ     -56.0053

 Final energy is   -5265.63234864349
 **  OPTIMIZATION CONVERGED  **
 Total job time:  62.91s(wall), 733.85s(cpu)
        *  Thank you very much for using Q-Chem.  Have a nice day.  *
