 Q-Chem 5.1, Q-Chem, Inc., Pleasanton, CA (2018)
 Q-Chem 5.1.1 for Intel X86 EM64T Linux

User input:
--------------------------------------------------------------

$comment
potential surface scanner
$end

$rem
JOBTYPE  PES_SCAN
UNRESTRICTED TRUE
SYM_IGNORE  TRUE
GEOM_OPT_MAX_CYCLES 400
SCF_MAX_CYCLES 400
METHOD   B3LYP
BASIS   6-31G**
PDB_PRINT 2
SCF_CONVERGENCE 6
THRESH 14
SCF_PRINT 1
$end
$molecule
0 1
Br -0.621000 1.744900 0.138600
Br 2.339300 0.022500 -0.135100
C -0.519000 -0.151000 -0.364100
C 0.644500 -0.814800 0.353000
C -1.843800 -0.801500 0.007700
H -0.380000 -0.157800 -1.450100
H 0.570800 -0.733000 1.441800
H 0.738000 -1.869500 0.078300
H -2.034600 -0.746700 1.085500
H -2.681600 -0.314200 -0.503400
H -1.847800 -1.857900 -0.281400
$end
$scan
stre 2 4 1.800000 1.801000 0.100000
$end
--------------------------------------------------------------

    9   -5265.7112865010      6.36e-07  Convergence criterion met
 Total energy in the final basis set =    -5265.7112865010
   10   -5265.7016366157      3.46e-07  Convergence criterion met
 Total energy in the final basis set =    -5265.7016366157
   10   -5265.7019571708      3.46e-07  Convergence criterion met
 Total energy in the final basis set =    -5265.7019571708
    9   -5265.7027454416      8.97e-07  Convergence criterion met
 Total energy in the final basis set =    -5265.7027454416
    9   -5265.7027868244      8.25e-07  Convergence criterion met
 Total energy in the final basis set =    -5265.7027868244
    9   -5265.7028234011      7.61e-07  Convergence criterion met
 Total energy in the final basis set =    -5265.7028234011
    9   -5265.7028280817      7.24e-07  Convergence criterion met
 Total energy in the final basis set =    -5265.7028280817
    9   -5265.7028411327      5.63e-07  Convergence criterion met
    9   -5265.7028477943      5.21e-07  Convergence criterion met
 Total energy in the final basis set =    -5265.7028477943
    9   -5265.7028558424      5.86e-07  Convergence criterion met
 Total energy in the final basis set =    -5265.7028558424
    9   -5265.7028610061      6.37e-07  Convergence criterion met
 Total energy in the final basis set =    -5265.7028610061
    9   -5265.7028643886      6.15e-07  Convergence criterion met
 Total energy in the final basis set =    -5265.7028643886
    9   -5265.7028663255      5.53e-07  Convergence criterion met
 Total energy in the final basis set =    -5265.7028663255
    9   -5265.7028674771      5.16e-07  Convergence criterion met
 Total energy in the final basis set =    -5265.7028674771

             Standard Nuclear Orientation (Angstroms)
    I     Atom           X                Y                Z
 ----------------------------------------------------------------
    1      Br     -0.6658835292     1.8077358169     0.1394474046
    2      Br      2.3011234640    -0.1476243507    -0.1544502628
    3      C      -0.5197134329    -0.1239254198    -0.3502899741
    4      C       0.6859909592    -0.7672700317     0.3429291858
    5      C      -1.8246686404    -0.8249618620     0.0053625393
    6      H      -0.3646511208    -0.0989683904    -1.4299873205
    7      H       0.5723476554    -0.6621979147     1.4249802850
    8      H       0.6363851263    -1.8386329587     0.1198545555
    9      H      -2.0061469984    -0.8007822346     1.0835779953
   10      H      -2.6705671763    -0.3496470537    -0.4950738661
   11      H      -1.7794163070    -1.8727256006    -0.3155505421
 ----------------------------------------------------------------

    9   -5265.7028679277      5.29e-07  Convergence criterion met
 Total energy in the final basis set =    -5265.7028679277

                    Orbital Energies (a.u.)
 --------------------------------------------------------------

 Alpha MOs
 -- Occupied --
*******-482.850 -62.520 -62.509 -56.341 -56.337 -56.337 -56.330
-56.326 -56.326 -10.266 -10.251 -10.206  -8.708  -8.695  -6.539
 -6.526  -6.525  -6.525  -6.513  -6.513  -2.633  -2.629  -2.628
 -2.619  -2.618  -2.618  -2.616  -2.615  -2.605  -2.605  -0.873
 -0.809  -0.742  -0.681  -0.601  -0.495  -0.463  -0.452  -0.430
 -0.387  -0.386  -0.355  -0.289  -0.286  -0.278  -0.272

 Beta MOs
 -- Occupied --
*******-482.850 -62.520 -62.509 -56.341 -56.337 -56.337 -56.330
-56.326 -56.326 -10.266 -10.251 -10.206  -8.708  -8.695  -6.539
 -6.526  -6.525  -6.525  -6.513  -6.513  -2.633  -2.629  -2.628
 -2.619  -2.618  -2.618  -2.616  -2.615  -2.605  -2.605  -0.873
 -0.809  -0.742  -0.681  -0.601  -0.495  -0.463  -0.452  -0.430
 -0.387  -0.386  -0.355  -0.289  -0.286  -0.278  -0.272

          Ground-State Mulliken Net Atomic Charges

     Atom                 Charge (a.u.)    Spin (a.u.)
  --------------------------------------------------------
      1 Br                   -0.109593      -0.000000
      2 Br                   -0.051097       0.000000
      3 C                    -0.141628       0.000000
      4 C                    -0.237333      -0.000000
      5 C                    -0.320078       0.000000
      6 H                     0.162017      -0.000000
      7 H                     0.160492      -0.000000
      8 H                     0.148551       0.000000
      9 H                     0.132340       0.000000
     10 H                     0.140034       0.000000
     11 H                     0.116295      -0.000000
  --------------------------------------------------------
  Sum of atomic charges =     0.000000

                    Cartesian Multipole Moments
 -----------------------------------------------------------------
    Charge (ESU x 10^10)
                 0.0000
    Dipole Moment (Debye)
         X      -1.4227      Y      -2.6122      Z      -0.0307
       Tot       2.9746
    Quadrupole Moments (Debye-Ang)
        XX     -58.2105     XY       1.8829     YY     -56.9883
        XZ       0.5660     YZ      -0.2858     ZZ     -55.4382

 Final energy is   -5265.70286792767
 **  OPTIMIZATION CONVERGED  **
 Total job time:  79.91s(wall), 923.56s(cpu)
        *  Thank you very much for using Q-Chem.  Have a nice day.  *
