 Q-Chem 5.1, Q-Chem, Inc., Pleasanton, CA (2018)
 Q-Chem 5.1.1 for Intel X86 EM64T Linux

User input:
--------------------------------------------------------------

$comment
potential surface scanner
$end

$rem
JOBTYPE  PES_SCAN
UNRESTRICTED TRUE
SYM_IGNORE  TRUE
GEOM_OPT_MAX_CYCLES 400
SCF_MAX_CYCLES 400
METHOD   B3LYP
BASIS   6-31G**
PDB_PRINT 2
SCF_CONVERGENCE 6
THRESH 14
SCF_PRINT 1
$end
$molecule
0 3
Br 1.408670 -0.042635 -2.443580
Br 1.645337 0.760327 0.411606
C -0.672275 -1.169928 0.221737
C 0.013523 -0.594592 1.301199
C -1.785243 -0.507756 -0.503265
H -0.274744 -2.089647 -0.201069
H -0.479358 0.194163 1.861621
H 0.688996 -1.218236 1.876260
H -2.549864 -1.232257 -0.803950
H -2.250027 0.292011 0.079645
H -1.380224 -0.070451 -1.429391
$end
$scan
stre 2 4 2.200000 2.201000 0.100000
$end
--------------------------------------------------------------

   12   -5265.6343891574      9.25e-07  Convergence criterion met
 Total energy in the final basis set =    -5265.6343891574
   12   -5265.6325668976      5.76e-07  Convergence criterion met
 Total energy in the final basis set =    -5265.6325668976
   12   -5265.6330087474      5.57e-07  Convergence criterion met
 Total energy in the final basis set =    -5265.6330087474
   12   -5265.6332782978      5.60e-07  Convergence criterion met
 Total energy in the final basis set =    -5265.6332782978
   12   -5265.6333219851      5.62e-07  Convergence criterion met
 Total energy in the final basis set =    -5265.6333219851
   12   -5265.6333334456      5.64e-07  Convergence criterion met
 Total energy in the final basis set =    -5265.6333334456
   12   -5265.6333496644      5.71e-07  Convergence criterion met
 Total energy in the final basis set =    -5265.6333496644
   12   -5265.6333528091      5.72e-07  Convergence criterion met
 Total energy in the final basis set =    -5265.6333528091
   12   -5265.6333557389      5.75e-07  Convergence criterion met
 Total energy in the final basis set =    -5265.6333557389

             Standard Nuclear Orientation (Angstroms)
    I     Atom           X                Y                Z
 ----------------------------------------------------------------
    1      Br      1.4371644379    -0.0761623674    -2.4190299921
    2      Br      1.5841571918     0.7723280764     0.4449785565
    3      C      -0.6699019408    -1.1716729986     0.2106587426
    4      C       0.0514516779    -0.5713518836     1.2728298454
    5      C      -1.7887061946    -0.5046351799    -0.5026215496
    6      H      -0.2776474078    -2.0927494643    -0.2130085518
    7      H      -0.4756485542     0.1734106243     1.8636519505
    8      H       0.7058348154    -1.2140914291     1.8529261441
    9      H      -2.5658905010    -1.2230020318    -0.7854107357
   10      H      -2.2379487499     0.3023319508     0.0832475162
   11      H      -1.3980737748    -0.0734062968    -1.4374089261
 ----------------------------------------------------------------

   12   -5265.6333566501      5.76e-07  Convergence criterion met
 Total energy in the final basis set =    -5265.6333566501

                    Orbital Energies (a.u.)
 --------------------------------------------------------------

 Alpha MOs
 -- Occupied --
*******-482.836 -62.532 -62.494 -56.353 -56.352 -56.349 -56.316
-56.311 -56.311 -10.264 -10.249 -10.207  -8.720  -8.680  -6.548
 -6.542  -6.535  -6.513  -6.497  -6.497  -2.642  -2.641  -2.636
 -2.632  -2.631  -2.605  -2.601  -2.601  -2.589  -2.589  -0.847
 -0.785  -0.738  -0.716  -0.605  -0.510  -0.466  -0.449  -0.407
 -0.394  -0.389  -0.354  -0.305  -0.273  -0.268  -0.262  -0.240

 Beta MOs
 -- Occupied --
*******-482.834 -62.531 -62.492 -56.351 -56.349 -56.349 -56.312
-56.310 -56.310 -10.264 -10.239 -10.207  -8.717  -8.677  -6.543
 -6.538  -6.534  -6.505  -6.496  -6.495  -2.638  -2.637  -2.634
 -2.629  -2.629  -2.599  -2.596  -2.596  -2.588  -2.588  -0.830
 -0.764  -0.715  -0.699  -0.592  -0.506  -0.461  -0.432  -0.403
 -0.390  -0.369  -0.312  -0.296  -0.262  -0.257

          Ground-State Mulliken Net Atomic Charges

     Atom                 Charge (a.u.)    Spin (a.u.)
  --------------------------------------------------------
      1 Br                   -0.239237       0.731276
      2 Br                   -0.044345       0.591107
      3 C                     0.004524       0.732861
      4 C                    -0.279932      -0.047848
      5 C                    -0.359401      -0.052489
      6 H                     0.142798      -0.031609
      7 H                     0.167588       0.005264
      8 H                     0.172811       0.002728
      9 H                     0.133099       0.017591
     10 H                     0.121592       0.004324
     11 H                     0.180504       0.046794
  --------------------------------------------------------
  Sum of atomic charges =    -0.000000

                    Cartesian Multipole Moments
 -----------------------------------------------------------------
    Charge (ESU x 10^10)
                -0.0000
    Dipole Moment (Debye)
         X      -3.2259      Y      -1.5682      Z       3.3144
       Tot       4.8837
    Quadrupole Moments (Debye-Ang)
        XX     -58.8019     XY       0.0783     YY     -55.2156
        XZ       4.4367     YZ      -0.1596     ZZ     -59.2407

 Final energy is   -5265.63335665007
 **  OPTIMIZATION CONVERGED  **
 Total job time:  59.26s(wall), 690.05s(cpu)
        *  Thank you very much for using Q-Chem.  Have a nice day.  *
