 Q-Chem 5.1, Q-Chem, Inc., Pleasanton, CA (2018)
 Q-Chem 5.1.1 for Intel X86 EM64T Linux

User input:
--------------------------------------------------------------

$comment
potential surface scanner
$end

$rem
JOBTYPE  PES_SCAN
UNRESTRICTED TRUE
SYM_IGNORE  TRUE
GEOM_OPT_MAX_CYCLES 400
SCF_MAX_CYCLES 400
METHOD   B3LYP
BASIS   6-31G**
PDB_PRINT 2
SCF_CONVERGENCE 6
THRESH 14
SCF_PRINT 1
$end
$molecule
0 3
Br 1.311390 1.013411 0.817425
Br 2.229072 2.084104 -1.704771
C -0.648832 -1.131116 -0.220809
C 0.015110 -1.581257 0.876605
C -1.967961 -0.436918 -0.203525
H -0.192228 -1.285768 -1.197311
H -0.400561 -1.465727 1.873311
H 0.956280 -2.112799 0.788594
H -2.350744 -0.302504 0.810929
H -1.884017 0.545674 -0.682238
H -2.702712 -1.006101 -0.787411
$end
$scan
stre 2 4 4.900000 4.901000 0.100000
$end
--------------------------------------------------------------

   15   -5265.6324234729      5.90e-07  Convergence criterion met
 Total energy in the final basis set =    -5265.6324234729
   14   -5265.6328520735      9.33e-07  Convergence criterion met
 Total energy in the final basis set =    -5265.6328520735
   14   -5265.6328670916      9.35e-07  Convergence criterion met
 Total energy in the final basis set =    -5265.6328670916
   14   -5265.6328758276      9.52e-07  Convergence criterion met
 Total energy in the final basis set =    -5265.6328758276
   14   -5265.6328815465      9.72e-07  Convergence criterion met
 Total energy in the final basis set =    -5265.6328815465
   14   -5265.6328850204      9.89e-07  Convergence criterion met
 Total energy in the final basis set =    -5265.6328850204
   14   -5265.6328867947      9.97e-07  Convergence criterion met
 Total energy in the final basis set =    -5265.6328867947
   15   -5265.6328888082      5.19e-07  Convergence criterion met
   14   -5265.6349415182      9.27e-07  Convergence criterion met
 Total energy in the final basis set =    -5265.6349415182
   14   -5265.6351323217      9.13e-07  Convergence criterion met
 Total energy in the final basis set =    -5265.6351323217
   14   -5265.6351765881      9.24e-07  Convergence criterion met
 Total energy in the final basis set =    -5265.6351765881
   14   -5265.6351978795      9.73e-07  Convergence criterion met
 Total energy in the final basis set =    -5265.6351978795
   14   -5265.6352021857      9.64e-07  Convergence criterion met
 Total energy in the final basis set =    -5265.6352021857
   14   -5265.6352057806      9.55e-07  Convergence criterion met
 Total energy in the final basis set =    -5265.6352057806

             Standard Nuclear Orientation (Angstroms)
    I     Atom           X                Y                Z
 ----------------------------------------------------------------
    1      Br      1.8444524942     0.4635947067     0.3805741039
    2      Br      0.7979685077     2.5470282246    -1.3246351713
    3      C      -0.6150420160    -1.2885939096    -0.1575939790
    4      C      -0.0795166583    -1.6547309383     1.0386760509
    5      C      -1.7002597878    -0.2904381970    -0.3426208360
    6      H      -0.2141123245    -1.7481016510    -1.0599677486
    7      H      -0.4499446609    -1.2401055970     1.9715349493
    8      H       0.7008341760    -2.4052639615     1.1019052180
    9      H      -2.1304146406     0.0364069719     0.6070217823
   10      H      -1.2957070376     0.5932369854    -0.8599565150
   11      H      -2.4934610523    -0.6920336342    -0.9841388547
 ----------------------------------------------------------------

   14   -5265.6352064690      9.61e-07  Convergence criterion met
 Total energy in the final basis set =    -5265.6352064690

                    Orbital Energies (a.u.)
 --------------------------------------------------------------

 Alpha MOs
 -- Occupied --
*******-482.842 -62.530 -62.499 -56.352 -56.350 -56.347 -56.321
-56.317 -56.316 -10.257 -10.246 -10.211  -8.717  -8.686  -6.545
 -6.540  -6.532  -6.517  -6.505  -6.502  -2.639  -2.639  -2.633
 -2.630  -2.629  -2.610  -2.607  -2.605  -2.596  -2.596  -0.839
 -0.780  -0.738  -0.726  -0.601  -0.512  -0.466  -0.446  -0.408
 -0.392  -0.367  -0.348  -0.308  -0.294  -0.271  -0.270  -0.253

 Beta MOs
 -- Occupied --
*******-482.840 -62.529 -62.498 -56.348 -56.347 -56.346 -56.317
-56.316 -56.315 -10.255 -10.243 -10.211  -8.713  -8.683  -6.538
 -6.535  -6.530  -6.509  -6.503  -6.501  -2.633  -2.633  -2.629
 -2.627  -2.626  -2.604  -2.602  -2.600  -2.595  -2.595  -0.830
 -0.743  -0.723  -0.701  -0.597  -0.509  -0.464  -0.440  -0.406
 -0.391  -0.321  -0.306  -0.294  -0.265  -0.258

          Ground-State Mulliken Net Atomic Charges

     Atom                 Charge (a.u.)    Spin (a.u.)
  --------------------------------------------------------
      1 Br                   -0.104489       0.882780
      2 Br                   -0.209555       0.769538
      3 C                     0.004156       0.173096
      4 C                    -0.201892       0.187929
      5 C                    -0.363527      -0.006430
      6 H                     0.138674      -0.007546
      7 H                     0.143443      -0.008268
      8 H                     0.147490      -0.008097
      9 H                     0.128816       0.000232
     10 H                     0.180600       0.009580
     11 H                     0.136284       0.007187
  --------------------------------------------------------
  Sum of atomic charges =     0.000000

                    Cartesian Multipole Moments
 -----------------------------------------------------------------
    Charge (ESU x 10^10)
                 0.0000
    Dipole Moment (Debye)
         X      -2.6252      Y      -4.3638      Z       1.3075
       Tot       5.2577
    Quadrupole Moments (Debye-Ang)
        XX     -56.9360     XY      -2.5305     YY     -59.3492
        XZ       1.6758     YZ       1.5433     ZZ     -56.2734

 Final energy is   -5265.63520646904
 **  OPTIMIZATION CONVERGED  **
 Total job time:  247.78s(wall), 2906.10s(cpu)
        *  Thank you very much for using Q-Chem.  Have a nice day.  *
