 Q-Chem 5.1, Q-Chem, Inc., Pleasanton, CA (2018)
 Q-Chem 5.1.1 for Intel X86 EM64T Linux

User input:
--------------------------------------------------------------

$comment
potential surface scanner
$end

$rem
JOBTYPE  PES_SCAN
UNRESTRICTED TRUE
SYM_IGNORE  TRUE
GEOM_OPT_MAX_CYCLES 400
SCF_MAX_CYCLES 400
METHOD   B3LYP
BASIS   6-31G**
PDB_PRINT 2
SCF_CONVERGENCE 6
THRESH 14
SCF_PRINT 1
$end
$molecule
0 1
O 0.000245 -1.324185 0.001318
C 0.000006 -0.108337 0.000516
C 1.292608 0.690621 -0.000167
C -1.292911 0.690111 -0.000180
H 1.341317 1.340746 -0.881573
H 1.340289 1.344705 0.878329
H 2.146232 0.011795 0.001728
H -2.146269 0.010951 0.001729
H -1.341872 1.340198 -0.881600
H -1.340845 1.344196 0.878300
$end
$scan
stre 1 2 1.200000 1.201000 0.100000
$end
--------------------------------------------------------------

    9    -193.1642194691      2.17e-07  Convergence criterion met
 Total energy in the final basis set =     -193.1642194691
    9    -193.1638258094      2.19e-07  Convergence criterion met
 Total energy in the final basis set =     -193.1638258094
    9    -193.1638401496      2.26e-07  Convergence criterion met
 Total energy in the final basis set =     -193.1638401496

             Standard Nuclear Orientation (Angstroms)
    I     Atom           X                Y                Z
 ----------------------------------------------------------------
    1      O       0.0002432040    -1.3156041954     0.0014627787
    2      C       0.0000075168    -0.1156045230     0.0005824089
    3      C       1.2922679510     0.6897265099    -0.0002010735
    4      C      -1.2925702525     0.6892177881    -0.0002143144
    5      H       1.3388634541     1.3399024357    -0.8815709691
    6      H       1.3379199302     1.3437439879     0.8783486729
    7      H       2.1484170880     0.0138356517     0.0016346176
    8      H      -2.1484530374     0.0129900477     0.0016350140
    9      H      -1.3394193165     1.3393566716    -0.8815980855
   10      H      -1.3384765377     1.3432366259     0.8783209503
 ----------------------------------------------------------------

    9    -193.1638412680      2.27e-07  Convergence criterion met
 Total energy in the final basis set =     -193.1638412680

                    Orbital Energies (a.u.)
 --------------------------------------------------------------

 Alpha MOs
 -- Occupied --
-19.136 -10.276 -10.190 -10.190  -1.045  -0.766  -0.709  -0.529
 -0.459  -0.458  -0.447  -0.402  -0.394  -0.377  -0.351  -0.244

 Beta MOs
 -- Occupied --
-19.136 -10.276 -10.190 -10.190  -1.045  -0.766  -0.709  -0.529
 -0.459  -0.458  -0.447  -0.402  -0.394  -0.377  -0.351  -0.244

          Ground-State Mulliken Net Atomic Charges

     Atom                 Charge (a.u.)    Spin (a.u.)
  --------------------------------------------------------
      1 O                    -0.418463      -0.000000
      2 C                     0.422372       0.000000
      3 C                    -0.389358      -0.000000
      4 C                    -0.389357      -0.000000
      5 H                     0.125233       0.000000
      6 H                     0.125153       0.000000
      7 H                     0.137017      -0.000000
      8 H                     0.137017       0.000000
      9 H                     0.125234       0.000000
     10 H                     0.125152       0.000000
  --------------------------------------------------------
  Sum of atomic charges =    -0.000000

                    Cartesian Multipole Moments
 -----------------------------------------------------------------
    Charge (ESU x 10^10)
                -0.0000
    Dipole Moment (Debye)
         X      -0.0005      Y       2.7500      Z      -0.0030
       Tot       2.7500
    Quadrupole Moments (Debye-Ang)
        XX     -23.4859     XY       0.0008     YY     -27.6915
        XZ       0.0000     YZ       0.0034     ZZ     -23.8797

 Final energy is   -193.163841268014
 **  OPTIMIZATION CONVERGED  **
 Total job time:  10.61s(wall), 117.81s(cpu)
        *  Thank you very much for using Q-Chem.  Have a nice day.  *
