 Q-Chem 5.1, Q-Chem, Inc., Pleasanton, CA (2018)
 Q-Chem 5.1.1 for Intel X86 EM64T Linux

User input:
--------------------------------------------------------------

$comment
potential surface scanner
$end

$rem
JOBTYPE  PES_SCAN
UNRESTRICTED TRUE
SYM_IGNORE  TRUE
GEOM_OPT_MAX_CYCLES 400
SCF_MAX_CYCLES 400
METHOD   B3LYP
BASIS   6-31G**
PDB_PRINT 2
SCF_CONVERGENCE 6
THRESH 14
SCF_PRINT 1
$end
$molecule
0 1
O 0.000255 -1.371429 0.001690
C -0.000002 -0.071430 0.000591
C 1.295544 0.695444 -0.000231
C -1.295849 0.694934 -0.000244
H 1.355029 1.346188 -0.881253
H 1.354244 1.349931 0.878046
H 2.135965 0.001475 0.001531
H -2.135997 0.000635 0.001531
H -1.355586 1.345637 -0.881279
H -1.354803 1.349417 0.878019
$end
$scan
stre 1 2 1.400000 1.401000 0.100000
$end
--------------------------------------------------------------

    9    -193.1555785616      2.46e-07  Convergence criterion met
 Total energy in the final basis set =     -193.1555785616
    9    -193.1348044939      8.55e-07  Convergence criterion met
 Total energy in the final basis set =     -193.1348044939
   10    -193.1304131713      2.37e-07  Convergence criterion met
 Total energy in the final basis set =     -193.1304131713
   10    -193.1303763439      2.50e-07  Convergence criterion met
 Total energy in the final basis set =     -193.1303763439
   10    -193.1304431198      2.65e-07  Convergence criterion met
 Total energy in the final basis set =     -193.1304431198
   10    -193.1304469295      2.66e-07  Convergence criterion met
 Total energy in the final basis set =     -193.1304469295

             Standard Nuclear Orientation (Angstroms)
    I     Atom           X                Y                Z
 ----------------------------------------------------------------
    1      O       0.0002681063    -1.4302503191     0.0018986214
    2      C      -0.0000101444    -0.0302509703     0.0005844278
    3      C       1.3008730116     0.7019304648    -0.0002588284
    4      C      -1.3011812043     0.7014184508    -0.0002717063
    5      H       1.3731683181     1.3530524675    -0.8810113039
    6      H       1.3725062783     1.3567094643     0.8778144620
    7      H       2.1254283041    -0.0098277708     0.0014476048
    8      H      -2.1254569928    -0.0106629214     0.0014470146
    9      H      -1.3737274888     1.3524951714    -0.8810371822
   10      H      -1.3730681881     1.3561879628     0.8777878901
 ----------------------------------------------------------------

   10    -193.1304501338      2.66e-07  Convergence criterion met
 Total energy in the final basis set =     -193.1304501338

                    Orbital Energies (a.u.)
 --------------------------------------------------------------

 Alpha MOs
 -- Occupied --
-19.132 -10.291 -10.202 -10.202  -0.946  -0.780  -0.720  -0.543
 -0.458  -0.451  -0.450  -0.411  -0.384  -0.366  -0.300  -0.239

 Beta MOs
 -- Occupied --
-19.132 -10.291 -10.202 -10.202  -0.946  -0.780  -0.720  -0.543
 -0.458  -0.451  -0.450  -0.411  -0.384  -0.366  -0.300  -0.239

          Ground-State Mulliken Net Atomic Charges

     Atom                 Charge (a.u.)    Spin (a.u.)
  --------------------------------------------------------
      1 O                    -0.483570       0.000000
      2 C                     0.384665       0.000000
      3 C                    -0.371175       0.000000
      4 C                    -0.371174      -0.000000
      5 H                     0.132544       0.000000
      6 H                     0.132470      -0.000000
      7 H                     0.155613      -0.000000
      8 H                     0.155613       0.000000
      9 H                     0.132545       0.000000
     10 H                     0.132469       0.000000
  --------------------------------------------------------
  Sum of atomic charges =     0.000000

                    Cartesian Multipole Moments
 -----------------------------------------------------------------
    Charge (ESU x 10^10)
                 0.0000
    Dipole Moment (Debye)
         X      -0.0007      Y       3.5984      Z      -0.0042
       Tot       3.5984
    Quadrupole Moments (Debye-Ang)
        XX     -22.6667     XY       0.0011     YY     -28.2482
        XZ       0.0000     YZ       0.0050     ZZ     -24.1032

 Final energy is   -193.130450133760
 **  OPTIMIZATION CONVERGED  **
 Total job time:  18.39s(wall), 210.30s(cpu)
        *  Thank you very much for using Q-Chem.  Have a nice day.  *
