 Q-Chem 5.1, Q-Chem, Inc., Pleasanton, CA (2018)
 Q-Chem 5.1.1 for Intel X86 EM64T Linux

User input:
--------------------------------------------------------------

$comment
potential surface scanner
$end

$rem
JOBTYPE  PES_SCAN
UNRESTRICTED TRUE
SYM_IGNORE  TRUE
GEOM_OPT_MAX_CYCLES 400
SCF_MAX_CYCLES 400
METHOD   B3LYP
BASIS   6-31G**
PDB_PRINT 2
SCF_CONVERGENCE 6
THRESH 14
SCF_PRINT 1
$end
$molecule
0 1
O 0.000243 -1.315604 0.001463
C 0.000008 -0.115605 0.000582
C 1.292268 0.689727 -0.000201
C -1.292570 0.689218 -0.000214
H 1.338863 1.339902 -0.881571
H 1.337920 1.343744 0.878349
H 2.148417 0.013836 0.001635
H -2.148453 0.012990 0.001635
H -1.339419 1.339357 -0.881598
H -1.338477 1.343237 0.878321
$end
$scan
stre 1 2 1.300000 1.301000 0.100000
$end
--------------------------------------------------------------

    9    -193.1638412353      2.27e-07  Convergence criterion met
 Total energy in the final basis set =     -193.1638412353
    9    -193.1557672747      2.48e-07  Convergence criterion met
 Total energy in the final basis set =     -193.1557672747
    9    -193.1555336953      2.39e-07  Convergence criterion met
 Total energy in the final basis set =     -193.1555336953
    9    -193.1555767132      2.44e-07  Convergence criterion met
 Total energy in the final basis set =     -193.1555767132

             Standard Nuclear Orientation (Angstroms)
    I     Atom           X                Y                Z
 ----------------------------------------------------------------
    1      O       0.0002553161    -1.3714292520     0.0016895814
    2      C      -0.0000015403    -0.0714298186     0.0005914624
    3      C       1.2955435863     0.6954442704    -0.0002308963
    4      C      -1.2958487186     0.6949340560    -0.0002441590
    5      H       1.3550289855     1.3461884363    -0.8812526510
    6      H       1.3542436862     1.3499311174     0.8780464613
    7      H       2.1359648569     0.0014748271     0.0015309390
    8      H      -2.1359969932     0.0006345669     0.0015305352
    9      H      -1.3555862208     1.3456369969    -0.8812794001
   10      H      -1.3548029582     1.3494167998     0.8780191272
 ----------------------------------------------------------------

    9    -193.1555784805      2.46e-07  Convergence criterion met
 Total energy in the final basis set =     -193.1555784805

                    Orbital Energies (a.u.)
 --------------------------------------------------------------

 Alpha MOs
 -- Occupied --
-19.134 -10.284 -10.196 -10.196  -0.990  -0.774  -0.715  -0.536
 -0.457  -0.453  -0.448  -0.407  -0.381  -0.380  -0.324  -0.243

 Beta MOs
 -- Occupied --
-19.134 -10.284 -10.196 -10.196  -0.990  -0.774  -0.715  -0.536
 -0.457  -0.453  -0.448  -0.407  -0.381  -0.380  -0.324  -0.243

          Ground-State Mulliken Net Atomic Charges

     Atom                 Charge (a.u.)    Spin (a.u.)
  --------------------------------------------------------
      1 O                    -0.464880      -0.000000
      2 C                     0.410918       0.000000
      3 C                    -0.377990      -0.000000
      4 C                    -0.377989      -0.000000
      5 H                     0.129077      -0.000000
      6 H                     0.128998       0.000000
      7 H                     0.146896       0.000000
      8 H                     0.146895       0.000000
      9 H                     0.129077       0.000000
     10 H                     0.128997       0.000000
  --------------------------------------------------------
  Sum of atomic charges =     0.000000

                    Cartesian Multipole Moments
 -----------------------------------------------------------------
    Charge (ESU x 10^10)
                -0.0000
    Dipole Moment (Debye)
         X      -0.0006      Y       3.2118      Z      -0.0036
       Tot       3.2118
    Quadrupole Moments (Debye-Ang)
        XX     -23.0398     XY       0.0009     YY     -27.9994
        XZ       0.0000     YZ       0.0043     ZZ     -23.9981

 Final energy is   -193.155578480525
 **  OPTIMIZATION CONVERGED  **
 Total job time:  13.01s(wall), 145.44s(cpu)
        *  Thank you very much for using Q-Chem.  Have a nice day.  *
