 Q-Chem 5.1, Q-Chem, Inc., Pleasanton, CA (2018)
 Q-Chem 5.1.1 for Intel X86 EM64T Linux

User input:
--------------------------------------------------------------

$comment
potential surface scanner
$end

$rem
JOBTYPE  PES_SCAN
UNRESTRICTED TRUE
SYM_IGNORE  TRUE
GEOM_OPT_MAX_CYCLES 400
SCF_MAX_CYCLES 400
METHOD   B3LYP
BASIS   6-31G**
PDB_PRINT 2
SCF_CONVERGENCE 6
THRESH 14
SCF_PRINT 1
$end
$molecule
0 1
O 0.000268 -1.430250 0.001899
C -0.000010 -0.030251 0.000584
C 1.300873 0.701930 -0.000259
C -1.301181 0.701418 -0.000272
H 1.373168 1.353052 -0.881011
H 1.372506 1.356709 0.877814
H 2.125428 -0.009828 0.001448
H -2.125457 -0.010663 0.001447
H -1.373727 1.352495 -0.881037
H -1.373068 1.356188 0.877788
$end
$scan
stre 1 2 1.500000 1.501000 0.100000
$end
--------------------------------------------------------------

   10    -193.1304502344      2.66e-07  Convergence criterion met
 Total energy in the final basis set =     -193.1304502344
   10    -193.1036420017      5.76e-07  Convergence criterion met
 Total energy in the final basis set =     -193.1036420017
   10    -193.0978941109      6.23e-07  Convergence criterion met
 Total energy in the final basis set =     -193.0978941109
   10    -193.0977415297      6.38e-07  Convergence criterion met
 Total energy in the final basis set =     -193.0977415297
   10    -193.0978114075      6.61e-07  Convergence criterion met
 Total energy in the final basis set =     -193.0978114075
   10    -193.0978150986      6.61e-07  Convergence criterion met
 Total energy in the final basis set =     -193.0978150986

             Standard Nuclear Orientation (Angstroms)
    I     Atom           X                Y                Z
 ----------------------------------------------------------------
    1      O       0.0002798773    -1.4922108456     0.0020881821
    2      C      -0.0000176376     0.0077879901     0.0005657191
    3      C       1.3067836658     0.7090295320    -0.0002842555
    4      C      -1.3070943358     0.7085156429    -0.0002971299
    5      H       1.3910073999     1.3600640883    -0.8810196137
    6      H       1.3904363818     1.3636494061     0.8778283900
    7      H       2.1165978653    -0.0189127049     0.0013819993
    8      H      -2.1166224044    -0.0197442874     0.0013806355
    9      H      -1.3915689733     1.3595006395    -0.8810451791
   10      H      -1.3910018390     1.3631205390     0.8778022521
 ----------------------------------------------------------------

   10    -193.0978196954      6.61e-07  Convergence criterion met
 Total energy in the final basis set =     -193.0978196954

                    Orbital Energies (a.u.)
 --------------------------------------------------------------

 Alpha MOs
 -- Occupied --
-19.131 -10.296 -10.206 -10.206  -0.911  -0.785  -0.725  -0.548
 -0.460  -0.454  -0.450  -0.415  -0.389  -0.350  -0.279  -0.234

 Beta MOs
 -- Occupied --
-19.131 -10.296 -10.206 -10.206  -0.911  -0.785  -0.725  -0.548
 -0.460  -0.454  -0.450  -0.415  -0.389  -0.350  -0.279  -0.234

          Ground-State Mulliken Net Atomic Charges

     Atom                 Charge (a.u.)    Spin (a.u.)
  --------------------------------------------------------
      1 O                    -0.483855      -0.000000
      2 C                     0.350476       0.000000
      3 C                    -0.367961      -0.000000
      4 C                    -0.367960       0.000000
      5 H                     0.135703       0.000000
      6 H                     0.135633      -0.000000
      7 H                     0.163314      -0.000000
      8 H                     0.163314       0.000000
      9 H                     0.135704       0.000000
     10 H                     0.135632      -0.000000
  --------------------------------------------------------
  Sum of atomic charges =     0.000000

                    Cartesian Multipole Moments
 -----------------------------------------------------------------
    Charge (ESU x 10^10)
                -0.0000
    Dipole Moment (Debye)
         X      -0.0008      Y       3.9340      Z      -0.0048
       Tot       3.9340
    Quadrupole Moments (Debye-Ang)
        XX     -22.3457     XY       0.0012     YY     -28.4702
        XZ       0.0000     YZ       0.0058     ZZ     -24.1881

 Final energy is   -193.097819695394
 **  OPTIMIZATION CONVERGED  **
 Total job time:  18.77s(wall), 213.42s(cpu)
        *  Thank you very much for using Q-Chem.  Have a nice day.  *
