 Q-Chem 5.1, Q-Chem, Inc., Pleasanton, CA (2018)
 Q-Chem 5.1.1 for Intel X86 EM64T Linux

User input:
--------------------------------------------------------------

$comment
potential surface scanner
$end

$rem
JOBTYPE  PES_SCAN
UNRESTRICTED TRUE
SYM_IGNORE  TRUE
GEOM_OPT_MAX_CYCLES 400
SCF_MAX_CYCLES 400
METHOD   B3LYP
BASIS   6-31G**
PDB_PRINT 2
SCF_CONVERGENCE 6
THRESH 14
SCF_PRINT 1
$end
$molecule
0 1
O 0.000245 -1.324185 0.001318
C 0.000006 -0.108337 0.000516
C 1.292608 0.690621 -0.000167
C -1.292911 0.690111 -0.000180
H 1.341317 1.340746 -0.881573
H 1.340289 1.344705 0.878329
H 2.146232 0.011795 0.001728
H -2.146269 0.010951 0.001729
H -1.341872 1.340198 -0.881600
H -1.340845 1.344196 0.878300
$end
$scan
stre 1 2 1.100000 1.101000 0.100000
$end
--------------------------------------------------------------

    9    -193.1642194691      2.17e-07  Convergence criterion met
 Total energy in the final basis set =     -193.1642194691
    9    -193.1462168865      1.88e-07  Convergence criterion met
 Total energy in the final basis set =     -193.1462168865
    9    -193.1381850484      1.78e-07  Convergence criterion met
 Total energy in the final basis set =     -193.1381850484
    9    -193.1383974333      1.84e-07  Convergence criterion met
 Total energy in the final basis set =     -193.1383974333
    9    -193.1385197588      1.90e-07  Convergence criterion met
 Total energy in the final basis set =     -193.1385197588
    9    -193.1385260806      1.91e-07  Convergence criterion met
 Total energy in the final basis set =     -193.1385260806

             Standard Nuclear Orientation (Angstroms)
    I     Atom           X                Y                Z
 ----------------------------------------------------------------
    1      O       0.0002330696    -1.2636985431     0.0014628957
    2      C       0.0000171200    -0.1636986922     0.0006268087
    3      C       1.2924352355     0.6850314612    -0.0002042289
    4      C      -1.2927352867     0.6845228576    -0.0002174919
    5      H       1.3249993548     1.3339587379    -0.8823259029
    6      H       1.3240398756     1.3377576928     0.8791230183
    7      H       2.1651178213     0.0285524102     0.0015960176
    8      H      -2.1651591419     0.0277003906     0.0015963323
    9      H      -1.3255537518     1.3334187930    -0.8823527639
   10      H      -1.3245942965     1.3372558920     0.8790953148
 ----------------------------------------------------------------

    9    -193.1385295720      1.90e-07  Convergence criterion met
 Total energy in the final basis set =     -193.1385295720

                    Orbital Energies (a.u.)
 --------------------------------------------------------------

 Alpha MOs
 -- Occupied --
-19.140 -10.269 -10.182 -10.182  -1.109  -0.755  -0.702  -0.522
 -0.472  -0.466  -0.451  -0.403  -0.396  -0.377  -0.376  -0.240

 Beta MOs
 -- Occupied --
-19.140 -10.269 -10.182 -10.182  -1.109  -0.755  -0.702  -0.522
 -0.472  -0.466  -0.451  -0.403  -0.396  -0.377  -0.376  -0.240

          Ground-State Mulliken Net Atomic Charges

     Atom                 Charge (a.u.)    Spin (a.u.)
  --------------------------------------------------------
      1 O                    -0.337677      -0.000000
      2 C                     0.413977       0.000000
      3 C                    -0.405728      -0.000000
      4 C                    -0.405728      -0.000000
      5 H                     0.120943      -0.000000
      6 H                     0.120877      -0.000000
      7 H                     0.125757       0.000000
      8 H                     0.125757       0.000000
      9 H                     0.120944       0.000000
     10 H                     0.120877       0.000000
  --------------------------------------------------------
  Sum of atomic charges =    -0.000000

                    Cartesian Multipole Moments
 -----------------------------------------------------------------
    Charge (ESU x 10^10)
                 0.0000
    Dipole Moment (Debye)
         X      -0.0004      Y       2.1851      Z      -0.0025
       Tot       2.1851
    Quadrupole Moments (Debye-Ang)
        XX     -24.0274     XY       0.0006     YY     -27.3053
        XZ       0.0000     YZ       0.0032     ZZ     -23.7492

 Final energy is   -193.138529571986
 **  OPTIMIZATION CONVERGED  **
 Total job time:  18.90s(wall), 206.24s(cpu)
        *  Thank you very much for using Q-Chem.  Have a nice day.  *
