 Q-Chem 5.1, Q-Chem, Inc., Pleasanton, CA (2018)
 Q-Chem 5.1.1 for Intel X86 EM64T Linux

User input:
--------------------------------------------------------------

$comment
potential surface scanner
$end

$rem
JOBTYPE  PES_SCAN
UNRESTRICTED TRUE
SYM_IGNORE  TRUE
GEOM_OPT_MAX_CYCLES 400
SCF_MAX_CYCLES 400
METHOD   B3LYP
BASIS   6-31G**
PDB_PRINT 2
SCF_CONVERGENCE 6
THRESH 14
SCF_PRINT 1
$end
$molecule
0 1
C 0.034100 0.572900 -0.443500
H 0.076700 0.782000 -1.512400
C 0.317600 1.856700 0.339100
H -0.478400 2.578000 0.154400
H 0.362900 1.630300 1.404300
C 1.654900 2.445600 -0.114500
H 1.856900 3.360200 0.443000
H 2.450900 1.724300 0.070100
H 1.609600 2.672000 -1.179800
Se -1.749100 -0.095100 0.021000
H -1.828300 -1.374900 -0.867600
Se 1.377500 -0.779800 0.011600
H 1.146900 -0.923300 1.547800
$end
$scan
stre 1 10 1.800000 1.801000 0.100000
$end
--------------------------------------------------------------

    9   -4921.7163210720      6.91e-07  Convergence criterion met
 Total energy in the final basis set =    -4921.7163210720
    9   -4921.7141679247      7.40e-07  Convergence criterion met
 Total energy in the final basis set =    -4921.7141679247
    9   -4921.7151383003      7.82e-07  Convergence criterion met
 Total energy in the final basis set =    -4921.7151383003
    9   -4921.7165150914      8.19e-07  Convergence criterion met
 Total energy in the final basis set =    -4921.7165150914
    9   -4921.7167698610      8.22e-07  Convergence criterion met
 Total energy in the final basis set =    -4921.7167698610
    9   -4921.7170236406      8.15e-07  Convergence criterion met
 Total energy in the final basis set =    -4921.7170236406
    9   -4921.7170560721      8.09e-07  Convergence criterion met
 Total energy in the final basis set =    -4921.7170560721
    9   -4921.7170987150      7.99e-07  Convergence criterion met
    9   -4921.7172091933      7.78e-07  Convergence criterion met
 Total energy in the final basis set =    -4921.7172091933
    9   -4921.7172453552      7.77e-07  Convergence criterion met
 Total energy in the final basis set =    -4921.7172453552
    9   -4921.7172816462      7.84e-07  Convergence criterion met
 Total energy in the final basis set =    -4921.7172816462
    9   -4921.7172941082      7.90e-07  Convergence criterion met
 Total energy in the final basis set =    -4921.7172941082
    9   -4921.7172976159      7.91e-07  Convergence criterion met
 Total energy in the final basis set =    -4921.7172976159
    9   -4921.7172992171      7.92e-07  Convergence criterion met
 Total energy in the final basis set =    -4921.7172992171

             Standard Nuclear Orientation (Angstroms)
    I     Atom           X                Y                Z
 ----------------------------------------------------------------
    1      C       0.0177055933     0.5038961842    -0.3578114565
    2      H       0.1630053537     0.6419326892    -1.4329799491
    3      C       0.3401236754     1.8416060330     0.3467498835
    4      H      -0.5006400411     2.5261572600     0.1666956094
    5      H       0.3811001531     1.6783886560     1.4299026759
    6      C       1.6284562495     2.5070709814    -0.1390959765
    7      H       1.7820505691     3.4602795668     0.3760291875
    8      H       2.4986369801     1.8730210289     0.0502221443
    9      H       1.5840440443     2.7142208040    -1.2143337219
   10      Se     -1.6784748097     0.0259475591     0.0089822650
   11      H      -1.7030155730    -1.2216317974    -0.7790802529
   12      Se      1.4158069123    -0.9114613529     0.0310200876
   13      H       0.9034008931    -1.1905276121     1.3871995039
 ----------------------------------------------------------------

    9   -4921.7172997890      7.92e-07  Convergence criterion met
 Total energy in the final basis set =    -4921.7172997890

                    Orbital Energies (a.u.)
 --------------------------------------------------------------

 Alpha MOs
 -- Occupied --
*******-453.896 -58.099 -58.091 -52.156 -52.155 -52.153 -52.149
-52.148 -52.145 -10.250 -10.206 -10.183  -7.833  -7.825  -5.779
 -5.775  -5.770  -5.766  -5.766  -5.757  -2.113  -2.112  -2.105
 -2.104  -2.103  -2.101  -2.100  -2.095  -2.092  -2.091  -0.833
 -0.750  -0.696  -0.643  -0.581  -0.468  -0.456  -0.435  -0.387
 -0.376  -0.363  -0.356  -0.343  -0.314  -0.241  -0.220

 Beta MOs
 -- Occupied --
*******-453.896 -58.099 -58.091 -52.156 -52.155 -52.153 -52.149
-52.148 -52.145 -10.250 -10.206 -10.183  -7.833  -7.825  -5.779
 -5.775  -5.770  -5.766  -5.766  -5.757  -2.113  -2.112  -2.105
 -2.104  -2.103  -2.101  -2.100  -2.095  -2.092  -2.091  -0.833
 -0.750  -0.696  -0.643  -0.581  -0.468  -0.456  -0.435  -0.387
 -0.376  -0.363  -0.356  -0.343  -0.314  -0.241  -0.220

          Ground-State Mulliken Net Atomic Charges

     Atom                 Charge (a.u.)    Spin (a.u.)
  --------------------------------------------------------
      1 C                    -0.200611      -0.000000
      2 H                     0.148053       0.000000
      3 C                    -0.195902      -0.000000
      4 H                     0.120562       0.000000
      5 H                     0.122015       0.000000
      6 C                    -0.329166      -0.000000
      7 H                     0.109910      -0.000000
      8 H                     0.138829       0.000000
      9 H                     0.105611       0.000000
     10 Se                   -0.060972       0.000000
     11 H                     0.065341       0.000000
     12 Se                   -0.089878       0.000000
     13 H                     0.066208      -0.000000
  --------------------------------------------------------
  Sum of atomic charges =     0.000000

                    Cartesian Multipole Moments
 -----------------------------------------------------------------
    Charge (ESU x 10^10)
                 0.0000
    Dipole Moment (Debye)
         X       0.0333      Y       0.9089      Z      -0.1913
       Tot       0.9294
    Quadrupole Moments (Debye-Ang)
        XX     -61.3242     XY       2.5232     YY     -55.7667
        XZ       0.6945     YZ      -0.2021     ZZ     -55.8754

 Final energy is   -4921.71729978904
 **  OPTIMIZATION CONVERGED  **
 Total job time:  96.78s(wall), 1138.26s(cpu)
        *  Thank you very much for using Q-Chem.  Have a nice day.  *
