 Q-Chem 5.1, Q-Chem, Inc., Pleasanton, CA (2018)
 Q-Chem 5.1.1 for Intel X86 EM64T Linux

User input:
--------------------------------------------------------------

$comment
potential surface scanner
$end

$rem
JOBTYPE  PES_SCAN
UNRESTRICTED TRUE
SYM_IGNORE  TRUE
GEOM_OPT_MAX_CYCLES 400
SCF_MAX_CYCLES 400
METHOD   B3LYP
BASIS   6-31G**
PDB_PRINT 2
SCF_CONVERGENCE 6
THRESH 14
SCF_PRINT 1
$end
$molecule
0 1
C 0.034100 0.572900 -0.443500
H 0.076700 0.782000 -1.512400
C 0.317600 1.856700 0.339100
H -0.478400 2.578000 0.154400
H 0.362900 1.630300 1.404300
C 1.654900 2.445600 -0.114500
H 1.856900 3.360200 0.443000
H 2.450900 1.724300 0.070100
H 1.609600 2.672000 -1.179800
Se -1.749100 -0.095100 0.021000
H -1.828300 -1.374900 -0.867600
Se 1.377500 -0.779800 0.011600
H 1.146900 -0.923300 1.547800
$end
$scan
stre 1 10 1.400000 1.401000 0.100000
$end
--------------------------------------------------------------

    9   -4921.7163210720      6.91e-07  Convergence criterion met
 Total energy in the final basis set =    -4921.7163210720
    9   -4921.7141679247      7.40e-07  Convergence criterion met
 Total energy in the final basis set =    -4921.7141679247
    9   -4921.6906793461      8.52e-07  Convergence criterion met
 Total energy in the final basis set =    -4921.6906793461
    9   -4921.6348557924      9.80e-07  Convergence criterion met
 Total energy in the final basis set =    -4921.6348557924
   10   -4921.5427857104      6.76e-07  Convergence criterion met
 Total energy in the final basis set =    -4921.5427857104
   10   -4921.4883576377      7.69e-07  Convergence criterion met
 Total energy in the final basis set =    -4921.4883576377
   10   -4921.4866060367      7.86e-07  Convergence criterion met
 Total energy in the final basis set =    -4921.4866060367
   10   -4921.4885313640      8.67e-07  Convergence criterion met
   11   -4921.4907534779      2.70e-07  Convergence criterion met
 Total energy in the final basis set =    -4921.4907534779
   11   -4921.4908535454      2.70e-07  Convergence criterion met
 Total energy in the final basis set =    -4921.4908535454
   11   -4921.4908623801      2.70e-07  Convergence criterion met
 Total energy in the final basis set =    -4921.4908623801
   11   -4921.4908941258      2.70e-07  Convergence criterion met
 Total energy in the final basis set =    -4921.4908941258
   11   -4921.4909018654      2.69e-07  Convergence criterion met
 Total energy in the final basis set =    -4921.4909018654
   11   -4921.4909074672      2.69e-07  Convergence criterion met
 Total energy in the final basis set =    -4921.4909074672

             Standard Nuclear Orientation (Angstroms)
    I     Atom           X                Y                Z
 ----------------------------------------------------------------
    1      C      -0.1517029129     0.5282775694    -0.3082710629
    2      H       0.2106723018     0.5797252747    -1.3322555065
    3      C       0.2888253763     1.8699932819     0.3767587060
    4      H      -0.5332345631     2.5883302675     0.2465043646
    5      H       0.3953835673     1.7017446686     1.4527905280
    6      C       1.5673491547     2.4791309883    -0.1970517476
    7      H       1.7645405614     3.4412760110     0.2852269655
    8      H       2.4270110991     1.8275878846    -0.0276907870
    9      H       1.4707063607     2.6608509783    -1.2731914959
   10      Se     -1.4347392856     0.0709141244     0.0152050417
   11      H      -1.7068551709    -1.0000110787    -0.9840244658
   12      Se      1.6344478513    -0.9163058085     0.2122979090
   13      H       0.8997956598    -1.3826141615     1.4072015509
 ----------------------------------------------------------------

   11   -4921.4909083197      2.69e-07  Convergence criterion met
 Total energy in the final basis set =    -4921.4909083197

                    Orbital Energies (a.u.)
 --------------------------------------------------------------

 Alpha MOs
 -- Occupied --
*******-453.858 -58.129 -58.054 -52.185 -52.183 -52.183 -52.111
-52.110 -52.108 -10.245 -10.220 -10.187  -7.872  -7.787  -5.819
 -5.811  -5.806  -5.732  -5.728  -5.720  -2.157  -2.151  -2.145
 -2.140  -2.140  -2.065  -2.065  -2.058  -2.055  -2.053  -0.918
 -0.776  -0.660  -0.648  -0.584  -0.514  -0.472  -0.448  -0.402
 -0.380  -0.374  -0.351  -0.342  -0.322  -0.214  -0.202

 Beta MOs
 -- Occupied --
*******-453.858 -58.129 -58.054 -52.185 -52.183 -52.183 -52.111
-52.110 -52.108 -10.245 -10.220 -10.187  -7.872  -7.787  -5.819
 -5.811  -5.806  -5.732  -5.728  -5.720  -2.157  -2.151  -2.145
 -2.140  -2.140  -2.065  -2.065  -2.058  -2.055  -2.053  -0.918
 -0.776  -0.660  -0.648  -0.584  -0.514  -0.472  -0.448  -0.402
 -0.380  -0.374  -0.351  -0.342  -0.322  -0.214  -0.202

          Ground-State Mulliken Net Atomic Charges

     Atom                 Charge (a.u.)    Spin (a.u.)
  --------------------------------------------------------
      1 C                    -0.123752      -0.000000
      2 H                     0.156023       0.000000
      3 C                    -0.219935      -0.000000
      4 H                     0.119597      -0.000000
      5 H                     0.141025       0.000000
      6 C                    -0.329085       0.000000
      7 H                     0.111571      -0.000000
      8 H                     0.154199      -0.000000
      9 H                     0.105093      -0.000000
     10 Se                    0.085500       0.000000
     11 H                     0.053342      -0.000000
     12 Se                   -0.296333       0.000000
     13 H                     0.042755       0.000000
  --------------------------------------------------------
  Sum of atomic charges =    -0.000000

                    Cartesian Multipole Moments
 -----------------------------------------------------------------
    Charge (ESU x 10^10)
                -0.0000
    Dipole Moment (Debye)
         X      -2.3716      Y       2.1524      Z      -0.8188
       Tot       3.3057
    Quadrupole Moments (Debye-Ang)
        XX     -62.5709     XY       4.6612     YY     -56.3634
        XZ       0.2183     YZ      -0.3471     ZZ     -55.1967

 Final energy is   -4921.49090831973
 **  OPTIMIZATION CONVERGED  **
 Total job time:  217.43s(wall), 2565.85s(cpu)
        *  Thank you very much for using Q-Chem.  Have a nice day.  *
