 Q-Chem 5.1, Q-Chem, Inc., Pleasanton, CA (2018)
 Q-Chem 5.1.1 for Intel X86 EM64T Linux

User input:
--------------------------------------------------------------

$comment
potential surface scanner
$end

$rem
JOBTYPE  PES_SCAN
UNRESTRICTED TRUE
SYM_IGNORE  TRUE
GEOM_OPT_MAX_CYCLES 400
SCF_MAX_CYCLES 400
METHOD   B3LYP
BASIS   6-31G**
PDB_PRINT 2
SCF_CONVERGENCE 6
THRESH 14
SCF_PRINT 1
$end
$molecule
0 1
C 0.148842 0.501724 -0.428283
H 0.113598 0.618753 -1.510840
C 0.373576 1.811317 0.310078
H -0.472280 2.469482 0.077529
H 0.343586 1.632677 1.390783
C 1.682105 2.517077 -0.072619
H 1.753964 3.478303 0.446136
H 2.555108 1.916643 0.195434
H 1.725907 2.714962 -1.149034
Se -2.032191 -0.058588 0.039847
H -1.976789 -1.305098 -0.748755
Se 1.379694 -0.962527 -0.071092
H 1.237081 -0.885830 1.394312
$end
$scan
stre 1 10 2.400000 2.401000 0.100000
$end
--------------------------------------------------------------

   10   -4921.7166863379      5.26e-07  Convergence criterion met
 Total energy in the final basis set =    -4921.7166863379
   10   -4921.7098025686      5.16e-07  Convergence criterion met
 Total energy in the final basis set =    -4921.7098025686
   10   -4921.7097910773      5.06e-07  Convergence criterion met
 Total energy in the final basis set =    -4921.7097910773
   10   -4921.7098673396      5.00e-07  Convergence criterion met
 Total energy in the final basis set =    -4921.7098673396
   10   -4921.7098730436      5.01e-07  Convergence criterion met
 Total energy in the final basis set =    -4921.7098730436
   10   -4921.7098767218      5.01e-07  Convergence criterion met
 Total energy in the final basis set =    -4921.7098767218

             Standard Nuclear Orientation (Angstroms)
    I     Atom           X                Y                Z
 ----------------------------------------------------------------
    1      C       0.1836894596     0.4988766188    -0.4352119682
    2      H       0.1211316717     0.6075508089    -1.5166310537
    3      C       0.3845888330     1.8045558268     0.3086110759
    4      H      -0.4674926201     2.4526886992     0.0737670203
    5      H       0.3533750403     1.6222827360     1.3884026331
    6      C       1.6885302930     2.5255822536    -0.0681215795
    7      H       1.7467618675     3.4864432301     0.4529457965
    8      H       2.5671468157     1.9345295495     0.2027148259
    9      H       1.7343339236     2.7258759143    -1.1438747477
   10      Se     -2.0999026542    -0.0690154392     0.0367046617
   11      H      -2.0379577269    -1.3136300603    -0.7552053719
   12      Se      1.3842453776    -0.9709899700    -0.0679885488
   13      H       1.2737507192    -0.8558551677     1.3973832565
 ----------------------------------------------------------------

   10   -4921.7098776071      5.01e-07  Convergence criterion met
 Total energy in the final basis set =    -4921.7098776071

                    Orbital Energies (a.u.)
 --------------------------------------------------------------

 Alpha MOs
 -- Occupied --
*******-453.885 -58.111 -58.079 -52.168 -52.167 -52.165 -52.137
-52.136 -52.133 -10.272 -10.210 -10.191  -7.844  -7.812  -5.790
 -5.786  -5.777  -5.757  -5.754  -5.744  -2.124  -2.123  -2.115
 -2.112  -2.111  -2.091  -2.090  -2.082  -2.080  -2.078  -0.816
 -0.740  -0.678  -0.651  -0.588  -0.472  -0.446  -0.421  -0.397
 -0.382  -0.362  -0.354  -0.337  -0.301  -0.236  -0.218

 Beta MOs
 -- Occupied --
*******-453.885 -58.111 -58.079 -52.168 -52.167 -52.165 -52.137
-52.136 -52.133 -10.272 -10.210 -10.191  -7.844  -7.812  -5.790
 -5.786  -5.777  -5.757  -5.754  -5.744  -2.124  -2.123  -2.115
 -2.112  -2.111  -2.091  -2.090  -2.082  -2.080  -2.078  -0.816
 -0.740  -0.678  -0.651  -0.588  -0.472  -0.446  -0.421  -0.397
 -0.382  -0.362  -0.354  -0.337  -0.301  -0.236  -0.218

          Ground-State Mulliken Net Atomic Charges

     Atom                 Charge (a.u.)    Spin (a.u.)
  --------------------------------------------------------
      1 C                    -0.190086       0.000000
      2 H                     0.161431      -0.000000
      3 C                    -0.186909      -0.000000
      4 H                     0.132212       0.000000
      5 H                     0.121334       0.000000
      6 C                    -0.326690       0.000000
      7 H                     0.114471      -0.000000
      8 H                     0.131371       0.000000
      9 H                     0.110735      -0.000000
     10 Se                   -0.185927       0.000000
     11 H                     0.058776       0.000000
     12 Se                   -0.009751       0.000000
     13 H                     0.069033      -0.000000
  --------------------------------------------------------
  Sum of atomic charges =    -0.000000

                    Cartesian Multipole Moments
 -----------------------------------------------------------------
    Charge (ESU x 10^10)
                 0.0000
    Dipole Moment (Debye)
         X       1.9298      Y       0.9870      Z      -0.1020
       Tot       2.1699
    Quadrupole Moments (Debye-Ang)
        XX     -63.0313     XY       1.7052     YY     -55.0672
        XZ       1.5933     YZ       0.7304     ZZ     -55.5471

 Final energy is   -4921.70987760708
 **  OPTIMIZATION CONVERGED  **
 Total job time:  44.09s(wall), 517.47s(cpu)
        *  Thank you very much for using Q-Chem.  Have a nice day.  *
