 Q-Chem 5.1, Q-Chem, Inc., Pleasanton, CA (2018)
 Q-Chem 5.1.1 for Intel X86 EM64T Linux

User input:
--------------------------------------------------------------

$comment
potential surface scanner
$end

$rem
JOBTYPE  PES_SCAN
UNRESTRICTED TRUE
SYM_IGNORE  TRUE
GEOM_OPT_MAX_CYCLES 400
SCF_MAX_CYCLES 400
METHOD   B3LYP
BASIS   6-31G**
PDB_PRINT 2
SCF_CONVERGENCE 6
THRESH 14
SCF_PRINT 1
$end
$molecule
0 1
C 0.034100 0.572900 -0.443500
H 0.076700 0.782000 -1.512400
C 0.317600 1.856700 0.339100
H -0.478400 2.578000 0.154400
H 0.362900 1.630300 1.404300
C 1.654900 2.445600 -0.114500
H 1.856900 3.360200 0.443000
H 2.450900 1.724300 0.070100
H 1.609600 2.672000 -1.179800
Se -1.749100 -0.095100 0.021000
H -1.828300 -1.374900 -0.867600
Se 1.377500 -0.779800 0.011600
H 1.146900 -0.923300 1.547800
$end
$scan
stre 1 10 1.600000 1.601000 0.100000
$end
--------------------------------------------------------------

    9   -4921.7163210720      6.91e-07  Convergence criterion met
 Total energy in the final basis set =    -4921.7163210720
    9   -4921.7141679247      7.40e-07  Convergence criterion met
 Total energy in the final basis set =    -4921.7141679247
    9   -4921.6906793461      8.52e-07  Convergence criterion met
 Total energy in the final basis set =    -4921.6906793461
    9   -4921.6560277630      9.62e-07  Convergence criterion met
 Total energy in the final basis set =    -4921.6560277630
    9   -4921.6560631647      9.86e-07  Convergence criterion met
 Total energy in the final basis set =    -4921.6560631647
   10   -4921.6573085855      5.48e-07  Convergence criterion met
 Total energy in the final basis set =    -4921.6573085855
   10   -4921.6574142287      5.39e-07  Convergence criterion met
 Total energy in the final basis set =    -4921.6574142287
    9   -4921.6575871780      9.88e-07  Convergence criterion met
   10   -4921.6580138252      5.09e-07  Convergence criterion met
 Total energy in the final basis set =    -4921.6580138252
   10   -4921.6580167701      5.08e-07  Convergence criterion met
 Total energy in the final basis set =    -4921.6580167701
   10   -4921.6580181321      5.08e-07  Convergence criterion met
 Total energy in the final basis set =    -4921.6580181321
   10   -4921.6580228960      5.09e-07  Convergence criterion met
 Total energy in the final basis set =    -4921.6580228960
   10   -4921.6580244241      5.09e-07  Convergence criterion met
 Total energy in the final basis set =    -4921.6580244241
   10   -4921.6580264755      5.09e-07  Convergence criterion met
 Total energy in the final basis set =    -4921.6580264755

             Standard Nuclear Orientation (Angstroms)
    I     Atom           X                Y                Z
 ----------------------------------------------------------------
    1      C      -0.0362743791     0.5045902466    -0.3201976829
    2      H       0.2093469633     0.6242698700    -1.3801810362
    3      C       0.3229513223     1.8586057155     0.3661228357
    4      H      -0.5162972315     2.5512546323     0.2120906267
    5      H       0.4051575945     1.6999763154     1.4468495207
    6      C       1.5977656792     2.5044027983    -0.1768270467
    7      H       1.7924244564     3.4506092484     0.3367798194
    8      H       2.4645088691     1.8545929944    -0.0289880777
    9      H       1.5056634568     2.7195375556    -1.2473250164
   10      Se     -1.5407660564     0.0622324780    -0.0026688995
   11      H      -1.6346674637    -1.1587721210    -0.8312676179
   12      Se      1.4769548391    -0.8808505928     0.1393872021
   13      H       0.7854319499    -1.3415491406     1.3597253728
 ----------------------------------------------------------------

   10   -4921.6580269916      5.08e-07  Convergence criterion met
 Total energy in the final basis set =    -4921.6580269916

                    Orbital Energies (a.u.)
 --------------------------------------------------------------

 Alpha MOs
 -- Occupied --
*******-453.888 -58.104 -58.083 -52.161 -52.159 -52.158 -52.141
-52.140 -52.137 -10.244 -10.209 -10.185  -7.841  -7.816  -5.787
 -5.782  -5.774  -5.762  -5.758  -5.748  -2.123  -2.120  -2.113
 -2.109  -2.108  -2.095  -2.095  -2.087  -2.084  -2.082  -0.865
 -0.763  -0.690  -0.643  -0.580  -0.482  -0.466  -0.437  -0.391
 -0.375  -0.365  -0.362  -0.342  -0.315  -0.235  -0.216

 Beta MOs
 -- Occupied --
*******-453.888 -58.104 -58.083 -52.161 -52.159 -52.158 -52.141
-52.140 -52.137 -10.244 -10.209 -10.185  -7.841  -7.816  -5.787
 -5.782  -5.774  -5.762  -5.758  -5.748  -2.123  -2.120  -2.113
 -2.109  -2.108  -2.095  -2.095  -2.087  -2.084  -2.082  -0.865
 -0.763  -0.690  -0.643  -0.580  -0.482  -0.466  -0.437  -0.391
 -0.375  -0.365  -0.362  -0.342  -0.315  -0.235  -0.216

          Ground-State Mulliken Net Atomic Charges

     Atom                 Charge (a.u.)    Spin (a.u.)
  --------------------------------------------------------
      1 C                    -0.154735       0.000000
      2 H                     0.144080      -0.000000
      3 C                    -0.207524      -0.000000
      4 H                     0.121201       0.000000
      5 H                     0.130181       0.000000
      6 C                    -0.330888       0.000000
      7 H                     0.111321      -0.000000
      8 H                     0.140300      -0.000000
      9 H                     0.106776      -0.000000
     10 Se                   -0.050618      -0.000000
     11 H                     0.059414       0.000000
     12 Se                   -0.132266      -0.000000
     13 H                     0.062758      -0.000000
  --------------------------------------------------------
  Sum of atomic charges =     0.000000

                    Cartesian Multipole Moments
 -----------------------------------------------------------------
    Charge (ESU x 10^10)
                -0.0000
    Dipole Moment (Debye)
         X      -0.4898      Y       1.1295      Z      -0.3676
       Tot       1.2849
    Quadrupole Moments (Debye-Ang)
        XX     -61.4669     XY       3.1162     YY     -55.5235
        XZ       0.3830     YZ      -0.4405     ZZ     -56.0291

 Final energy is   -4921.65802699162
 **  OPTIMIZATION CONVERGED  **
 Total job time:  186.63s(wall), 2109.15s(cpu)
        *  Thank you very much for using Q-Chem.  Have a nice day.  *
