 Q-Chem 5.1, Q-Chem, Inc., Pleasanton, CA (2018)
 Q-Chem 5.1.1 for Intel X86 EM64T Linux

User input:
--------------------------------------------------------------

$comment
potential surface scanner
$end

$rem
JOBTYPE  PES_SCAN
UNRESTRICTED TRUE
SYM_IGNORE  TRUE
GEOM_OPT_MAX_CYCLES 400
SCF_MAX_CYCLES 400
METHOD   B3LYP
BASIS   6-31G**
PDB_PRINT 2
SCF_CONVERGENCE 6
THRESH 14
SCF_PRINT 1
$end
$molecule
0 1
C 0.183689 0.498877 -0.435212
H 0.121132 0.607551 -1.516631
C 0.384589 1.804556 0.308611
H -0.467493 2.452689 0.073767
H 0.353375 1.622283 1.388403
C 1.688530 2.525582 -0.068122
H 1.746762 3.486443 0.452946
H 2.567147 1.934530 0.202715
H 1.734334 2.725876 -1.143875
Se -2.099903 -0.069015 0.036705
H -2.037958 -1.313630 -0.755205
Se 1.384245 -0.970990 -0.067989
H 1.273751 -0.855855 1.397383
$end
$scan
stre 1 10 2.500000 2.501000 0.100000
$end
--------------------------------------------------------------

   10   -4921.7098776110      5.01e-07  Convergence criterion met
 Total energy in the final basis set =    -4921.7098776110
   10   -4921.7028894636      8.49e-07  Convergence criterion met
 Total energy in the final basis set =    -4921.7028894636
   10   -4921.7028464196      8.64e-07  Convergence criterion met
 Total energy in the final basis set =    -4921.7028464196
   10   -4921.7029281736      8.93e-07  Convergence criterion met
 Total energy in the final basis set =    -4921.7029281736
   10   -4921.7029343955      9.01e-07  Convergence criterion met
 Total energy in the final basis set =    -4921.7029343955
   10   -4921.7029389004      9.08e-07  Convergence criterion met
 Total energy in the final basis set =    -4921.7029389004
   10   -4921.7029400504      9.07e-07  Convergence criterion met
 Total energy in the final basis set =    -4921.7029400504
   10   -4921.7029413988      9.05e-07  Convergence criterion met
 Total energy in the final basis set =    -4921.7029413988

             Standard Nuclear Orientation (Angstroms)
    I     Atom           X                Y                Z
 ----------------------------------------------------------------
    1      C       0.2144553020     0.4947557117    -0.4423048790
    2      H       0.1260793910     0.5942254558    -1.5221338684
    3      C       0.3931614810     1.7974226511     0.3052456628
    4      H      -0.4625139150     2.4372228364     0.0633845884
    5      H       0.3551849589     1.6137053312     1.3843497033
    6      C       1.6952267238     2.5308974050    -0.0604487731
    7      H       1.7381982784     3.4921420368     0.4613222180
    8      H       2.5771092552     1.9487250604     0.2190259694
    9      H       1.7492098453     2.7313681399    -1.1356184703
   10      Se     -2.1719004656    -0.0778773856     0.0345568341
   11      H      -2.1062705654    -1.3200192089    -0.7619262167
   12      Se      1.3881075718    -0.9787242414    -0.0684492591
   13      H       1.3361521386    -0.8149467923     1.3964924905
 ----------------------------------------------------------------

   10   -4921.7029417225      9.04e-07  Convergence criterion met
 Total energy in the final basis set =    -4921.7029417225

                    Orbital Energies (a.u.)
 --------------------------------------------------------------

 Alpha MOs
 -- Occupied --
*******-453.879 -58.116 -58.074 -52.173 -52.172 -52.170 -52.132
-52.131 -52.128 -10.275 -10.212 -10.193  -7.850  -7.807  -5.795
 -5.791  -5.782  -5.751  -5.749  -5.739  -2.128  -2.128  -2.121
 -2.117  -2.116  -2.085  -2.085  -2.076  -2.075  -2.073  -0.819
 -0.743  -0.675  -0.651  -0.590  -0.474  -0.450  -0.420  -0.401
 -0.384  -0.364  -0.352  -0.339  -0.299  -0.234  -0.214

 Beta MOs
 -- Occupied --
*******-453.879 -58.116 -58.074 -52.173 -52.172 -52.170 -52.132
-52.131 -52.128 -10.275 -10.212 -10.193  -7.850  -7.807  -5.795
 -5.791  -5.782  -5.751  -5.749  -5.739  -2.128  -2.128  -2.121
 -2.117  -2.116  -2.085  -2.085  -2.076  -2.075  -2.073  -0.819
 -0.743  -0.675  -0.651  -0.590  -0.474  -0.450  -0.420  -0.401
 -0.384  -0.364  -0.352  -0.339  -0.299  -0.234  -0.214

          Ground-State Mulliken Net Atomic Charges

     Atom                 Charge (a.u.)    Spin (a.u.)
  --------------------------------------------------------
      1 C                    -0.173922       0.000000
      2 H                     0.163464       0.000000
      3 C                    -0.189570      -0.000000
      4 H                     0.135975       0.000000
      5 H                     0.122790       0.000000
      6 C                    -0.326695       0.000000
      7 H                     0.115997      -0.000000
      8 H                     0.129540       0.000000
      9 H                     0.112130      -0.000000
     10 Se                   -0.223397      -0.000000
     11 H                     0.055959       0.000000
     12 Se                    0.007907       0.000000
     13 H                     0.069823      -0.000000
  --------------------------------------------------------
  Sum of atomic charges =     0.000000

                    Cartesian Multipole Moments
 -----------------------------------------------------------------
    Charge (ESU x 10^10)
                -0.0000
    Dipole Moment (Debye)
         X       2.4315      Y       1.0044      Z      -0.1050
       Tot       2.6329
    Quadrupole Moments (Debye-Ang)
        XX     -63.6400     XY       1.5601     YY     -54.8150
        XZ       1.7449     YZ       0.8713     ZZ     -55.5163

 Final energy is   -4921.70294172251
 **  OPTIMIZATION CONVERGED  **
 Total job time:  58.02s(wall), 667.67s(cpu)
        *  Thank you very much for using Q-Chem.  Have a nice day.  *
