 Q-Chem 5.1, Q-Chem, Inc., Pleasanton, CA (2018)
 Q-Chem 5.1.1 for Intel X86 EM64T Linux

User input:
--------------------------------------------------------------

$comment
potential surface scanner
$end

$rem
JOBTYPE  PES_SCAN
UNRESTRICTED TRUE
SYM_IGNORE  TRUE
GEOM_OPT_MAX_CYCLES 400
SCF_MAX_CYCLES 400
METHOD   B3LYP
BASIS   6-31G**
PDB_PRINT 2
SCF_CONVERGENCE 6
THRESH 14
SCF_PRINT 1
$end
$molecule
0 1
C 0.034100 0.572900 -0.443500
H 0.076700 0.782000 -1.512400
C 0.317600 1.856700 0.339100
H -0.478400 2.578000 0.154400
H 0.362900 1.630300 1.404300
C 1.654900 2.445600 -0.114500
H 1.856900 3.360200 0.443000
H 2.450900 1.724300 0.070100
H 1.609600 2.672000 -1.179800
Se -1.749100 -0.095100 0.021000
H -1.828300 -1.374900 -0.867600
Se 1.377500 -0.779800 0.011600
H 1.146900 -0.923300 1.547800
$end
$scan
stre 1 10 2.700000 2.701000 0.100000
$end
--------------------------------------------------------------

    9   -4921.7163210720      6.91e-07  Convergence criterion met
 Total energy in the final basis set =    -4921.7163210720
    9   -4921.7231013186      7.03e-07  Convergence criterion met
 Total energy in the final basis set =    -4921.7231013186
    9   -4921.7196607228      7.62e-07  Convergence criterion met
 Total energy in the final basis set =    -4921.7196607228
   10   -4921.7101286038      5.56e-07  Convergence criterion met
 Total energy in the final basis set =    -4921.7101286038
   10   -4921.6994365389      9.81e-07  Convergence criterion met
 Total energy in the final basis set =    -4921.6994365389
   11   -4921.6894672146      4.35e-07  Convergence criterion met
 Total energy in the final basis set =    -4921.6894672146
   11   -4921.6878842139      5.49e-07  Convergence criterion met
 Total energy in the final basis set =    -4921.6878842139
   11   -4921.6884882384      5.76e-07  Convergence criterion met
   11   -4921.6894458423      6.36e-07  Convergence criterion met
 Total energy in the final basis set =    -4921.6894458423
   11   -4921.6894760346      6.40e-07  Convergence criterion met
 Total energy in the final basis set =    -4921.6894760346
   11   -4921.6894879077      6.42e-07  Convergence criterion met
 Total energy in the final basis set =    -4921.6894879077
   11   -4921.6894946184      6.41e-07  Convergence criterion met
 Total energy in the final basis set =    -4921.6894946184
   11   -4921.6894964859      6.41e-07  Convergence criterion met
 Total energy in the final basis set =    -4921.6894964859
   11   -4921.6894981992      6.39e-07  Convergence criterion met
 Total energy in the final basis set =    -4921.6894981992

             Standard Nuclear Orientation (Angstroms)
    I     Atom           X                Y                Z
 ----------------------------------------------------------------
    1      C       0.2760003076     0.4825275588    -0.4543225205
    2      H       0.1300143333     0.5592916880    -1.5283383111
    3      C       0.4082690891     1.7807426835     0.2979349135
    4      H      -0.4552356301     2.4017694656     0.0399385549
    5      H       0.3547411186     1.5948032179     1.3757351051
    6      C       1.7046043160     2.5431438761    -0.0420867592
    7      H       1.7162776001     3.5003798057     0.4884234079
    8      H       2.5936753136     1.9781201871     0.2499125119
    9      H       1.7729104637     2.7525268744    -1.1143071741
   10      Se     -2.3170853002    -0.0970904395     0.0252061876
   11      H      -2.2515025793    -1.3338607654    -0.7822592389
   12      Se      1.4040753774    -0.9941243112    -0.0649774059
   13      H       1.4954555903    -0.7193298409     1.3826407288
 ----------------------------------------------------------------

   11   -4921.6894989529      6.39e-07  Convergence criterion met
 Total energy in the final basis set =    -4921.6894989529

                    Orbital Energies (a.u.)
 --------------------------------------------------------------

 Alpha MOs
 -- Occupied --
*******-453.869 -58.126 -58.063 -52.184 -52.183 -52.181 -52.121
-52.120 -52.117 -10.280 -10.216 -10.197  -7.860  -7.796  -5.805
 -5.801  -5.793  -5.740  -5.738  -5.728  -2.139  -2.138  -2.131
 -2.128  -2.127  -2.074  -2.074  -2.065  -2.064  -2.062  -0.824
 -0.751  -0.673  -0.645  -0.595  -0.479  -0.457  -0.419  -0.408
 -0.389  -0.367  -0.346  -0.344  -0.300  -0.226  -0.206

 Beta MOs
 -- Occupied --
*******-453.869 -58.126 -58.063 -52.184 -52.183 -52.181 -52.121
-52.120 -52.117 -10.280 -10.216 -10.197  -7.860  -7.796  -5.805
 -5.801  -5.793  -5.740  -5.738  -5.728  -2.139  -2.138  -2.131
 -2.128  -2.127  -2.074  -2.074  -2.065  -2.064  -2.062  -0.824
 -0.751  -0.673  -0.645  -0.595  -0.479  -0.457  -0.419  -0.408
 -0.389  -0.367  -0.346  -0.344  -0.300  -0.226  -0.206

          Ground-State Mulliken Net Atomic Charges

     Atom                 Charge (a.u.)    Spin (a.u.)
  --------------------------------------------------------
      1 C                    -0.142843      -0.000000
      2 H                     0.168047       0.000000
      3 C                    -0.197596       0.000000
      4 H                     0.144130      -0.000000
      5 H                     0.126338       0.000000
      6 C                    -0.326417      -0.000000
      7 H                     0.119183       0.000000
      8 H                     0.125331      -0.000000
      9 H                     0.115188      -0.000000
     10 Se                   -0.296795      -0.000000
     11 H                     0.050231       0.000000
     12 Se                    0.044007      -0.000000
     13 H                     0.071195       0.000000
  --------------------------------------------------------
  Sum of atomic charges =    -0.000000

                    Cartesian Multipole Moments
 -----------------------------------------------------------------
    Charge (ESU x 10^10)
                -0.0000
    Dipole Moment (Debye)
         X       3.5153      Y       1.0382      Z      -0.1129
       Tot       3.6672
    Quadrupole Moments (Debye-Ang)
        XX     -65.0385     XY       1.2547     YY     -54.3032
        XZ       2.1098     YZ       1.1879     ZZ     -55.5031

 Final energy is   -4921.68949895291
 **  OPTIMIZATION CONVERGED  **
 Total job time:  129.71s(wall), 1521.34s(cpu)
        *  Thank you very much for using Q-Chem.  Have a nice day.  *
