 Q-Chem 5.1, Q-Chem, Inc., Pleasanton, CA (2018)
 Q-Chem 5.1.1 for Intel X86 EM64T Linux

User input:
--------------------------------------------------------------

$comment
potential surface scanner
$end

$rem
JOBTYPE  PES_SCAN
UNRESTRICTED TRUE
SYM_IGNORE  TRUE
GEOM_OPT_MAX_CYCLES 400
SCF_MAX_CYCLES 400
METHOD   B3LYP
BASIS   6-31G**
PDB_PRINT 2
SCF_CONVERGENCE 6
THRESH 14
SCF_PRINT 1
$end
$molecule
0 1
C 0.048344 0.506832 -0.371071
H 0.148681 0.641917 -1.450727
C 0.348575 1.840415 0.337902
H -0.494571 2.517957 0.144338
H 0.373601 1.676599 1.421541
C 1.640900 2.515503 -0.125867
H 1.776028 3.471971 0.388668
H 2.513069 1.890102 0.082068
H 1.615987 2.718534 -1.202492
Se -1.739831 0.001954 0.025829
H -1.739432 -1.248566 -0.757597
Se 1.412013 -0.917210 0.004384
H 0.928837 -1.167107 1.376524
$end
$scan
stre 1 10 2.000000 2.001000 0.100000
$end
--------------------------------------------------------------

    9   -4921.7271939649      7.40e-07  Convergence criterion met
 Total energy in the final basis set =    -4921.7271939649
    9   -4921.7292699261      7.47e-07  Convergence criterion met
 Total energy in the final basis set =    -4921.7292699261
    9   -4921.7295137329      7.37e-07  Convergence criterion met
 Total energy in the final basis set =    -4921.7295137329
    9   -4921.7295691240      7.30e-07  Convergence criterion met
 Total energy in the final basis set =    -4921.7295691240
    9   -4921.7295744341      7.31e-07  Convergence criterion met
 Total energy in the final basis set =    -4921.7295744341
    9   -4921.7295776176      7.32e-07  Convergence criterion met
 Total energy in the final basis set =    -4921.7295776176
    9   -4921.7295796314      7.32e-07  Convergence criterion met
 Total energy in the final basis set =    -4921.7295796314
    9   -4921.7295814430      7.32e-07  Convergence criterion met
 Total energy in the final basis set =    -4921.7295814430

             Standard Nuclear Orientation (Angstroms)
    I     Atom           X                Y                Z
 ----------------------------------------------------------------
    1      C       0.0778718255     0.5095732136    -0.3838669262
    2      H       0.1399283417     0.6396185821    -1.4661545849
    3      C       0.3566205097     1.8391464262     0.3294633563
    4      H      -0.4886175258     2.5099587694     0.1238799026
    5      H       0.3675935892     1.6749194303     1.4132421271
    6      C       1.6525088801     2.5224141666    -0.1153157738
    7      H       1.7742691258     3.4789122108     0.4026215241
    8      H       2.5251946440     1.9017693678     0.1042906257
    9      H       1.6424778004     2.7265684663    -1.1918870045
   10      Se     -1.8036788452    -0.0205539931     0.0389001743
   11      H      -1.7816280686    -1.2719350488    -0.7423096251
   12      Se      1.4095407924    -0.9234178146    -0.0142785721
   13      H       0.9601199310    -1.1380727766     1.3749147766
 ----------------------------------------------------------------

    9   -4921.7295820616      7.31e-07  Convergence criterion met
 Total energy in the final basis set =    -4921.7295820616

                    Orbital Energies (a.u.)
 --------------------------------------------------------------

 Alpha MOs
 -- Occupied --
*******-453.900 -58.096 -58.096 -52.154 -52.153 -52.152 -52.152
-52.150 -52.150 -10.258 -10.205 -10.184  -7.829  -7.829  -5.775
 -5.775  -5.771  -5.771  -5.761  -5.761  -2.108  -2.108  -2.108
 -2.108  -2.100  -2.100  -2.097  -2.097  -2.095  -2.095  -0.818
 -0.739  -0.695  -0.646  -0.582  -0.466  -0.441  -0.435  -0.386
 -0.377  -0.363  -0.352  -0.341  -0.311  -0.243  -0.222

 Beta MOs
 -- Occupied --
*******-453.900 -58.096 -58.096 -52.154 -52.153 -52.152 -52.152
-52.150 -52.150 -10.258 -10.205 -10.184  -7.829  -7.829  -5.775
 -5.775  -5.771  -5.771  -5.761  -5.761  -2.108  -2.108  -2.108
 -2.108  -2.100  -2.100  -2.097  -2.097  -2.095  -2.095  -0.818
 -0.739  -0.695  -0.646  -0.582  -0.466  -0.441  -0.435  -0.386
 -0.377  -0.363  -0.352  -0.341  -0.311  -0.243  -0.222

          Ground-State Mulliken Net Atomic Charges

     Atom                 Charge (a.u.)    Spin (a.u.)
  --------------------------------------------------------
      1 C                    -0.224766      -0.000000
      2 H                     0.152798       0.000000
      3 C                    -0.186211      -0.000000
      4 H                     0.121197       0.000000
      5 H                     0.119757       0.000000
      6 C                    -0.328728       0.000000
      7 H                     0.110481       0.000000
      8 H                     0.137171       0.000000
      9 H                     0.105904       0.000000
     10 Se                   -0.073975      -0.000000
     11 H                     0.067085      -0.000000
     12 Se                   -0.069864       0.000000
     13 H                     0.069149      -0.000000
  --------------------------------------------------------
  Sum of atomic charges =     0.000000

                    Cartesian Multipole Moments
 -----------------------------------------------------------------
    Charge (ESU x 10^10)
                 0.0000
    Dipole Moment (Debye)
         X       0.3757      Y       0.8606      Z      -0.1420
       Tot       0.9497
    Quadrupole Moments (Debye-Ang)
        XX     -61.4999     XY       2.2944     YY     -55.6112
        XZ       0.7725     YZ      -0.0830     ZZ     -55.9124

 Final energy is   -4921.72958206159
 **  OPTIMIZATION CONVERGED  **
 Total job time:  55.16s(wall), 638.12s(cpu)
        *  Thank you very much for using Q-Chem.  Have a nice day.  *
