 Q-Chem 5.1, Q-Chem, Inc., Pleasanton, CA (2018)
 Q-Chem 5.1.1 for Intel X86 EM64T Linux

User input:
--------------------------------------------------------------

$comment
potential surface scanner
$end

$rem
JOBTYPE  PES_SCAN
UNRESTRICTED TRUE
SYM_IGNORE  TRUE
GEOM_OPT_MAX_CYCLES 400
SCF_MAX_CYCLES 400
METHOD   B3LYP
BASIS   6-31G**
PDB_PRINT 2
SCF_CONVERGENCE 6
THRESH 14
SCF_PRINT 1
$end
$molecule
0 1
C 0.034100 0.572900 -0.443500
H 0.076700 0.782000 -1.512400
C 0.317600 1.856700 0.339100
H -0.478400 2.578000 0.154400
H 0.362900 1.630300 1.404300
C 1.654900 2.445600 -0.114500
H 1.856900 3.360200 0.443000
H 2.450900 1.724300 0.070100
H 1.609600 2.672000 -1.179800
Se -1.749100 -0.095100 0.021000
H -1.828300 -1.374900 -0.867600
Se 1.377500 -0.779800 0.011600
H 1.146900 -0.923300 1.547800
$end
$scan
stre 1 10 1.200000 1.201000 0.100000
$end
--------------------------------------------------------------

    9   -4921.7163210720      6.91e-07  Convergence criterion met
 Total energy in the final basis set =    -4921.7163210720
    9   -4921.7141679247      7.40e-07  Convergence criterion met
 Total energy in the final basis set =    -4921.7141679247
    9   -4921.6906793460      8.52e-07  Convergence criterion met
 Total energy in the final basis set =    -4921.6906793460
    9   -4921.6348557924      9.80e-07  Convergence criterion met
 Total energy in the final basis set =    -4921.6348557924
   10   -4921.5427857103      6.76e-07  Convergence criterion met
 Total energy in the final basis set =    -4921.5427857103
   10   -4921.4125116097      8.52e-07  Convergence criterion met
 Total energy in the final basis set =    -4921.4125116097
   11   -4921.2159586863      2.50e-07  Convergence criterion met
 Total energy in the final basis set =    -4921.2159586863
   11   -4921.0749748024      3.73e-07  Convergence criterion met
   10   -4921.1560702690      3.08e-07  Convergence criterion met
 Total energy in the final basis set =    -4921.1560702690
   10   -4921.1560753958      3.11e-07  Convergence criterion met
 Total energy in the final basis set =    -4921.1560753958
   10   -4921.1560802127      3.15e-07  Convergence criterion met
 Total energy in the final basis set =    -4921.1560802127
   10   -4921.1560830209      3.17e-07  Convergence criterion met
 Total energy in the final basis set =    -4921.1560830209
   10   -4921.1560841581      3.17e-07  Convergence criterion met
 Total energy in the final basis set =    -4921.1560841581
   10   -4921.1560847997      3.17e-07  Convergence criterion met
 Total energy in the final basis set =    -4921.1560847997

             Standard Nuclear Orientation (Angstroms)
    I     Atom           X                Y                Z
 ----------------------------------------------------------------
    1      C      -0.3262286961     1.0433941902     0.0178324033
    2      H       0.5726109362     0.5330112446     0.4795312582
    3      C       0.0291842981     2.5370784187     0.3741634099
    4      H      -0.7266494689     3.1937609240    -0.0765214089
    5      H      -0.0582314482     2.6343447845     1.4649416804
    6      C       1.4421694757     2.9268787614    -0.0657003349
    7      H       1.6825894469     3.9486284334     0.2427158912
    8      H       2.1903548519     2.2608076957     0.3780681375
    9      H       1.5517048213     2.8719772997    -1.1543654040
   10      Se     -1.2549722983     0.5466327309    -0.5572019755
   11      H      -0.2529472412    -2.0201505948    -0.7593933892
   12      Se      0.7834653851    -3.0710584289    -0.9397413415
   13      H       1.1991499376    -2.9564054593     0.4691710735
 ----------------------------------------------------------------

   10   -4921.1560854336      3.16e-07  Convergence criterion met
 Total energy in the final basis set =    -4921.1560854336

                    Orbital Energies (a.u.)
 --------------------------------------------------------------

 Alpha MOs
 -- Occupied --
*******-453.890 -58.104 -58.093 -52.159 -52.157 -52.156 -52.150
-52.149 -52.147 -10.240 -10.194 -10.186  -7.858  -7.826  -5.811
 -5.798  -5.787  -5.771  -5.768  -5.758  -2.160  -2.141  -2.132
 -2.123  -2.122  -2.105  -2.105  -2.097  -2.094  -2.093  -0.914
 -0.766  -0.707  -0.636  -0.550  -0.478  -0.446  -0.427  -0.411
 -0.399  -0.365  -0.363  -0.350  -0.346  -0.238  -0.195

 Beta MOs
 -- Occupied --
*******-453.890 -58.104 -58.093 -52.159 -52.157 -52.156 -52.150
-52.149 -52.147 -10.240 -10.194 -10.186  -7.858  -7.826  -5.811
 -5.798  -5.787  -5.771  -5.768  -5.758  -2.160  -2.141  -2.132
 -2.123  -2.122  -2.105  -2.105  -2.097  -2.094  -2.093  -0.914
 -0.766  -0.707  -0.636  -0.550  -0.478  -0.446  -0.427  -0.411
 -0.399  -0.365  -0.363  -0.350  -0.346  -0.238  -0.195

          Ground-State Mulliken Net Atomic Charges

     Atom                 Charge (a.u.)    Spin (a.u.)
  --------------------------------------------------------
      1 C                    -0.141384       0.000000
      2 H                     0.043693       0.000000
      3 C                    -0.237545       0.000000
      4 H                     0.102218      -0.000000
      5 H                     0.108693      -0.000000
      6 C                    -0.323118      -0.000000
      7 H                     0.112559       0.000000
      8 H                     0.110844       0.000000
      9 H                     0.112461       0.000000
     10 Se                    0.142157      -0.000000
     11 H                     0.082785      -0.000000
     12 Se                   -0.185942       0.000000
     13 H                     0.072580      -0.000000
  --------------------------------------------------------
  Sum of atomic charges =    -0.000000

                    Cartesian Multipole Moments
 -----------------------------------------------------------------
    Charge (ESU x 10^10)
                -0.0000
    Dipole Moment (Debye)
         X       0.4500      Y       1.9115      Z       1.4576
       Tot       2.4456
    Quadrupole Moments (Debye-Ang)
        XX     -59.1198     XY       0.9083     YY     -61.1741
        XZ       0.6262     YZ      -2.3255     ZZ     -56.0672

 Final energy is   -4921.15608543359
 **  OPTIMIZATION CONVERGED  **
 Total job time:  691.88s(wall), 8139.50s(cpu)
        *  Thank you very much for using Q-Chem.  Have a nice day.  *
