 Q-Chem 5.1, Q-Chem, Inc., Pleasanton, CA (2018)
 Q-Chem 5.1.1 for Intel X86 EM64T Linux

User input:
--------------------------------------------------------------

$comment
potential surface scanner
$end

$rem
JOBTYPE  PES_SCAN
UNRESTRICTED TRUE
SYM_IGNORE  TRUE
GEOM_OPT_MAX_CYCLES 400
SCF_MAX_CYCLES 400
METHOD   B3LYP
BASIS   6-31G**
PDB_PRINT 2
SCF_CONVERGENCE 6
THRESH 14
SCF_PRINT 1
$end
$molecule
0 1
C 0.121268 0.506795 -0.415162
H 0.113998 0.629602 -1.498541
C 0.365482 1.823090 0.313711
H -0.476777 2.487377 0.082168
H 0.340352 1.652575 1.396042
C 1.674590 2.516831 -0.082561
H 1.760272 3.479253 0.431850
H 2.544944 1.909796 0.179014
H 1.709666 2.711069 -1.160163
Se -1.956916 -0.048946 0.045601
H -1.908902 -1.298185 -0.738623
Se 1.386069 -0.949373 -0.068831
H 1.158156 -0.970988 1.388990
$end
$scan
stre 1 10 2.300000 2.301000 0.100000
$end
--------------------------------------------------------------

    9   -4921.7228325483      7.62e-07  Convergence criterion met
 Total energy in the final basis set =    -4921.7228325483
   10   -4921.7165492775      4.84e-07  Convergence criterion met
 Total energy in the final basis set =    -4921.7165492775
   10   -4921.7165757148      5.10e-07  Convergence criterion met
 Total energy in the final basis set =    -4921.7165757148
   10   -4921.7166474643      5.20e-07  Convergence criterion met
 Total energy in the final basis set =    -4921.7166474643
   10   -4921.7166572489      5.22e-07  Convergence criterion met
 Total energy in the final basis set =    -4921.7166572489
   10   -4921.7166718938      5.24e-07  Convergence criterion met
 Total energy in the final basis set =    -4921.7166718938
   10   -4921.7166791858      5.25e-07  Convergence criterion met
 Total energy in the final basis set =    -4921.7166791858
   10   -4921.7166849915      5.26e-07  Convergence criterion met
 Total energy in the final basis set =    -4921.7166849915

             Standard Nuclear Orientation (Angstroms)
    I     Atom           X                Y                Z
 ----------------------------------------------------------------
    1      C       0.1488424791     0.5017240516    -0.4282830598
    2      H       0.1135978427     0.6187534892    -1.5108395677
    3      C       0.3735764612     1.8113173059     0.3100776750
    4      H      -0.4722796128     2.4694822127     0.0775292183
    5      H       0.3435863061     1.6326774551     1.3907831239
    6      C       1.6821047264     2.5170765981    -0.0726191714
    7      H       1.7539639777     3.4783025050     0.4461357982
    8      H       2.5551080817     1.9166429808     0.1954336707
    9      H       1.7259069718     2.7149622316    -1.1490343239
   10      Se     -2.0321905272    -0.0585875381     0.0398468731
   11      H      -1.9767894409    -1.3050976840    -0.7487550949
   12      Se      1.3796936621    -0.9625271365    -0.0710918063
   13      H       1.2370810720    -0.8858304714     1.3943116649
 ----------------------------------------------------------------

   10   -4921.7166863453      5.26e-07  Convergence criterion met
 Total energy in the final basis set =    -4921.7166863453

                    Orbital Energies (a.u.)
 --------------------------------------------------------------

 Alpha MOs
 -- Occupied --
*******-453.889 -58.106 -58.084 -52.164 -52.163 -52.160 -52.142
-52.141 -52.138 -10.269 -10.209 -10.189  -7.840  -7.817  -5.785
 -5.781  -5.772  -5.762  -5.759  -5.749  -2.119  -2.118  -2.111
 -2.108  -2.106  -2.096  -2.095  -2.087  -2.085  -2.083  -0.815
 -0.737  -0.683  -0.651  -0.586  -0.470  -0.443  -0.424  -0.394
 -0.380  -0.362  -0.355  -0.336  -0.305  -0.238  -0.220

 Beta MOs
 -- Occupied --
*******-453.889 -58.106 -58.084 -52.164 -52.163 -52.160 -52.142
-52.141 -52.138 -10.269 -10.209 -10.189  -7.840  -7.817  -5.785
 -5.781  -5.772  -5.762  -5.759  -5.749  -2.119  -2.118  -2.111
 -2.108  -2.106  -2.096  -2.095  -2.087  -2.085  -2.083  -0.815
 -0.737  -0.683  -0.651  -0.586  -0.470  -0.443  -0.424  -0.394
 -0.380  -0.362  -0.355  -0.336  -0.305  -0.238  -0.220

          Ground-State Mulliken Net Atomic Charges

     Atom                 Charge (a.u.)    Spin (a.u.)
  --------------------------------------------------------
      1 C                    -0.204648      -0.000000
      2 H                     0.159244       0.000000
      3 C                    -0.185868       0.000000
      4 H                     0.128873      -0.000000
      5 H                     0.120204      -0.000000
      6 C                    -0.326305      -0.000000
      7 H                     0.112959       0.000000
      8 H                     0.132840       0.000000
      9 H                     0.109503      -0.000000
     10 Se                   -0.149775       0.000000
     11 H                     0.061287      -0.000000
     12 Se                   -0.026015      -0.000000
     13 H                     0.067701      -0.000000
  --------------------------------------------------------
  Sum of atomic charges =    -0.000000

                    Cartesian Multipole Moments
 -----------------------------------------------------------------
    Charge (ESU x 10^10)
                -0.0000
    Dipole Moment (Debye)
         X       1.4824      Y       0.9707      Z      -0.1009
       Tot       1.7748
    Quadrupole Moments (Debye-Ang)
        XX     -62.4952     XY       1.8387     YY     -55.3141
        XZ       1.5051     YZ       0.6193     ZZ     -55.5865

 Final energy is   -4921.71668634533
 **  OPTIMIZATION CONVERGED  **
 Total job time:  57.30s(wall), 670.73s(cpu)
        *  Thank you very much for using Q-Chem.  Have a nice day.  *
