 Q-Chem 5.1, Q-Chem, Inc., Pleasanton, CA (2018)
 Q-Chem 5.1.1 for Intel X86 EM64T Linux

User input:
--------------------------------------------------------------

$comment
potential surface scanner
$end

$rem
JOBTYPE  PES_SCAN
UNRESTRICTED TRUE
SYM_IGNORE  TRUE
GEOM_OPT_MAX_CYCLES 400
SCF_MAX_CYCLES 400
METHOD   B3LYP
BASIS   6-31G**
PDB_PRINT 2
SCF_CONVERGENCE 6
THRESH 14
SCF_PRINT 1
$end
$molecule
0 1
C 0.034100 0.572900 -0.443500
H 0.076700 0.782000 -1.512400
C 0.317600 1.856700 0.339100
H -0.478400 2.578000 0.154400
H 0.362900 1.630300 1.404300
C 1.654900 2.445600 -0.114500
H 1.856900 3.360200 0.443000
H 2.450900 1.724300 0.070100
H 1.609600 2.672000 -1.179800
Se -1.749100 -0.095100 0.021000
H -1.828300 -1.374900 -0.867600
Se 1.377500 -0.779800 0.011600
H 1.146900 -0.923300 1.547800
$end
$scan
stre 1 10 1.300000 1.301000 0.100000
$end
--------------------------------------------------------------

    9   -4921.7163210720      6.91e-07  Convergence criterion met
 Total energy in the final basis set =    -4921.7163210720
    9   -4921.7141679247      7.40e-07  Convergence criterion met
 Total energy in the final basis set =    -4921.7141679247
    9   -4921.6906793461      8.52e-07  Convergence criterion met
 Total energy in the final basis set =    -4921.6906793461
    9   -4921.6348557924      9.80e-07  Convergence criterion met
 Total energy in the final basis set =    -4921.6348557924
   10   -4921.5427857104      6.76e-07  Convergence criterion met
 Total energy in the final basis set =    -4921.5427857104
   10   -4921.4124985994      8.52e-07  Convergence criterion met
 Total energy in the final basis set =    -4921.4124985994
   10   -4921.3192116102      9.67e-07  Convergence criterion met
 Total energy in the final basis set =    -4921.3192116102
   10   -4921.3187860288      9.79e-07  Convergence criterion met
   13   -4921.3294431838      3.30e-07  Convergence criterion met
 Total energy in the final basis set =    -4921.3294431838
   13   -4921.3294551265      3.41e-07  Convergence criterion met
 Total energy in the final basis set =    -4921.3294551265
   13   -4921.3294604444      3.42e-07  Convergence criterion met
 Total energy in the final basis set =    -4921.3294604444
   13   -4921.3294632915      3.40e-07  Convergence criterion met
 Total energy in the final basis set =    -4921.3294632915
   13   -4921.3294646722      3.37e-07  Convergence criterion met
 Total energy in the final basis set =    -4921.3294646722
   13   -4921.3294660283      3.34e-07  Convergence criterion met
 Total energy in the final basis set =    -4921.3294660283

             Standard Nuclear Orientation (Angstroms)
    I     Atom           X                Y                Z
 ----------------------------------------------------------------
    1      C      -0.2298137242     0.5740492203    -0.3681027621
    2      H       0.3295298809     0.5087213324    -1.2887192497
    3      C       0.2940698948     1.8395978695     0.4070514938
    4      H      -0.5270069219     2.5698077955     0.4555213921
    5      H       0.5265303934     1.5442215455     1.4318342047
    6      C       1.5103479482     2.4849606018    -0.2534566190
    7      H       1.8212964928     3.3589189257     0.3261940083
    8      H       2.3431850646     1.7794600489    -0.2885860566
    9      H       1.2804998486     2.8225900756    -1.2696527969
   10      Se     -1.4259173649     0.1283661978    -0.1217259345
   11      H      -1.7203630076    -0.9119980588    -1.1605066542
   12      Se      1.6972981791    -1.1087931382     0.3677886130
   13      H       0.9325433162    -1.1410024162     1.6358603612
 ----------------------------------------------------------------

   13   -4921.3294667391      3.33e-07  Convergence criterion met
 Total energy in the final basis set =    -4921.3294667391

                    Orbital Energies (a.u.)
 --------------------------------------------------------------

 Alpha MOs
 -- Occupied --
*******-453.830 -58.161 -58.025 -52.217 -52.216 -52.214 -52.083
-52.081 -52.080 -10.256 -10.231 -10.192  -7.909  -7.758  -5.857
 -5.847  -5.844  -5.703  -5.698  -5.692  -2.200  -2.188  -2.184
 -2.177  -2.177  -2.036  -2.035  -2.030  -2.025  -2.024  -0.956
 -0.786  -0.659  -0.627  -0.595  -0.538  -0.485  -0.462  -0.416
 -0.391  -0.382  -0.359  -0.337  -0.322  -0.191  -0.183

 Beta MOs
 -- Occupied --
*******-453.830 -58.161 -58.025 -52.217 -52.216 -52.214 -52.083
-52.081 -52.080 -10.256 -10.231 -10.192  -7.909  -7.758  -5.857
 -5.847  -5.844  -5.703  -5.698  -5.692  -2.200  -2.188  -2.184
 -2.177  -2.177  -2.036  -2.035  -2.030  -2.025  -2.024  -0.956
 -0.786  -0.659  -0.627  -0.595  -0.538  -0.485  -0.462  -0.416
 -0.391  -0.382  -0.359  -0.337  -0.322  -0.191  -0.183

          Ground-State Mulliken Net Atomic Charges

     Atom                 Charge (a.u.)    Spin (a.u.)
  --------------------------------------------------------
      1 C                    -0.123167       0.000000
      2 H                     0.178916       0.000000
      3 C                    -0.232243       0.000000
      4 H                     0.116207       0.000000
      5 H                     0.158106      -0.000000
      6 C                    -0.334135      -0.000000
      7 H                     0.116148       0.000000
      8 H                     0.163553       0.000000
      9 H                     0.104889      -0.000000
     10 Se                    0.254497       0.000000
     11 H                     0.053950       0.000000
     12 Se                   -0.473979       0.000000
     13 H                     0.017259       0.000000
  --------------------------------------------------------
  Sum of atomic charges =     0.000000

                    Cartesian Multipole Moments
 -----------------------------------------------------------------
    Charge (ESU x 10^10)
                 0.0000
    Dipole Moment (Debye)
         X      -4.2439      Y       3.5892      Z      -1.5639
       Tot       5.7740
    Quadrupole Moments (Debye-Ang)
        XX     -63.6102     XY       6.5084     YY     -58.4461
        XZ      -0.8700     YZ       1.0851     ZZ     -54.2700

 Final energy is   -4921.32946673906
 **  OPTIMIZATION CONVERGED  **
 Total job time:  424.19s(wall), 5006.44s(cpu)
        *  Thank you very much for using Q-Chem.  Have a nice day.  *
