 Q-Chem 5.1, Q-Chem, Inc., Pleasanton, CA (2018)
 Q-Chem 5.1.1 for Intel X86 EM64T Linux

User input:
--------------------------------------------------------------

$comment
potential surface scanner
$end

$rem
JOBTYPE  PES_SCAN
UNRESTRICTED TRUE
SYM_IGNORE  TRUE
GEOM_OPT_MAX_CYCLES 400
SCF_MAX_CYCLES 400
METHOD   B3LYP
BASIS   6-31G**
PDB_PRINT 2
SCF_CONVERGENCE 6
THRESH 14
SCF_PRINT 1
$end
$molecule
0 1
C 0.077872 0.509573 -0.383867
H 0.139928 0.639619 -1.466155
C 0.356621 1.839146 0.329463
H -0.488618 2.509959 0.123880
H 0.367594 1.674919 1.413242
C 1.652509 2.522414 -0.115316
H 1.774269 3.478912 0.402622
H 2.525195 1.901769 0.104291
H 1.642478 2.726568 -1.191887
Se -1.803679 -0.020554 0.038900
H -1.781628 -1.271935 -0.742310
Se 1.409541 -0.923418 -0.014279
H 0.960120 -1.138073 1.374915
$end
$scan
stre 1 10 2.100000 2.101000 0.100000
$end
--------------------------------------------------------------

    9   -4921.7295820610      7.31e-07  Convergence criterion met
 Total energy in the final basis set =    -4921.7295820610
    9   -4921.7272553411      7.77e-07  Convergence criterion met
 Total energy in the final basis set =    -4921.7272553411
    9   -4921.7273976409      7.62e-07  Convergence criterion met
 Total energy in the final basis set =    -4921.7273976409
    9   -4921.7274548723      7.53e-07  Convergence criterion met
 Total energy in the final basis set =    -4921.7274548723
    9   -4921.7274594009      7.53e-07  Convergence criterion met
 Total energy in the final basis set =    -4921.7274594009
    9   -4921.7274629103      7.53e-07  Convergence criterion met
 Total energy in the final basis set =    -4921.7274629103
    9   -4921.7274655471      7.52e-07  Convergence criterion met
 Total energy in the final basis set =    -4921.7274655471
    9   -4921.7274693899      7.50e-07  Convergence criterion met
 Total energy in the final basis set =    -4921.7274693899
    9   -4921.7274719470      7.47e-07  Convergence criterion met
 Total energy in the final basis set =    -4921.7274719470

             Standard Nuclear Orientation (Angstroms)
    I     Atom           X                Y                Z
 ----------------------------------------------------------------
    1      C       0.1031939830     0.5097984463    -0.3963502462
    2      H       0.1343825292     0.6365914978    -1.4796100315
    3      C       0.3633599374     1.8330052828     0.3245197674
    4      H      -0.4829328433     2.4986166599     0.1090753991
    5      H       0.3611516239     1.6661680369     1.4078223535
    6      C       1.6624314529     2.5238690750    -0.1032526413
    7      H       1.7699994744     3.4818589240     0.4151753813
    8      H       2.5362574136     1.9094138317     0.1284624097
    9      H       1.6662330918     2.7265131390    -1.1800686549
   10      Se     -1.8781871843    -0.0346348357     0.0369174047
   11      H      -1.8363297071    -1.2885087850    -0.7392696716
   12      Se      1.3989346402    -0.9366130083    -0.0361369190
   13      H       1.0337075884    -1.0771792645     1.3862144487
 ----------------------------------------------------------------

    9   -4921.7274726856      7.44e-07  Convergence criterion met
 Total energy in the final basis set =    -4921.7274726856

                    Orbital Energies (a.u.)
 --------------------------------------------------------------

 Alpha MOs
 -- Occupied --
*******-453.898 -58.099 -58.093 -52.156 -52.155 -52.153 -52.151
-52.150 -52.147 -10.262 -10.206 -10.185  -7.832  -7.826  -5.778
 -5.774  -5.771  -5.768  -5.764  -5.758  -2.111  -2.111  -2.105
 -2.105  -2.103  -2.100  -2.098  -2.096  -2.093  -2.092  -0.815
 -0.736  -0.692  -0.648  -0.583  -0.467  -0.438  -0.433  -0.388
 -0.378  -0.363  -0.353  -0.339  -0.309  -0.242  -0.222

 Beta MOs
 -- Occupied --
*******-453.898 -58.099 -58.093 -52.156 -52.155 -52.153 -52.151
-52.150 -52.147 -10.262 -10.206 -10.185  -7.832  -7.826  -5.778
 -5.774  -5.771  -5.768  -5.764  -5.758  -2.111  -2.111  -2.105
 -2.105  -2.103  -2.100  -2.098  -2.096  -2.093  -2.092  -0.815
 -0.736  -0.692  -0.648  -0.583  -0.467  -0.438  -0.433  -0.388
 -0.378  -0.363  -0.353  -0.339  -0.309  -0.242  -0.222

          Ground-State Mulliken Net Atomic Charges

     Atom                 Charge (a.u.)    Spin (a.u.)
  --------------------------------------------------------
      1 C                    -0.224293       0.000000
      2 H                     0.154816       0.000000
      3 C                    -0.183910      -0.000000
      4 H                     0.122836       0.000000
      5 H                     0.119378       0.000000
      6 C                    -0.328294       0.000000
      7 H                     0.111081       0.000000
      8 H                     0.136364       0.000000
      9 H                     0.106704      -0.000000
     10 Se                   -0.091668       0.000000
     11 H                     0.066294       0.000000
     12 Se                   -0.058391       0.000000
     13 H                     0.069084      -0.000000
  --------------------------------------------------------
  Sum of atomic charges =     0.000000

                    Cartesian Multipole Moments
 -----------------------------------------------------------------
    Charge (ESU x 10^10)
                 0.0000
    Dipole Moment (Debye)
         X       0.6618      Y       0.8838      Z      -0.1113
       Tot       1.1098
    Quadrupole Moments (Debye-Ang)
        XX     -61.7367     XY       2.1437     YY     -55.5298
        XZ       0.9444     YZ       0.0836     ZZ     -55.8167

 Final energy is   -4921.72747268562
 **  OPTIMIZATION CONVERGED  **
 Total job time:  60.38s(wall), 705.82s(cpu)
        *  Thank you very much for using Q-Chem.  Have a nice day.  *
