 Q-Chem 5.1, Q-Chem, Inc., Pleasanton, CA (2018)
 Q-Chem 5.1.1 for Intel X86 EM64T Linux

User input:
--------------------------------------------------------------

$comment
potential surface scanner
$end

$rem
JOBTYPE  PES_SCAN
UNRESTRICTED TRUE
SYM_IGNORE  TRUE
GEOM_OPT_MAX_CYCLES 400
SCF_MAX_CYCLES 400
METHOD   B3LYP
BASIS   6-31G**
PDB_PRINT 2
SCF_CONVERGENCE 6
THRESH 14
SCF_PRINT 1
$end
$molecule
0 1
C 0.103194 0.509798 -0.396350
H 0.134383 0.636591 -1.479610
C 0.363360 1.833005 0.324520
H -0.482933 2.498617 0.109075
H 0.361152 1.666168 1.407822
C 1.662431 2.523869 -0.103253
H 1.769999 3.481859 0.415175
H 2.536257 1.909414 0.128462
H 1.666233 2.726513 -1.180069
Se -1.878187 -0.034635 0.036917
H -1.836330 -1.288509 -0.739270
Se 1.398935 -0.936613 -0.036137
H 1.033708 -1.077179 1.386214
$end
$scan
stre 1 10 2.200000 2.201000 0.100000
$end
--------------------------------------------------------------

    9   -4921.7274726982      7.44e-07  Convergence criterion met
 Total energy in the final basis set =    -4921.7274726982
    9   -4921.7226551253      7.77e-07  Convergence criterion met
 Total energy in the final basis set =    -4921.7226551253
    9   -4921.7227267369      7.64e-07  Convergence criterion met
 Total energy in the final basis set =    -4921.7227267369
    9   -4921.7227892206      7.59e-07  Convergence criterion met
 Total energy in the final basis set =    -4921.7227892206
    9   -4921.7227966962      7.59e-07  Convergence criterion met
 Total energy in the final basis set =    -4921.7227966962
    9   -4921.7228083409      7.60e-07  Convergence criterion met
 Total energy in the final basis set =    -4921.7228083409
    9   -4921.7228172212      7.62e-07  Convergence criterion met
 Total energy in the final basis set =    -4921.7228172212
    9   -4921.7228272625      7.63e-07  Convergence criterion met
 Total energy in the final basis set =    -4921.7228272625
    9   -4921.7228316528      7.63e-07  Convergence criterion met
 Total energy in the final basis set =    -4921.7228316528

             Standard Nuclear Orientation (Angstroms)
    I     Atom           X                Y                Z
 ----------------------------------------------------------------
    1      C       0.1212679191     0.5067948619    -0.4151618665
    2      H       0.1139979680     0.6296023510    -1.4985407526
    3      C       0.3654821823     1.8230901216     0.3137114179
    4      H      -0.4767773504     2.4873767758     0.0821678772
    5      H       0.3403516367     1.6525751010     1.3960418721
    6      C       1.6745901801     2.5168314141    -0.0825609161
    7      H       1.7602722010     3.4792526704     0.4318500451
    8      H       2.5449441943     1.9097963180     0.1790141245
    9      H       1.7096659860     2.7110693502    -1.1601629830
   10      Se     -1.9569162207    -0.0489457542     0.0456014191
   11      H      -1.9089018977    -1.2981845507    -0.7386233684
   12      Se      1.3860694218    -0.9493725278    -0.0688311252
   13      H       1.1581557796    -0.9709881313     1.3889902559
 ----------------------------------------------------------------

    9   -4921.7228325428      7.62e-07  Convergence criterion met
 Total energy in the final basis set =    -4921.7228325428

                    Orbital Energies (a.u.)
 --------------------------------------------------------------

 Alpha MOs
 -- Occupied --
*******-453.894 -58.102 -58.089 -52.160 -52.159 -52.156 -52.147
-52.146 -52.143 -10.266 -10.207 -10.187  -7.836  -7.822  -5.781
 -5.777  -5.768  -5.767  -5.764  -5.753  -2.115  -2.114  -2.107
 -2.103  -2.102  -2.101  -2.100  -2.092  -2.089  -2.087  -0.814
 -0.736  -0.688  -0.649  -0.584  -0.468  -0.441  -0.428  -0.390
 -0.379  -0.363  -0.354  -0.337  -0.307  -0.240  -0.222

 Beta MOs
 -- Occupied --
*******-453.894 -58.102 -58.089 -52.160 -52.159 -52.156 -52.147
-52.146 -52.143 -10.266 -10.207 -10.187  -7.836  -7.822  -5.781
 -5.777  -5.768  -5.767  -5.764  -5.753  -2.115  -2.114  -2.107
 -2.103  -2.102  -2.101  -2.100  -2.092  -2.089  -2.087  -0.814
 -0.736  -0.688  -0.649  -0.584  -0.468  -0.441  -0.428  -0.390
 -0.379  -0.363  -0.354  -0.337  -0.307  -0.240  -0.222

          Ground-State Mulliken Net Atomic Charges

     Atom                 Charge (a.u.)    Spin (a.u.)
  --------------------------------------------------------
      1 C                    -0.216772      -0.000000
      2 H                     0.156950       0.000000
      3 C                    -0.184595      -0.000000
      4 H                     0.125696       0.000000
      5 H                     0.119514       0.000000
      6 C                    -0.326827       0.000000
      7 H                     0.111718      -0.000000
      8 H                     0.134813      -0.000000
      9 H                     0.108021      -0.000000
     10 Se                   -0.117314       0.000000
     11 H                     0.063983       0.000000
     12 Se                   -0.043007      -0.000000
     13 H                     0.067820       0.000000
  --------------------------------------------------------
  Sum of atomic charges =    -0.000000

                    Cartesian Multipole Moments
 -----------------------------------------------------------------
    Charge (ESU x 10^10)
                -0.0000
    Dipole Moment (Debye)
         X       1.0478      Y       0.9342      Z      -0.1012
       Tot       1.4074
    Quadrupole Moments (Debye-Ang)
        XX     -62.0630     XY       1.9708     YY     -55.4685
        XZ       1.2939     YZ       0.3680     ZZ     -55.6687

 Final energy is   -4921.72283254285
 **  OPTIMIZATION CONVERGED  **
 Total job time:  59.96s(wall), 702.75s(cpu)
        *  Thank you very much for using Q-Chem.  Have a nice day.  *
