 Q-Chem 5.1, Q-Chem, Inc., Pleasanton, CA (2018)
 Q-Chem 5.1.1 for Intel X86 EM64T Linux

User input:
--------------------------------------------------------------

$comment
potential surface scanner
$end

$rem
JOBTYPE  PES_SCAN
UNRESTRICTED TRUE
SYM_IGNORE  TRUE
GEOM_OPT_MAX_CYCLES 400
SCF_MAX_CYCLES 400
METHOD   B3LYP
BASIS   6-31G**
PDB_PRINT 2
SCF_CONVERGENCE 6
THRESH 14
SCF_PRINT 1
$end
$molecule
0 1
C 0.034100 0.572900 -0.443500
H 0.076700 0.782000 -1.512400
C 0.317600 1.856700 0.339100
H -0.478400 2.578000 0.154400
H 0.362900 1.630300 1.404300
C 1.654900 2.445600 -0.114500
H 1.856900 3.360200 0.443000
H 2.450900 1.724300 0.070100
H 1.609600 2.672000 -1.179800
Se -1.749100 -0.095100 0.021000
H -1.828300 -1.374900 -0.867600
Se 1.377500 -0.779800 0.011600
H 1.146900 -0.923300 1.547800
$end
$scan
stre 1 10 1.100000 1.101000 0.100000
$end
--------------------------------------------------------------

    9   -4921.7163210720      6.91e-07  Convergence criterion met
 Total energy in the final basis set =    -4921.7163210720
    9   -4921.7141679247      7.40e-07  Convergence criterion met
 Total energy in the final basis set =    -4921.7141679247
    9   -4921.6906793461      8.52e-07  Convergence criterion met
 Total energy in the final basis set =    -4921.6906793461
    9   -4921.6348557924      9.80e-07  Convergence criterion met
 Total energy in the final basis set =    -4921.6348557924
   10   -4921.5427857103      6.76e-07  Convergence criterion met
 Total energy in the final basis set =    -4921.5427857103
   10   -4921.4125116098      8.52e-07  Convergence criterion met
 Total energy in the final basis set =    -4921.4125116098
   11   -4921.2158040065      2.50e-07  Convergence criterion met
 Total energy in the final basis set =    -4921.2158040065
   11   -4920.9620478723      4.40e-07  Convergence criterion met
   10   -4920.7550715609      9.40e-07  Convergence criterion met
 Total energy in the final basis set =    -4920.7550715609
   10   -4920.7550761625      9.37e-07  Convergence criterion met
 Total energy in the final basis set =    -4920.7550761625
   10   -4920.7550790743      9.34e-07  Convergence criterion met
 Total energy in the final basis set =    -4920.7550790743
   10   -4920.7550814443      9.33e-07  Convergence criterion met
 Total energy in the final basis set =    -4920.7550814443
   10   -4920.7550836741      9.32e-07  Convergence criterion met
 Total energy in the final basis set =    -4920.7550836741
   10   -4920.7550852898      9.32e-07  Convergence criterion met
 Total energy in the final basis set =    -4920.7550852898

             Standard Nuclear Orientation (Angstroms)
    I     Atom           X                Y                Z
 ----------------------------------------------------------------
    1      C      -0.3973186112     0.9749532296     0.0782178832
    2      H       0.6012259682     0.6206679761    -0.3435192022
    3      C       0.0360312776     2.5339685822     0.2996407097
    4      H      -0.6433046852     3.1315619446    -0.3220768381
    5      H      -0.2002843582     2.7768555125     1.3438620852
    6      C       1.4931415689     2.8380801563    -0.0282506763
    7      H       1.7255969888     3.8953728796     0.1323261985
    8      H       2.1741168299     2.2494980607     0.5966892059
    9      H       1.7236273261     2.6022393298    -1.0730878773
   10      Se     -1.3378903692     0.4362895406     0.2657441149
   11      H      -0.3720910699    -1.9373282164    -0.5397044576
   12      Se      0.8300071103    -2.7083912545    -0.9698352076
   13      H       1.1993420239    -2.9648677412     0.4334940615
 ----------------------------------------------------------------

   10   -4920.7550860807      9.32e-07  Convergence criterion met
 Total energy in the final basis set =    -4920.7550860807

                    Orbital Energies (a.u.)
 --------------------------------------------------------------

 Alpha MOs
 -- Occupied --
*******-453.898 -58.122 -58.094 -52.176 -52.175 -52.173 -52.151
-52.150 -52.148 -10.271 -10.189 -10.180  -7.888  -7.827  -5.851
 -5.822  -5.811  -5.773  -5.769  -5.760  -2.204  -2.174  -2.166
 -2.145  -2.145  -2.107  -2.106  -2.098  -2.095  -2.094  -0.920
 -0.759  -0.708  -0.628  -0.547  -0.475  -0.472  -0.420  -0.414
 -0.405  -0.365  -0.353  -0.345  -0.345  -0.240  -0.184

 Beta MOs
 -- Occupied --
*******-453.898 -58.122 -58.094 -52.176 -52.175 -52.173 -52.151
-52.150 -52.148 -10.271 -10.189 -10.180  -7.888  -7.827  -5.851
 -5.822  -5.811  -5.773  -5.769  -5.760  -2.204  -2.174  -2.166
 -2.145  -2.145  -2.107  -2.106  -2.098  -2.095  -2.094  -0.920
 -0.759  -0.708  -0.628  -0.547  -0.475  -0.472  -0.420  -0.414
 -0.405  -0.365  -0.353  -0.345  -0.345  -0.240  -0.184

          Ground-State Mulliken Net Atomic Charges

     Atom                 Charge (a.u.)    Spin (a.u.)
  --------------------------------------------------------
      1 C                    -0.301990      -0.000000
      2 H                     0.048607       0.000000
      3 C                    -0.246868       0.000000
      4 H                     0.106257       0.000000
      5 H                     0.104484       0.000000
      6 C                    -0.328373      -0.000000
      7 H                     0.107446      -0.000000
      8 H                     0.109616      -0.000000
      9 H                     0.111309       0.000000
     10 Se                    0.326418       0.000000
     11 H                     0.073406      -0.000000
     12 Se                   -0.185499       0.000000
     13 H                     0.075187      -0.000000
  --------------------------------------------------------
  Sum of atomic charges =     0.000000

                    Cartesian Multipole Moments
 -----------------------------------------------------------------
    Charge (ESU x 10^10)
                -0.0000
    Dipole Moment (Debye)
         X       0.3031      Y       1.4881      Z       0.8509
       Tot       1.7407
    Quadrupole Moments (Debye-Ang)
        XX     -59.5346     XY      -0.1518     YY     -59.7320
        XZ       2.9241     YZ      -3.9327     ZZ     -55.5245

 Final energy is   -4920.75508608070
 **  OPTIMIZATION CONVERGED  **
 Total job time:  516.84s(wall), 5942.91s(cpu)
        *  Thank you very much for using Q-Chem.  Have a nice day.  *
