 Q-Chem 5.1, Q-Chem, Inc., Pleasanton, CA (2018)
 Q-Chem 5.1.1 for Intel X86 EM64T Linux

User input:
--------------------------------------------------------------

$comment
potential surface scanner
$end

$rem
JOBTYPE  PES_SCAN
UNRESTRICTED TRUE
SYM_IGNORE  TRUE
GEOM_OPT_MAX_CYCLES 400
SCF_MAX_CYCLES 400
METHOD   B3LYP
BASIS   6-31G**
PDB_PRINT 2
SCF_CONVERGENCE 6
THRESH 14
SCF_PRINT 1
$end
$molecule
0 1
C 0.034100 0.572900 -0.443500
H 0.076700 0.782000 -1.512400
C 0.317600 1.856700 0.339100
H -0.478400 2.578000 0.154400
H 0.362900 1.630300 1.404300
C 1.654900 2.445600 -0.114500
H 1.856900 3.360200 0.443000
H 2.450900 1.724300 0.070100
H 1.609600 2.672000 -1.179800
Se -1.749100 -0.095100 0.021000
H -1.828300 -1.374900 -0.867600
Se 1.377500 -0.779800 0.011600
H 1.146900 -0.923300 1.547800
$end
$scan
stre 1 10 1.700000 1.701000 0.100000
$end
--------------------------------------------------------------

    9   -4921.7163210720      6.91e-07  Convergence criterion met
 Total energy in the final basis set =    -4921.7163210720
    9   -4921.7141679247      7.40e-07  Convergence criterion met
 Total energy in the final basis set =    -4921.7141679247
    9   -4921.6942425387      8.54e-07  Convergence criterion met
 Total energy in the final basis set =    -4921.6942425387
    9   -4921.6946027732      8.85e-07  Convergence criterion met
 Total energy in the final basis set =    -4921.6946027732
    9   -4921.6957417970      9.25e-07  Convergence criterion met
 Total energy in the final basis set =    -4921.6957417970
    9   -4921.6959178297      9.22e-07  Convergence criterion met
 Total energy in the final basis set =    -4921.6959178297
    9   -4921.6960281470      9.06e-07  Convergence criterion met
 Total energy in the final basis set =    -4921.6960281470
    9   -4921.6960710325      8.94e-07  Convergence criterion met
    9   -4921.6962663289      8.43e-07  Convergence criterion met
 Total energy in the final basis set =    -4921.6962663289
    9   -4921.6963074450      8.49e-07  Convergence criterion met
 Total energy in the final basis set =    -4921.6963074450
    9   -4921.6963462020      8.63e-07  Convergence criterion met
 Total energy in the final basis set =    -4921.6963462020
    9   -4921.6963532881      8.66e-07  Convergence criterion met
 Total energy in the final basis set =    -4921.6963532881
    9   -4921.6963590028      8.69e-07  Convergence criterion met
 Total energy in the final basis set =    -4921.6963590028
    9   -4921.6963602621      8.70e-07  Convergence criterion met
 Total energy in the final basis set =    -4921.6963602621

             Standard Nuclear Orientation (Angstroms)
    I     Atom           X                Y                Z
 ----------------------------------------------------------------
    1      C      -0.0164059415     0.5025085553    -0.3474597060
    2      H       0.1672600432     0.6392181316    -1.4178759076
    3      C       0.3279185539     1.8460660140     0.3506340781
    4      H      -0.5074737827     2.5385318413     0.1759857637
    5      H       0.3770706523     1.6847039285     1.4336331710
    6      C       1.6180227996     2.4977216611    -0.1475699601
    7      H       1.7838603189     3.4502568194     0.3648443426
    8      H       2.4834181970     1.8561156238     0.0372593813
    9      H       1.5669716966     2.7033268585    -1.2227428026
   10      Se     -1.6137370014     0.0428687890     0.0092830870
   11      H      -1.6756632350    -1.1922292783    -0.7975794813
   12      Se      1.4324022898    -0.9009944659     0.0501695833
   13      H       0.8885554093    -1.2191944784     1.3849184505
 ----------------------------------------------------------------

    9   -4921.6963609117      8.71e-07  Convergence criterion met
 Total energy in the final basis set =    -4921.6963609117

                    Orbital Energies (a.u.)
 --------------------------------------------------------------

 Alpha MOs
 -- Occupied --
*******-453.893 -58.100 -58.088 -52.158 -52.156 -52.154 -52.146
-52.145 -52.142 -10.247 -10.207 -10.184  -7.836  -7.821  -5.782
 -5.777  -5.769  -5.767  -5.763  -5.753  -2.117  -2.115  -2.108
 -2.104  -2.103  -2.100  -2.100  -2.092  -2.089  -2.087  -0.846
 -0.756  -0.695  -0.642  -0.580  -0.473  -0.462  -0.435  -0.388
 -0.375  -0.363  -0.360  -0.343  -0.314  -0.239  -0.218

 Beta MOs
 -- Occupied --
*******-453.893 -58.100 -58.088 -52.158 -52.156 -52.154 -52.146
-52.145 -52.142 -10.247 -10.207 -10.184  -7.836  -7.821  -5.782
 -5.777  -5.769  -5.767  -5.763  -5.753  -2.117  -2.115  -2.108
 -2.104  -2.103  -2.100  -2.100  -2.092  -2.089  -2.087  -0.846
 -0.756  -0.695  -0.642  -0.580  -0.473  -0.462  -0.435  -0.388
 -0.375  -0.363  -0.360  -0.343  -0.314  -0.239  -0.218

          Ground-State Mulliken Net Atomic Charges

     Atom                 Charge (a.u.)    Spin (a.u.)
  --------------------------------------------------------
      1 C                    -0.178787      -0.000000
      2 H                     0.145386      -0.000000
      3 C                    -0.202293       0.000000
      4 H                     0.121289       0.000000
      5 H                     0.124202       0.000000
      6 C                    -0.329381      -0.000000
      7 H                     0.109927       0.000000
      8 H                     0.140497      -0.000000
      9 H                     0.105750      -0.000000
     10 Se                   -0.058934       0.000000
     11 H                     0.062913       0.000000
     12 Se                   -0.105067       0.000000
     13 H                     0.064498       0.000000
  --------------------------------------------------------
  Sum of atomic charges =     0.000000

                    Cartesian Multipole Moments
 -----------------------------------------------------------------
    Charge (ESU x 10^10)
                 0.0000
    Dipole Moment (Debye)
         X      -0.1540      Y       0.9970      Z      -0.2405
       Tot       1.0371
    Quadrupole Moments (Debye-Ang)
        XX     -61.3556     XY       2.6860     YY     -55.7991
        XZ       0.6971     YZ      -0.2802     ZZ     -55.7995

 Final energy is   -4921.69636091165
 **  OPTIMIZATION CONVERGED  **
 Total job time:  105.34s(wall), 1217.01s(cpu)
        *  Thank you very much for using Q-Chem.  Have a nice day.  *
