 Q-Chem 5.1, Q-Chem, Inc., Pleasanton, CA (2018)
 Q-Chem 5.1.1 for Intel X86 EM64T Linux

User input:
--------------------------------------------------------------

$comment
potential surface scanner
$end

$rem
JOBTYPE  PES_SCAN
UNRESTRICTED TRUE
SYM_IGNORE  TRUE
GEOM_OPT_MAX_CYCLES 400
SCF_MAX_CYCLES 400
METHOD   B3LYP
BASIS   6-31G**
PDB_PRINT 2
SCF_CONVERGENCE 6
THRESH 14
SCF_PRINT 1
$end
$molecule
0 1
C 0.034100 0.572900 -0.443500
H 0.076700 0.782000 -1.512400
C 0.317600 1.856700 0.339100
H -0.478400 2.578000 0.154400
H 0.362900 1.630300 1.404300
C 1.654900 2.445600 -0.114500
H 1.856900 3.360200 0.443000
H 2.450900 1.724300 0.070100
H 1.609600 2.672000 -1.179800
Se -1.749100 -0.095100 0.021000
H -1.828300 -1.374900 -0.867600
Se 1.377500 -0.779800 0.011600
H 1.146900 -0.923300 1.547800
$end
$scan
stre 1 10 2.600000 2.601000 0.100000
$end
--------------------------------------------------------------

    9   -4921.7163210720      6.91e-07  Convergence criterion met
 Total energy in the final basis set =    -4921.7163210720
    9   -4921.7231013186      7.03e-07  Convergence criterion met
 Total energy in the final basis set =    -4921.7231013186
    9   -4921.7196607228      7.62e-07  Convergence criterion met
 Total energy in the final basis set =    -4921.7196607228
   10   -4921.7101286038      5.56e-07  Convergence criterion met
 Total energy in the final basis set =    -4921.7101286038
   10   -4921.6994365389      9.81e-07  Convergence criterion met
 Total energy in the final basis set =    -4921.6994365389
   11   -4921.6942819395      2.89e-07  Convergence criterion met
 Total energy in the final basis set =    -4921.6942819395
   11   -4921.6952342923      3.10e-07  Convergence criterion met
 Total energy in the final basis set =    -4921.6952342923
   11   -4921.6956754413      3.33e-07  Convergence criterion met
   11   -4921.6960489480      3.58e-07  Convergence criterion met
 Total energy in the final basis set =    -4921.6960489480
   11   -4921.6960688073      3.59e-07  Convergence criterion met
 Total energy in the final basis set =    -4921.6960688073
   11   -4921.6960782997      3.60e-07  Convergence criterion met
 Total energy in the final basis set =    -4921.6960782997
   11   -4921.6960831022      3.62e-07  Convergence criterion met
 Total energy in the final basis set =    -4921.6960831022
   11   -4921.6960856223      3.63e-07  Convergence criterion met
 Total energy in the final basis set =    -4921.6960856223
   11   -4921.6960868119      3.64e-07  Convergence criterion met
 Total energy in the final basis set =    -4921.6960868119

             Standard Nuclear Orientation (Angstroms)
    I     Atom           X                Y                Z
 ----------------------------------------------------------------
    1      C       0.2449720883     0.4880346861    -0.4498109807
    2      H       0.1284838080     0.5770430964    -1.5271627657
    3      C       0.3985828699     1.7880317634     0.3012418166
    4      H      -0.4607234976     2.4181989399     0.0494994737
    5      H       0.3503258510     1.6030461291     1.3795524895
    6      C       1.6983758341     2.5367625172    -0.0486273176
    7      H       1.7252137378     3.4948412719     0.4799317430
    8      H       2.5837760192     1.9626061149     0.2364746844
    9      H       1.7605883859     2.7443182268    -1.1217732475
   10      Se     -2.2447388209    -0.0885202918     0.0286482932
   11      H      -2.1784363677    -1.3289064634    -0.7717561106
   12      Se      1.3942214676    -0.9879813924    -0.0701332052
   13      H       1.4315586243    -0.7585745982     1.3874151269
 ----------------------------------------------------------------

   11   -4921.6960874884      3.63e-07  Convergence criterion met
 Total energy in the final basis set =    -4921.6960874884

                    Orbital Energies (a.u.)
 --------------------------------------------------------------

 Alpha MOs
 -- Occupied --
*******-453.874 -58.121 -58.069 -52.179 -52.178 -52.175 -52.126
-52.126 -52.123 -10.278 -10.214 -10.195  -7.855  -7.801  -5.800
 -5.796  -5.788  -5.745  -5.743  -5.733  -2.134  -2.133  -2.126
 -2.123  -2.122  -2.080  -2.079  -2.071  -2.069  -2.067  -0.821
 -0.747  -0.673  -0.649  -0.593  -0.477  -0.453  -0.419  -0.405
 -0.387  -0.365  -0.349  -0.341  -0.299  -0.230  -0.210

 Beta MOs
 -- Occupied --
*******-453.874 -58.121 -58.069 -52.179 -52.178 -52.175 -52.126
-52.126 -52.123 -10.278 -10.214 -10.195  -7.855  -7.801  -5.800
 -5.796  -5.788  -5.745  -5.743  -5.733  -2.134  -2.133  -2.126
 -2.123  -2.122  -2.080  -2.079  -2.071  -2.069  -2.067  -0.821
 -0.747  -0.673  -0.649  -0.593  -0.477  -0.453  -0.419  -0.405
 -0.387  -0.365  -0.349  -0.341  -0.299  -0.230  -0.210

          Ground-State Mulliken Net Atomic Charges

     Atom                 Charge (a.u.)    Spin (a.u.)
  --------------------------------------------------------
      1 C                    -0.157495       0.000000
      2 H                     0.165791       0.000000
      3 C                    -0.193784       0.000000
      4 H                     0.140204       0.000000
      5 H                     0.124680       0.000000
      6 C                    -0.326465       0.000000
      7 H                     0.117603      -0.000000
      8 H                     0.127161      -0.000000
      9 H                     0.113781      -0.000000
     10 Se                   -0.261368      -0.000000
     11 H                     0.052869      -0.000000
     12 Se                    0.026849       0.000000
     13 H                     0.070174      -0.000000
  --------------------------------------------------------
  Sum of atomic charges =     0.000000

                    Cartesian Multipole Moments
 -----------------------------------------------------------------
    Charge (ESU x 10^10)
                 0.0000
    Dipole Moment (Debye)
         X       2.9826      Y       1.0257      Z      -0.1072
       Tot       3.1559
    Quadrupole Moments (Debye-Ang)
        XX     -64.3130     XY       1.3990     YY     -54.5493
        XZ       1.9598     YZ       1.0567     ZZ     -55.5160

 Final energy is   -4921.69608748845
 **  OPTIMIZATION CONVERGED  **
 Total job time:  125.86s(wall), 1473.89s(cpu)
        *  Thank you very much for using Q-Chem.  Have a nice day.  *
