 Q-Chem 5.1, Q-Chem, Inc., Pleasanton, CA (2018)
 Q-Chem 5.1.1 for Intel X86 EM64T Linux

User input:
--------------------------------------------------------------

$comment
potential surface scanner
$end

$rem
JOBTYPE  PES_SCAN
UNRESTRICTED TRUE
SYM_IGNORE  TRUE
GEOM_OPT_MAX_CYCLES 400
SCF_MAX_CYCLES 400
METHOD   B3LYP
BASIS   6-31G**
PDB_PRINT 2
SCF_CONVERGENCE 6
THRESH 14
SCF_PRINT 1
$end
$molecule
0 1
C 0.034100 0.572900 -0.443500
H 0.076700 0.782000 -1.512400
C 0.317600 1.856700 0.339100
H -0.478400 2.578000 0.154400
H 0.362900 1.630300 1.404300
C 1.654900 2.445600 -0.114500
H 1.856900 3.360200 0.443000
H 2.450900 1.724300 0.070100
H 1.609600 2.672000 -1.179800
Se -1.749100 -0.095100 0.021000
H -1.828300 -1.374900 -0.867600
Se 1.377500 -0.779800 0.011600
H 1.146900 -0.923300 1.547800
$end
$scan
stre 1 10 1.900000 1.901000 0.100000
$end
--------------------------------------------------------------

    9   -4921.7163210720      6.91e-07  Convergence criterion met
 Total energy in the final basis set =    -4921.7163210720
    9   -4921.7261341354      7.32e-07  Convergence criterion met
 Total energy in the final basis set =    -4921.7261341354
    9   -4921.7267131994      7.36e-07  Convergence criterion met
 Total energy in the final basis set =    -4921.7267131994
    9   -4921.7269677556      7.41e-07  Convergence criterion met
 Total energy in the final basis set =    -4921.7269677556
    9   -4921.7270384250      7.38e-07  Convergence criterion met
 Total energy in the final basis set =    -4921.7270384250
    9   -4921.7270657945      7.36e-07  Convergence criterion met
 Total energy in the final basis set =    -4921.7270657945
    9   -4921.7271340481      7.35e-07  Convergence criterion met
 Total energy in the final basis set =    -4921.7271340481
    9   -4921.7271469322      7.40e-07  Convergence criterion met
 Total energy in the final basis set =    -4921.7271469322
    9   -4921.7271846118      7.38e-07  Convergence criterion met
 Total energy in the final basis set =    -4921.7271846118
    9   -4921.7271910035      7.39e-07  Convergence criterion met
 Total energy in the final basis set =    -4921.7271910035
    9   -4921.7271936919      7.40e-07  Convergence criterion met
 Total energy in the final basis set =    -4921.7271936919

             Standard Nuclear Orientation (Angstroms)
    I     Atom           X                Y                Z
 ----------------------------------------------------------------
    1      C       0.0483436443     0.5068320589    -0.3710711006
    2      H       0.1486811839     0.6419166179    -1.4507266649
    3      C       0.3485747286     1.8404146180     0.3379020666
    4      H      -0.4945712492     2.5179568292     0.1443383390
    5      H       0.3736008347     1.6765987270     1.4215413822
    6      C       1.6409001605     2.5155032312    -0.1258665278
    7      H       1.7760278099     3.4719711744     0.3886678018
    8      H       2.5130693524     1.8901017573     0.0820679201
    9      H       1.6159866307     2.7185342005    -1.2024924465
   10      Se     -1.7398313333     0.0019544766     0.0258292524
   11      H      -1.7394316571    -1.2485659619    -0.7575972635
   12      Se      1.4120132897    -0.9172104936     0.0043836771
   13      H       0.9288366049    -1.1671072356     1.3765235641
 ----------------------------------------------------------------

    9   -4921.7271939728      7.40e-07  Convergence criterion met
 Total energy in the final basis set =    -4921.7271939728

                    Orbital Energies (a.u.)
 --------------------------------------------------------------

 Alpha MOs
 -- Occupied --
*******-453.898 -58.098 -58.094 -52.155 -52.154 -52.151 -52.151
-52.150 -52.148 -10.254 -10.205 -10.184  -7.831  -7.827  -5.777
 -5.773  -5.773  -5.769  -5.763  -5.759  -2.111  -2.110  -2.106
 -2.106  -2.102  -2.099  -2.098  -2.097  -2.094  -2.093  -0.823
 -0.743  -0.696  -0.644  -0.581  -0.467  -0.448  -0.435  -0.386
 -0.376  -0.363  -0.353  -0.343  -0.313  -0.242  -0.221

 Beta MOs
 -- Occupied --
*******-453.898 -58.098 -58.094 -52.155 -52.154 -52.151 -52.151
-52.150 -52.148 -10.254 -10.205 -10.184  -7.831  -7.827  -5.777
 -5.773  -5.773  -5.769  -5.763  -5.759  -2.111  -2.110  -2.106
 -2.106  -2.102  -2.099  -2.098  -2.097  -2.094  -2.093  -0.823
 -0.743  -0.696  -0.644  -0.581  -0.467  -0.448  -0.435  -0.386
 -0.376  -0.363  -0.353  -0.343  -0.313  -0.242  -0.221

          Ground-State Mulliken Net Atomic Charges

     Atom                 Charge (a.u.)    Spin (a.u.)
  --------------------------------------------------------
      1 C                    -0.216690      -0.000000
      2 H                     0.150574       0.000000
      3 C                    -0.190505       0.000000
      4 H                     0.120571      -0.000000
      5 H                     0.120536      -0.000000
      6 C                    -0.328822      -0.000000
      7 H                     0.110033      -0.000000
      8 H                     0.137889       0.000000
      9 H                     0.105584       0.000000
     10 Se                   -0.064339      -0.000000
     11 H                     0.066684       0.000000
     12 Se                   -0.079354       0.000000
     13 H                     0.067840      -0.000000
  --------------------------------------------------------
  Sum of atomic charges =     0.000000

                    Cartesian Multipole Moments
 -----------------------------------------------------------------
    Charge (ESU x 10^10)
                 0.0000
    Dipole Moment (Debye)
         X       0.1882      Y       0.8689      Z      -0.1628
       Tot       0.9039
    Quadrupole Moments (Debye-Ang)
        XX     -61.3693     XY       2.4033     YY     -55.6993
        XZ       0.7254     YZ      -0.1528     ZZ     -55.9202

 Final energy is   -4921.72719397283
 **  OPTIMIZATION CONVERGED  **
 Total job time:  73.43s(wall), 860.97s(cpu)
        *  Thank you very much for using Q-Chem.  Have a nice day.  *
