 Q-Chem 5.1, Q-Chem, Inc., Pleasanton, CA (2018)
 Q-Chem 5.1.1 for Intel X86 EM64T Linux

User input:
--------------------------------------------------------------

$comment
potential surface scanner
$end

$rem
JOBTYPE  PES_SCAN
UNRESTRICTED TRUE
SYM_IGNORE  TRUE
GEOM_OPT_MAX_CYCLES 400
SCF_MAX_CYCLES 400
METHOD   B3LYP
BASIS   6-31G**
PDB_PRINT 2
SCF_CONVERGENCE 6
THRESH 14
SCF_PRINT 1
$end
$molecule
0 1
C 0.034100 0.572900 -0.443500
H 0.076700 0.782000 -1.512400
C 0.317600 1.856700 0.339100
H -0.478400 2.578000 0.154400
H 0.362900 1.630300 1.404300
C 1.654900 2.445600 -0.114500
H 1.856900 3.360200 0.443000
H 2.450900 1.724300 0.070100
H 1.609600 2.672000 -1.179800
Se -1.749100 -0.095100 0.021000
H -1.828300 -1.374900 -0.867600
Se 1.377500 -0.779800 0.011600
H 1.146900 -0.923300 1.547800
$end
$scan
stre 1 10 1.500000 1.501000 0.100000
$end
--------------------------------------------------------------

    9   -4921.7163210720      6.91e-07  Convergence criterion met
 Total energy in the final basis set =    -4921.7163210720
    9   -4921.7141679247      7.40e-07  Convergence criterion met
 Total energy in the final basis set =    -4921.7141679247
    9   -4921.6906793461      8.52e-07  Convergence criterion met
 Total energy in the final basis set =    -4921.6906793461
    9   -4921.6348557924      9.80e-07  Convergence criterion met
 Total energy in the final basis set =    -4921.6348557924
   10   -4921.5917754122      6.18e-07  Convergence criterion met
 Total energy in the final basis set =    -4921.5917754122
   10   -4921.5913095557      6.25e-07  Convergence criterion met
 Total energy in the final basis set =    -4921.5913095557
   10   -4921.5925381408      6.41e-07  Convergence criterion met
 Total energy in the final basis set =    -4921.5925381408
   10   -4921.5927585884      6.52e-07  Convergence criterion met
   10   -4921.5937613865      7.47e-07  Convergence criterion met
 Total energy in the final basis set =    -4921.5937613865
   10   -4921.5937741194      7.47e-07  Convergence criterion met
 Total energy in the final basis set =    -4921.5937741194
   10   -4921.5937791028      7.49e-07  Convergence criterion met
 Total energy in the final basis set =    -4921.5937791028
   10   -4921.5937868704      7.49e-07  Convergence criterion met
 Total energy in the final basis set =    -4921.5937868704
   10   -4921.5937892011      7.50e-07  Convergence criterion met
 Total energy in the final basis set =    -4921.5937892011
   10   -4921.5937906193      7.51e-07  Convergence criterion met
 Total energy in the final basis set =    -4921.5937906193

             Standard Nuclear Orientation (Angstroms)
    I     Atom           X                Y                Z
 ----------------------------------------------------------------
    1      C      -0.0864431579     0.5018100390    -0.3070212965
    2      H       0.1835507557     0.6061147179    -1.3605665772
    3      C       0.3064547992     1.8594147964     0.3685121435
    4      H      -0.5239327904     2.5608466072     0.2076593748
    5      H       0.3872603181     1.7087344103     1.4504869158
    6      C       1.5888205921     2.4862645874    -0.1771321742
    7      H       1.7547301792     3.4610714257     0.2913644057
    8      H       2.4583634411     1.8572296372     0.0268594858
    9      H       1.5209971953     2.6453441676    -1.2591818620
   10      Se     -1.4737206714     0.0499011233     0.0411739520
   11      H      -1.6997258834    -1.0551920217    -0.9216586347
   12      Se      1.5547494364    -0.8791613927     0.1493937756
   13      H       0.8610957860    -1.3534780975     1.3636104914
 ----------------------------------------------------------------

   10   -4921.5937910751      7.51e-07  Convergence criterion met
 Total energy in the final basis set =    -4921.5937910751

                    Orbital Energies (a.u.)
 --------------------------------------------------------------

 Alpha MOs
 -- Occupied --
*******-453.876 -58.112 -58.072 -52.169 -52.167 -52.166 -52.130
-52.128 -52.126 -10.243 -10.213 -10.186  -7.852  -7.805  -5.798
 -5.792  -5.785  -5.750  -5.746  -5.737  -2.135  -2.131  -2.124
 -2.120  -2.119  -2.084  -2.083  -2.076  -2.073  -2.071  -0.889
 -0.769  -0.678  -0.645  -0.580  -0.497  -0.467  -0.441  -0.395
 -0.375  -0.369  -0.360  -0.341  -0.318  -0.227  -0.211

 Beta MOs
 -- Occupied --
*******-453.876 -58.112 -58.072 -52.169 -52.167 -52.166 -52.130
-52.128 -52.126 -10.243 -10.213 -10.186  -7.852  -7.805  -5.798
 -5.792  -5.785  -5.750  -5.746  -5.737  -2.135  -2.131  -2.124
 -2.120  -2.119  -2.084  -2.083  -2.076  -2.073  -2.071  -0.889
 -0.769  -0.678  -0.645  -0.580  -0.497  -0.467  -0.441  -0.395
 -0.375  -0.369  -0.360  -0.341  -0.318  -0.227  -0.211

          Ground-State Mulliken Net Atomic Charges

     Atom                 Charge (a.u.)    Spin (a.u.)
  --------------------------------------------------------
      1 C                    -0.137127      -0.000000
      2 H                     0.147161       0.000000
      3 C                    -0.212919       0.000000
      4 H                     0.121947      -0.000000
      5 H                     0.133066      -0.000000
      6 C                    -0.329693       0.000000
      7 H                     0.110932      -0.000000
      8 H                     0.146651       0.000000
      9 H                     0.105691      -0.000000
     10 Se                   -0.008034       0.000000
     11 H                     0.054978      -0.000000
     12 Se                   -0.188305      -0.000000
     13 H                     0.055653       0.000000
  --------------------------------------------------------
  Sum of atomic charges =     0.000000

                    Cartesian Multipole Moments
 -----------------------------------------------------------------
    Charge (ESU x 10^10)
                 0.0000
    Dipole Moment (Debye)
         X      -1.1846      Y       1.5207      Z      -0.5595
       Tot       2.0072
    Quadrupole Moments (Debye-Ang)
        XX     -61.8060     XY       3.6427     YY     -55.9740
        XZ       0.5871     YZ      -0.4491     ZZ     -55.5142

 Final energy is   -4921.59379107511
 **  OPTIMIZATION CONVERGED  **
 Total job time:  180.97s(wall), 2139.12s(cpu)
        *  Thank you very much for using Q-Chem.  Have a nice day.  *
