 Q-Chem 5.1, Q-Chem, Inc., Pleasanton, CA (2018)
 Q-Chem 5.1.1 for Intel X86 EM64T Linux

User input:
--------------------------------------------------------------

$comment
potential surface scanner
$end

$rem
JOBTYPE  PES_SCAN
UNRESTRICTED TRUE
SYM_IGNORE  TRUE
GEOM_OPT_MAX_CYCLES 400
SCF_MAX_CYCLES 400
METHOD   B3LYP
BASIS   6-31G**
PDB_PRINT 2
SCF_CONVERGENCE 6
THRESH 14
SCF_PRINT 1
$end
$molecule
0 1
Br 2.342750 0.186759 0.030646
C -0.631423 0.502338 0.004926
C 0.398772 -0.607034 0.001586
C -2.054369 -0.080546 -0.006676
H -0.490436 1.129686 0.890812
H -0.480892 1.144391 -0.868779
H 0.394456 -1.214312 -0.902099
H 0.377812 -1.233707 0.891650
H -2.795430 0.724382 -0.001772
H -2.230926 -0.691421 -0.898364
H -2.237517 -0.707937 0.872171
$end
$scan
stre 1 3 2.200000 2.201000 0.100000
$end
--------------------------------------------------------------

    9   -2692.4337181697      5.11e-07  Convergence criterion met
 Total energy in the final basis set =    -2692.4337181697
    9   -2692.4285795897      5.92e-07  Convergence criterion met
 Total energy in the final basis set =    -2692.4285795897
    9   -2692.4286876761      6.02e-07  Convergence criterion met
 Total energy in the final basis set =    -2692.4286876761
    9   -2692.4287606247      6.13e-07  Convergence criterion met
 Total energy in the final basis set =    -2692.4287606247
    9   -2692.4287620468      6.12e-07  Convergence criterion met
 Total energy in the final basis set =    -2692.4287620468

             Standard Nuclear Orientation (Angstroms)
    I     Atom           X                Y                Z
 ----------------------------------------------------------------
    1      Br      2.4137811288     0.2009551175     0.0254332253
    2      C      -0.6377452091     0.5012002407     0.0067312913
    3      C       0.3718702746    -0.6176398818     0.0030300667
    4      C      -2.0643957610    -0.0799679539    -0.0073873387
    5      H      -0.4957061914     1.1258409560     0.8937976311
    6      H      -0.4851061011     1.1407677192    -0.8678429838
    7      H       0.3983206436    -1.2155112225    -0.9051906466
    8      H       0.3846156787    -1.2345164637     0.8987397461
    9      H      -2.8019601787     0.7280180831    -0.0037522554
   10      H      -2.2401425101    -0.6893385523    -0.9000977173
   11      H      -2.2507347744    -0.7072090422     0.8706399813
 ----------------------------------------------------------------

    9   -2692.4287623410      6.11e-07  Convergence criterion met
 Total energy in the final basis set =    -2692.4287623410

                    Orbital Energies (a.u.)
 --------------------------------------------------------------

 Alpha MOs
 -- Occupied --
******* -62.495 -56.316 -56.313 -56.313 -10.259 -10.208 -10.198
 -8.681  -6.511  -6.499  -6.499  -2.604  -2.601  -2.601  -2.592
 -2.591  -0.816  -0.746  -0.682  -0.608  -0.492  -0.448  -0.419
 -0.412  -0.373  -0.357  -0.327  -0.268  -0.268

 Beta MOs
 -- Occupied --
******* -62.495 -56.316 -56.313 -56.313 -10.259 -10.208 -10.198
 -8.681  -6.511  -6.499  -6.499  -2.604  -2.601  -2.601  -2.592
 -2.591  -0.816  -0.746  -0.682  -0.608  -0.492  -0.448  -0.419
 -0.412  -0.373  -0.357  -0.327  -0.268  -0.268

          Ground-State Mulliken Net Atomic Charges

     Atom                 Charge (a.u.)    Spin (a.u.)
  --------------------------------------------------------
      1 Br                   -0.200601      -0.000000
      2 C                    -0.180971      -0.000000
      3 C                    -0.220091      -0.000000
      4 C                    -0.331711      -0.000000
      5 H                     0.130723      -0.000000
      6 H                     0.130631       0.000000
      7 H                     0.160863       0.000000
      8 H                     0.160801      -0.000000
      9 H                     0.122522       0.000000
     10 H                     0.113922       0.000000
     11 H                     0.113912       0.000000
  --------------------------------------------------------
  Sum of atomic charges =    -0.000000

                    Cartesian Multipole Moments
 -----------------------------------------------------------------
    Charge (ESU x 10^10)
                -0.0000
    Dipole Moment (Debye)
         X      -3.1734      Y      -0.7791      Z      -0.0306
       Tot       3.2678
    Quadrupole Moments (Debye-Ang)
        XX     -44.4225     XY      -0.5741     YY     -38.1053
        XZ      -0.0682     YZ      -0.0042     ZZ     -38.5997

 Final energy is   -2692.42876234096
 **  OPTIMIZATION CONVERGED  **
 Total job time:  21.75s(wall), 247.69s(cpu)
        *  Thank you very much for using Q-Chem.  Have a nice day.  *
