 Q-Chem 5.1, Q-Chem, Inc., Pleasanton, CA (2018)
 Q-Chem 5.1.1 for Intel X86 EM64T Linux

User input:
--------------------------------------------------------------

$comment
potential surface scanner
$end

$rem
JOBTYPE  PES_SCAN
UNRESTRICTED TRUE
SYM_IGNORE  TRUE
GEOM_OPT_MAX_CYCLES 400
SCF_MAX_CYCLES 400
METHOD   B3LYP
BASIS   6-31G**
PDB_PRINT 2
SCF_CONVERGENCE 6
THRESH 14
SCF_PRINT 1
$end
$molecule
0 3
Br 5.711025 -1.124295 -0.003557
C -1.211981 0.637464 0.014383
C 0.113635 -0.047716 0.011147
C -2.410433 -0.341611 -0.013924
H -1.303482 1.272877 0.904742
H -1.290489 1.304184 -0.854618
H 0.555733 -0.396200 -0.917250
H 0.569054 -0.384986 0.937067
H -3.359669 0.205712 -0.013977
H -2.381433 -0.970995 -0.909062
H -2.399161 -1.001835 0.859147
$end
$scan
stre 1 3 5.600000 5.601000 0.100000
$end
--------------------------------------------------------------

   10   -2692.3208552327      9.10e-07  Convergence criterion met
 Total energy in the final basis set =    -2692.3208552327
   10   -2692.3200839164      9.39e-07  Convergence criterion met
 Total energy in the final basis set =    -2692.3200839164
   10   -2692.3205578283      9.40e-07  Convergence criterion met
 Total energy in the final basis set =    -2692.3205578283
   10   -2692.3207947908      9.33e-07  Convergence criterion met
 Total energy in the final basis set =    -2692.3207947908
   10   -2692.3208317135      9.31e-07  Convergence criterion met
 Total energy in the final basis set =    -2692.3208317135
   10   -2692.3208394411      9.29e-07  Convergence criterion met
 Total energy in the final basis set =    -2692.3208394411

             Standard Nuclear Orientation (Angstroms)
    I     Atom           X                Y                Z
 ----------------------------------------------------------------
    1      Br      5.6283540253    -1.0807615655    -0.0037437868
    2      C      -1.1979860466     0.6332715203     0.0143580446
    3      C       0.1215504275    -0.0634642537     0.0112531279
    4      C      -2.4045606950    -0.3358231536    -0.0139884888
    5      H      -1.2840776160     1.2692901415     0.9047967614
    6      H      -1.2706852111     1.3004527901    -0.8547881174
    7      H       0.5578180259    -0.4198134332    -0.9169895023
    8      H       0.5712610305    -0.4081604334     0.9373038546
    9      H      -3.3493020828     0.2192382389    -0.0144308626
   10      H      -2.3805758113    -0.9657178231    -0.9089302249
   11      H      -2.3989970463    -0.9959130284     0.8592571942
 ----------------------------------------------------------------

   10   -2692.3208398138      9.29e-07  Convergence criterion met
 Total energy in the final basis set =    -2692.3208398138

                    Orbital Energies (a.u.)
 --------------------------------------------------------------

 Alpha MOs
 -- Occupied --
******* -62.557 -56.382 -56.374 -56.374 -10.186 -10.185 -10.177
 -8.744  -6.581  -6.559  -6.559  -2.672  -2.667  -2.667  -2.650
 -2.650  -0.797  -0.779  -0.672  -0.579  -0.461  -0.427  -0.392
 -0.378  -0.371  -0.348  -0.332  -0.323  -0.323  -0.199

 Beta MOs
 -- Occupied --
******* -62.556 -56.376 -56.373 -56.373 -10.186 -10.175 -10.172
 -8.741  -6.570  -6.557  -6.557  -2.664  -2.660  -2.660  -2.649
 -2.649  -0.768  -0.753  -0.654  -0.565  -0.457  -0.421  -0.387
 -0.366  -0.343  -0.330  -0.309  -0.309

          Ground-State Mulliken Net Atomic Charges

     Atom                 Charge (a.u.)    Spin (a.u.)
  --------------------------------------------------------
      1 Br                   -0.000039       0.999980
      2 C                    -0.188904      -0.073991
      3 C                    -0.220730       1.080305
      4 C                    -0.307408       0.050118
      5 H                     0.102360       0.011763
      6 H                     0.102870       0.014310
      7 H                     0.099799      -0.047482
      8 H                     0.100066      -0.047566
      9 H                     0.101069       0.013675
     10 H                     0.105361      -0.000652
     11 H                     0.105554      -0.000459
  --------------------------------------------------------
  Sum of atomic charges =    -0.000000

                    Cartesian Multipole Moments
 -----------------------------------------------------------------
    Charge (ESU x 10^10)
                -0.0000
    Dipole Moment (Debye)
         X      -0.2647      Y      -0.0228      Z       0.0011
       Tot       0.2657
    Quadrupole Moments (Debye-Ang)
        XX     -36.9276     XY      -0.3331     YY     -40.0400
        XZ      -0.0599     YZ      -0.0053     ZZ     -38.8360

 Final energy is   -2692.32083981382
 **  OPTIMIZATION CONVERGED  **
 Total job time:  22.51s(wall), 255.82s(cpu)
        *  Thank you very much for using Q-Chem.  Have a nice day.  *
