 Q-Chem 5.1, Q-Chem, Inc., Pleasanton, CA (2018)
 Q-Chem 5.1.1 for Intel X86 EM64T Linux

User input:
--------------------------------------------------------------

$comment
potential surface scanner
$end

$rem
JOBTYPE  PES_SCAN
UNRESTRICTED TRUE
SYM_IGNORE  TRUE
GEOM_OPT_MAX_CYCLES 400
SCF_MAX_CYCLES 400
METHOD   B3LYP
BASIS   6-31G**
PDB_PRINT 2
SCF_CONVERGENCE 6
THRESH 14
SCF_PRINT 1
$end
$molecule
0 3
Br 5.628354 -1.080762 -0.003744
C -1.197986 0.633272 0.014358
C 0.121550 -0.063464 0.011253
C -2.404561 -0.335823 -0.013988
H -1.284078 1.269290 0.904797
H -1.270685 1.300453 -0.854788
H 0.557818 -0.419813 -0.916990
H 0.571261 -0.408160 0.937304
H -3.349302 0.219238 -0.014431
H -2.380576 -0.965718 -0.908930
H -2.398997 -0.995913 0.859257
$end
$scan
stre 1 3 5.500000 5.501000 0.100000
$end
--------------------------------------------------------------

   10   -2692.3208398140      9.29e-07  Convergence criterion met
 Total energy in the final basis set =    -2692.3208398140
   10   -2692.3200886402      9.58e-07  Convergence criterion met
 Total energy in the final basis set =    -2692.3200886402
   10   -2692.3205446903      9.62e-07  Convergence criterion met
 Total energy in the final basis set =    -2692.3205446903
   10   -2692.3207765633      9.65e-07  Convergence criterion met
 Total energy in the final basis set =    -2692.3207765633
   10   -2692.3208125711      9.65e-07  Convergence criterion met
 Total energy in the final basis set =    -2692.3208125711
   10   -2692.3208201160      9.64e-07  Convergence criterion met
 Total energy in the final basis set =    -2692.3208201160

             Standard Nuclear Orientation (Angstroms)
    I     Atom           X                Y                Z
 ----------------------------------------------------------------
    1      Br      5.5457483643    -1.0354651786    -0.0038867934
    2      C      -1.1837365934     0.6282990009     0.0143067372
    3      C       0.1292819231    -0.0806551208     0.0113928908
    4      C      -2.3991291027    -0.3296181369    -0.0140540334
    5      H      -1.2639748280     1.2651793685     0.9046769011
    6      H      -1.2500964787     1.2960864024    -0.8548963474
    7      H       0.5603133001    -0.4439251180    -0.9166559394
    8      H       0.5739377062    -0.4318350244     0.9374903662
    9      H      -3.3387412417     0.2340789187    -0.0147546134
   10      H      -2.3809212733    -0.9599541538    -0.9088402614
   11      H      -2.3998837760    -0.9895909580     0.8593190929
 ----------------------------------------------------------------

   10   -2692.3208205800      9.63e-07  Convergence criterion met
 Total energy in the final basis set =    -2692.3208205800

                    Orbital Energies (a.u.)
 --------------------------------------------------------------

 Alpha MOs
 -- Occupied --
******* -62.557 -56.382 -56.374 -56.374 -10.186 -10.185 -10.177
 -8.744  -6.581  -6.559  -6.559  -2.672  -2.666  -2.666  -2.650
 -2.650  -0.797  -0.779  -0.672  -0.579  -0.461  -0.427  -0.392
 -0.378  -0.371  -0.348  -0.332  -0.323  -0.323  -0.199

 Beta MOs
 -- Occupied --
******* -62.556 -56.376 -56.373 -56.373 -10.186 -10.175 -10.172
 -8.740  -6.570  -6.557  -6.557  -2.664  -2.660  -2.660  -2.649
 -2.649  -0.768  -0.753  -0.654  -0.565  -0.457  -0.421  -0.387
 -0.366  -0.343  -0.330  -0.309  -0.309

          Ground-State Mulliken Net Atomic Charges

     Atom                 Charge (a.u.)    Spin (a.u.)
  --------------------------------------------------------
      1 Br                   -0.000056       0.999976
      2 C                    -0.188949      -0.073907
      3 C                    -0.220604       1.080146
      4 C                    -0.307451       0.050135
      5 H                     0.102400       0.011714
      6 H                     0.102919       0.014278
      7 H                     0.099741      -0.047414
      8 H                     0.100000      -0.047499
      9 H                     0.101114       0.013697
     10 H                     0.105347      -0.000660
     11 H                     0.105539      -0.000466
  --------------------------------------------------------
  Sum of atomic charges =     0.000000

                    Cartesian Multipole Moments
 -----------------------------------------------------------------
    Charge (ESU x 10^10)
                -0.0000
    Dipole Moment (Debye)
         X      -0.2691      Y      -0.0221      Z       0.0011
       Tot       0.2700
    Quadrupole Moments (Debye-Ang)
        XX     -36.9979     XY      -0.1824     YY     -39.9769
        XZ      -0.0631     YZ      -0.0091     ZZ     -38.8368

 Final energy is   -2692.32082058004
 **  OPTIMIZATION CONVERGED  **
 Total job time:  23.03s(wall), 259.06s(cpu)
        *  Thank you very much for using Q-Chem.  Have a nice day.  *
