 Q-Chem 5.1, Q-Chem, Inc., Pleasanton, CA (2018)
 Q-Chem 5.1.1 for Intel X86 EM64T Linux

User input:
--------------------------------------------------------------

$comment
potential surface scanner
$end

$rem
JOBTYPE  PES_SCAN
UNRESTRICTED TRUE
SYM_IGNORE  TRUE
GEOM_OPT_MAX_CYCLES 400
SCF_MAX_CYCLES 400
METHOD   B3LYP
BASIS   6-31G**
PDB_PRINT 2
SCF_CONVERGENCE 6
THRESH 14
SCF_PRINT 1
$end
$molecule
0 3
Br 3.976000 0.000110 0.009971
C -0.878291 0.478984 0.007639
C 0.214296 -0.538005 0.005985
C -2.294104 -0.145672 -0.008729
H -0.790861 1.120301 0.894356
H -0.778232 1.136767 -0.865678
H 0.551747 -0.988435 -0.922146
H 0.547454 -0.996908 0.931466
H -3.065407 0.632648 -0.006981
H -2.438430 -0.765086 -0.899746
H -2.451387 -0.782105 0.867964
$end
$scan
stre 1 3 3.700000 3.701000 0.100000
$end
--------------------------------------------------------------

   23   -2692.3206343811      2.78e-08  Convergence criterion met
 Total energy in the final basis set =    -2692.3206343811
   22   -2692.3202728353      1.63e-07  Convergence criterion met
 Total energy in the final basis set =    -2692.3202728353
   22   -2692.3203297497      4.29e-08  Convergence criterion met
 Total energy in the final basis set =    -2692.3203297497
   22   -2692.3203868543      2.62e-07  Convergence criterion met
 Total energy in the final basis set =    -2692.3203868543
   22   -2692.3203887223      2.65e-07  Convergence criterion met
 Total energy in the final basis set =    -2692.3203887223
   22   -2692.3203916802      2.59e-07  Convergence criterion met
 Total energy in the final basis set =    -2692.3203916802
   22   -2692.3203959054      2.25e-07  Convergence criterion met
 Total energy in the final basis set =    -2692.3203959054
   22   -2692.3204030778      3.22e-08  Convergence criterion met
   23   -2692.3204136217      5.22e-08  Convergence criterion met
 Total energy in the final basis set =    -2692.3204136217
   23   -2692.3204156476      2.33e-07  Convergence criterion met
 Total energy in the final basis set =    -2692.3204156476
   22   -2692.3204182287      8.69e-07  Convergence criterion met
 Total energy in the final basis set =    -2692.3204182287
   22   -2692.3204225235      6.50e-07  Convergence criterion met
 Total energy in the final basis set =    -2692.3204225235
   24   -2692.3204266162      1.98e-07  Convergence criterion met
 Total energy in the final basis set =    -2692.3204266162
   24   -2692.3204285905      1.18e-07  Convergence criterion met
 Total energy in the final basis set =    -2692.3204285905

             Standard Nuclear Orientation (Angstroms)
    I     Atom           X                Y                Z
 ----------------------------------------------------------------
    1      Br      3.9094418726    -0.1065272307     0.0092418178
    2      C      -0.8850374079     0.4937397622     0.0074656600
    3      C       0.2302728682    -0.4985824155     0.0062611154
    4      C      -2.2871461740    -0.1610061816    -0.0085845632
    5      H      -0.8118996141     1.1372209677     0.8939721252
    6      H      -0.7995147134     1.1533264710    -0.8660492039
    7      H       0.5842111643    -0.9354731176    -0.9220955520
    8      H       0.5764285386    -0.9471479269     0.9319487056
    9      H      -3.0745904559     0.6009668246    -0.0067647387
   10      H      -2.4185625579    -0.7834132870    -0.8994962065
   11      H      -2.4308185205    -0.8005048663     0.8682018401
 ----------------------------------------------------------------

   24   -2692.3204289349      4.47e-08  Convergence criterion met
 Total energy in the final basis set =    -2692.3204289349

                    Orbital Energies (a.u.)
 --------------------------------------------------------------

 Alpha MOs
 -- Occupied --
******* -62.554 -56.378 -56.370 -56.370 -10.184 -10.183 -10.175
 -8.741  -6.578  -6.555  -6.555  -2.668  -2.663  -2.663  -2.647
 -2.647  -0.794  -0.777  -0.670  -0.577  -0.459  -0.425  -0.390
 -0.376  -0.369  -0.347  -0.330  -0.320  -0.319  -0.195

 Beta MOs
 -- Occupied --
******* -62.552 -56.372 -56.369 -56.369 -10.185 -10.174 -10.169
 -8.737  -6.567  -6.554  -6.553  -2.661  -2.657  -2.657  -2.645
 -2.645  -0.767  -0.750  -0.652  -0.563  -0.455  -0.420  -0.385
 -0.364  -0.342  -0.328  -0.306  -0.304

          Ground-State Mulliken Net Atomic Charges

     Atom                 Charge (a.u.)    Spin (a.u.)
  --------------------------------------------------------
      1 Br                   -0.003568       1.007378
      2 C                    -0.191772      -0.073187
      3 C                    -0.213528       1.071874
      4 C                    -0.307115       0.049785
      5 H                     0.101573       0.012830
      6 H                     0.101722       0.013185
      7 H                     0.101154      -0.047399
      8 H                     0.101444      -0.047388
      9 H                     0.100011       0.013990
     10 H                     0.105023      -0.000547
     11 H                     0.105056      -0.000520
  --------------------------------------------------------
  Sum of atomic charges =     0.000000

                    Cartesian Multipole Moments
 -----------------------------------------------------------------
    Charge (ESU x 10^10)
                 0.0000
    Dipole Moment (Debye)
         X      -0.2802      Y       0.0214      Z      -0.0004
       Tot       0.2810
    Quadrupole Moments (Debye-Ang)
        XX     -40.5073     XY      -0.6562     YY     -36.9722
        XZ      -0.0150     YZ       0.1049     ZZ     -38.8433

 Final energy is   -2692.32042893492
 **  OPTIMIZATION CONVERGED  **
 Total job time:  96.19s(wall), 1118.68s(cpu)
        *  Thank you very much for using Q-Chem.  Have a nice day.  *
