 Q-Chem 5.1, Q-Chem, Inc., Pleasanton, CA (2018)
 Q-Chem 5.1.1 for Intel X86 EM64T Linux

User input:
--------------------------------------------------------------

$comment
potential surface scanner
$end

$rem
JOBTYPE  PES_SCAN
UNRESTRICTED TRUE
SYM_IGNORE  TRUE
GEOM_OPT_MAX_CYCLES 400
SCF_MAX_CYCLES 400
METHOD   B3LYP
BASIS   6-31G**
PDB_PRINT 2
SCF_CONVERGENCE 6
THRESH 14
SCF_PRINT 1
$end
$molecule
0 3
Br 2.753688 0.333586 0.009207
C -0.694736 0.448571 0.008632
C 0.340704 -0.634653 0.004479
C -2.143549 -0.087409 -0.007065
H -0.565513 1.085306 0.894285
H -0.553496 1.103835 -0.861544
H 0.500031 -1.200418 -0.914151
H 0.491238 -1.217336 0.913649
H -2.870597 0.733170 -0.002105
H -2.326784 -0.695537 -0.899216
H -2.338201 -0.716510 0.867933
$end
$scan
stre 1 3 2.500000 2.501000 0.100000
$end
--------------------------------------------------------------

   10   -2692.3015193266      8.36e-07  Convergence criterion met
 Total energy in the final basis set =    -2692.3015193266
   10   -2692.2957480208      9.22e-07  Convergence criterion met
 Total energy in the final basis set =    -2692.2957480208
   10   -2692.2956482515      9.40e-07  Convergence criterion met
 Total energy in the final basis set =    -2692.2956482515
   10   -2692.2956792764      9.79e-07  Convergence criterion met
 Total energy in the final basis set =    -2692.2956792764
   10   -2692.2956826643      9.92e-07  Convergence criterion met
 Total energy in the final basis set =    -2692.2956826643

             Standard Nuclear Orientation (Angstroms)
    I     Atom           X                Y                Z
 ----------------------------------------------------------------
    1      Br      2.6720688713     0.3229375419     0.0063795261
    2      C      -0.6860365503     0.4515042639     0.0090816370
    3      C       0.3587696283    -0.6250320918     0.0057405505
    4      C      -2.1324486561    -0.0877734232    -0.0072345029
    5      H      -0.5589460883     1.0898350589     0.8942387336
    6      H      -0.5459038526     1.1085815049    -0.8602264534
    7      H       0.4996281876    -1.2028776770    -0.9100000402
    8      H       0.4881265408    -1.2217791031     0.9103936204
    9      H      -2.8619711248     0.7308240588    -0.0027970816
   10      H      -2.3141691172    -0.6965352018    -0.8993065371
   11      H      -2.3263328387    -0.7170799317     0.8678345477
 ----------------------------------------------------------------

   11   -2692.2956841290      7.09e-07  Convergence criterion met
 Total energy in the final basis set =    -2692.2956841290

                    Orbital Energies (a.u.)
 --------------------------------------------------------------

 Alpha MOs
 -- Occupied --
******* -62.553 -56.377 -56.370 -56.369 -10.180 -10.174 -10.172
 -8.741  -6.576  -6.556  -6.555  -2.668  -2.663  -2.662  -2.647
 -2.647  -0.804  -0.771  -0.667  -0.577  -0.456  -0.422  -0.390
 -0.383  -0.363  -0.347  -0.329  -0.326  -0.318  -0.159

 Beta MOs
 -- Occupied --
******* -62.551 -56.371 -56.368 -56.368 -10.181 -10.171 -10.159
 -8.736  -6.565  -6.553  -6.553  -2.659  -2.656  -2.655  -2.645
 -2.645  -0.769  -0.749  -0.649  -0.565  -0.451  -0.414  -0.379
 -0.370  -0.338  -0.324  -0.305  -0.302

          Ground-State Mulliken Net Atomic Charges

     Atom                 Charge (a.u.)    Spin (a.u.)
  --------------------------------------------------------
      1 Br                    0.061911       1.085162
      2 C                    -0.166450      -0.058409
      3 C                    -0.280688       0.953436
      4 C                    -0.306758       0.037034
      5 H                     0.095236       0.011224
      6 H                     0.095349       0.011145
      7 H                     0.100468      -0.026682
      8 H                     0.100981      -0.027704
      9 H                     0.096359       0.015942
     10 H                     0.101753      -0.000572
     11 H                     0.101840      -0.000576
  --------------------------------------------------------
  Sum of atomic charges =    -0.000000

                    Cartesian Multipole Moments
 -----------------------------------------------------------------
    Charge (ESU x 10^10)
                -0.0000
    Dipole Moment (Debye)
         X      -0.1498      Y      -0.0527      Z       0.0023
       Tot       0.1589
    Quadrupole Moments (Debye-Ang)
        XX     -41.2297     XY      -0.6631     YY     -39.6711
        XZ       0.0022     YZ       0.0844     ZZ     -36.3384

 Final energy is   -2692.29568412899
 **  OPTIMIZATION CONVERGED  **
 Total job time:  25.09s(wall), 274.08s(cpu)
        *  Thank you very much for using Q-Chem.  Have a nice day.  *
