 Q-Chem 5.1, Q-Chem, Inc., Pleasanton, CA (2018)
 Q-Chem 5.1.1 for Intel X86 EM64T Linux

User input:
--------------------------------------------------------------

$comment
potential surface scanner
$end

$rem
JOBTYPE  PES_SCAN
UNRESTRICTED TRUE
SYM_IGNORE  TRUE
GEOM_OPT_MAX_CYCLES 400
SCF_MAX_CYCLES 400
METHOD   B3LYP
BASIS   6-31G**
PDB_PRINT 2
SCF_CONVERGENCE 6
THRESH 14
SCF_PRINT 1
$end
$molecule
0 1
Br 2.210600 0.183000 -0.010500
C -0.617000 0.498300 0.014000
C 0.429200 -0.601700 0.010200
C -2.022700 -0.079700 -0.013600
H -0.503100 1.127200 0.905100
H -0.483600 1.153700 -0.855200
H 0.357400 -1.232600 -0.880100
H 0.371000 -1.225900 0.906000
H -2.764000 0.725600 -0.009200
H -2.181500 -0.682500 -0.913600
H -2.203500 -0.712800 0.861000
$end
$scan
stre 1 3 0.900000 0.901000 0.100000
$end
--------------------------------------------------------------

    9   -2692.4353936127      6.13e-07  Convergence criterion met
 Total energy in the final basis set =    -2692.4353936127
    9   -2692.4224819729      5.81e-07  Convergence criterion met
 Total energy in the final basis set =    -2692.4224819729
    9   -2692.3828958847      5.83e-07  Convergence criterion met
 Total energy in the final basis set =    -2692.3828958847
    9   -2692.3110172864      6.27e-07  Convergence criterion met
 Total energy in the final basis set =    -2692.3110172864
    9   -2692.1997295066      6.79e-07  Convergence criterion met
 Total energy in the final basis set =    -2692.1997295066
    9   -2692.0175575849      7.29e-07  Convergence criterion met
 Total energy in the final basis set =    -2692.0175575849
   10   -2691.7460363073      5.10e-07  Convergence criterion met
 Total energy in the final basis set =    -2691.7460363073
   10   -2691.5778512427      6.99e-07  Convergence criterion met
   11   -2689.5730462270      4.99e-07  Convergence criterion met
 Total energy in the final basis set =    -2689.5730462270
   11   -2689.5730551671      4.92e-07  Convergence criterion met
 Total energy in the final basis set =    -2689.5730551671
   11   -2689.5730582009      4.89e-07  Convergence criterion met
 Total energy in the final basis set =    -2689.5730582009
   11   -2689.5730592634      4.80e-07  Convergence criterion met
 Total energy in the final basis set =    -2689.5730592634
   11   -2689.5730603242      4.80e-07  Convergence criterion met
 Total energy in the final basis set =    -2689.5730603242
   11   -2689.5730615851      4.78e-07  Convergence criterion met
 Total energy in the final basis set =    -2689.5730615851

             Standard Nuclear Orientation (Angstroms)
    I     Atom           X                Y                Z
 ----------------------------------------------------------------
    1      Br      1.8508677246     0.0053609059     0.0416782202
    2      C      -0.7668394085     0.4940996035     0.0033640598
    3      C       1.1434475629    -0.5502302963     0.0120913598
    4      C      -2.1816336757    -0.0157228632    -0.0049096735
    5      H      -0.4737181734     1.0402199109     0.9120085050
    6      H      -0.4697577712     1.0575437490    -0.8929246326
    7      H       0.6148210399    -1.1748172404    -0.7952844634
    8      H       0.5851731142    -1.2203959231     0.7603509159
    9      H      -2.9443190869     0.7827952416    -0.0038402051
   10      H      -2.3790443488    -0.6281755406    -0.8937528897
   11      H      -2.3861969772    -0.6380775475     0.8753188037
 ----------------------------------------------------------------

   11   -2689.5730623998      4.81e-07  Convergence criterion met
 Total energy in the final basis set =    -2689.5730623998

                    Orbital Energies (a.u.)
 --------------------------------------------------------------

 Alpha MOs
 -- Occupied --
******* -62.673 -56.490 -56.483 -56.482 -10.527 -10.163 -10.151
 -8.933  -6.809  -6.721  -6.717  -2.910  -2.866  -2.863  -2.799
 -2.799  -1.054  -0.726  -0.656  -0.638  -0.613  -0.550  -0.418
 -0.407  -0.384  -0.349  -0.328  -0.204  -0.150

 Beta MOs
 -- Occupied --
******* -62.673 -56.490 -56.483 -56.482 -10.527 -10.163 -10.151
 -8.933  -6.809  -6.721  -6.717  -2.910  -2.866  -2.863  -2.799
 -2.799  -1.054  -0.726  -0.656  -0.638  -0.613  -0.550  -0.418
 -0.407  -0.384  -0.349  -0.328  -0.204  -0.150

          Ground-State Mulliken Net Atomic Charges

     Atom                 Charge (a.u.)    Spin (a.u.)
  --------------------------------------------------------
      1 Br                    0.981340      -0.000000
      2 C                    -0.360392      -0.000000
      3 C                    -0.852485       0.000000
      4 C                    -0.315786       0.000000
      5 H                     0.070644       0.000000
      6 H                     0.071806       0.000000
      7 H                     0.056033       0.000000
      8 H                     0.056522       0.000000
      9 H                     0.097028      -0.000000
     10 H                     0.097766      -0.000000
     11 H                     0.097524      -0.000000
  --------------------------------------------------------
  Sum of atomic charges =    -0.000000

                    Cartesian Multipole Moments
 -----------------------------------------------------------------
    Charge (ESU x 10^10)
                -0.0000
    Dipole Moment (Debye)
         X       0.9335      Y      -1.2381      Z      -0.0207
       Tot       1.5508
    Quadrupole Moments (Debye-Ang)
        XX     -39.8402     XY      -2.2335     YY     -38.2930
        XZ      -0.0974     YZ      -0.0712     ZZ     -37.3773

 Final energy is   -2689.57306239976
 **  OPTIMIZATION CONVERGED  **
 Total job time:  223.58s(wall), 2587.33s(cpu)
        *  Thank you very much for using Q-Chem.  Have a nice day.  *
