 Q-Chem 5.1, Q-Chem, Inc., Pleasanton, CA (2018)
 Q-Chem 5.1.1 for Intel X86 EM64T Linux

User input:
--------------------------------------------------------------

$comment
potential surface scanner
$end

$rem
JOBTYPE  PES_SCAN
UNRESTRICTED TRUE
SYM_IGNORE  TRUE
GEOM_OPT_MAX_CYCLES 400
SCF_MAX_CYCLES 400
METHOD   B3LYP
BASIS   6-31G**
PDB_PRINT 2
SCF_CONVERGENCE 6
THRESH 14
SCF_PRINT 1
$end
$molecule
0 3
Br 5.379614 -0.941003 -0.004368
C -1.154624 0.616901 0.014211
C 0.143900 -0.118178 0.011853
C -2.388984 -0.316227 -0.014258
H -1.222139 1.255552 0.904378
H -1.207093 1.285751 -0.855166
H 0.566002 -0.493435 -0.915572
H 0.580111 -0.479942 0.937941
H -3.317086 0.266231 -0.015346
H -2.383473 -0.947152 -0.908832
H -2.403433 -0.975900 0.859253
$end
$scan
stre 1 3 5.200000 5.201000 0.100000
$end
--------------------------------------------------------------

   11   -2692.3207953758      7.31e-07  Convergence criterion met
 Total energy in the final basis set =    -2692.3207953758
   11   -2692.3201403476      8.33e-07  Convergence criterion met
 Total energy in the final basis set =    -2692.3201403476
   11   -2692.3205424732      8.33e-07  Convergence criterion met
 Total energy in the final basis set =    -2692.3205424732
   11   -2692.3207547637      8.02e-07  Convergence criterion met
 Total energy in the final basis set =    -2692.3207547637
   11   -2692.3207878275      7.71e-07  Convergence criterion met
 Total energy in the final basis set =    -2692.3207878275
   11   -2692.3207949229      7.50e-07  Convergence criterion met
 Total energy in the final basis set =    -2692.3207949229

             Standard Nuclear Orientation (Angstroms)
    I     Atom           X                Y                Z
 ----------------------------------------------------------------
    1      Br      5.2959547704    -0.8916255666    -0.0048799703
    2      C      -1.1397002999     0.6105134213     0.0142051791
    3      C       0.1508107240    -0.1384968637     0.0122615661
    4      C      -2.3841509129    -0.3090005531    -0.0144454199
    5      H      -1.2003970304     1.2500426997     0.9042422150
    6      H      -1.1845884928     1.2798135029    -0.8552804965
    7      H       0.5688463558    -0.5191581670    -0.9147892190
    8      H       0.5833521634    -0.5044881749     0.9384017589
    9      H      -3.3058635121     0.2835213502    -0.0157627488
   10      H      -2.3854432643    -0.9400733562    -0.9089474955
   11      H      -2.4060255012    -0.9684502925     0.8590886308
 ----------------------------------------------------------------

   11   -2692.3207958290      7.44e-07  Convergence criterion met
 Total energy in the final basis set =    -2692.3207958290

                    Orbital Energies (a.u.)
 --------------------------------------------------------------

 Alpha MOs
 -- Occupied --
******* -62.557 -56.381 -56.374 -56.374 -10.186 -10.185 -10.176
 -8.744  -6.581  -6.559  -6.559  -2.672  -2.666  -2.666  -2.650
 -2.650  -0.797  -0.779  -0.672  -0.579  -0.461  -0.426  -0.392
 -0.378  -0.371  -0.348  -0.332  -0.323  -0.322  -0.199

 Beta MOs
 -- Occupied --
******* -62.556 -56.376 -56.373 -56.373 -10.186 -10.175 -10.172
 -8.740  -6.570  -6.557  -6.557  -2.664  -2.660  -2.660  -2.649
 -2.649  -0.768  -0.753  -0.654  -0.565  -0.456  -0.421  -0.387
 -0.366  -0.343  -0.329  -0.308  -0.308

          Ground-State Mulliken Net Atomic Charges

     Atom                 Charge (a.u.)    Spin (a.u.)
  --------------------------------------------------------
      1 Br                   -0.000141       0.999990
      2 C                    -0.189010      -0.073795
      3 C                    -0.220197       1.080118
      4 C                    -0.307522       0.050117
      5 H                     0.102427       0.011634
      6 H                     0.102983       0.014322
      7 H                     0.099730      -0.047432
      8 H                     0.099959      -0.047526
      9 H                     0.101081       0.013710
     10 H                     0.105248      -0.000671
     11 H                     0.105439      -0.000466
  --------------------------------------------------------
  Sum of atomic charges =     0.000000

                    Cartesian Multipole Moments
 -----------------------------------------------------------------
    Charge (ESU x 10^10)
                -0.0000
    Dipole Moment (Debye)
         X      -0.2707      Y      -0.0127      Z       0.0011
       Tot       0.2710
    Quadrupole Moments (Debye-Ang)
        XX     -37.5606     XY       0.4738     YY     -39.4417
        XZ      -0.0754     YZ      -0.0353     ZZ     -38.8393

 Final energy is   -2692.32079582898
 **  OPTIMIZATION CONVERGED  **
 Total job time:  24.33s(wall), 275.76s(cpu)
        *  Thank you very much for using Q-Chem.  Have a nice day.  *
