 Q-Chem 5.1, Q-Chem, Inc., Pleasanton, CA (2018)
 Q-Chem 5.1.1 for Intel X86 EM64T Linux

User input:
--------------------------------------------------------------

$comment
potential surface scanner
$end

$rem
JOBTYPE  PES_SCAN
UNRESTRICTED TRUE
SYM_IGNORE  TRUE
GEOM_OPT_MAX_CYCLES 400
SCF_MAX_CYCLES 400
METHOD   B3LYP
BASIS   6-31G**
PDB_PRINT 2
SCF_CONVERGENCE 6
THRESH 14
SCF_PRINT 1
$end
$molecule
0 3
Br 4.076178 -0.041434 0.009966
C -0.894762 0.482396 0.007670
C 0.206305 -0.525247 0.006014
C -2.306234 -0.152046 -0.008817
H -0.812518 1.124483 0.894359
H -0.799927 1.141179 -0.865516
H 0.557959 -0.964027 -0.922321
H 0.553898 -0.972348 0.931853
H -3.082398 0.621398 -0.007048
H -2.446400 -0.772261 -0.899904
H -2.459316 -0.789493 0.867845
$end
$scan
stre 1 3 3.800000 3.801000 0.100000
$end
--------------------------------------------------------------

   26   -2692.3207924671      9.80e-07  Convergence criterion met
 Total energy in the final basis set =    -2692.3207924671
   22   -2692.3204917499      4.58e-07  Convergence criterion met
 Total energy in the final basis set =    -2692.3204917499
   22   -2692.3205657667      6.38e-08  Convergence criterion met
 Total energy in the final basis set =    -2692.3205657667
   22   -2692.3206312446      3.91e-08  Convergence criterion met
 Total energy in the final basis set =    -2692.3206312446
   22   -2692.3206337074      9.92e-07  Convergence criterion met
 Total energy in the final basis set =    -2692.3206337074

             Standard Nuclear Orientation (Angstroms)
    I     Atom           X                Y                Z
 ----------------------------------------------------------------
    1      Br      3.9760001136     0.0001100173     0.0099713469
    2      C      -0.8782911831     0.4789844823     0.0076385070
    3      C       0.2142960419    -0.5380047257     0.0059852563
    4      C      -2.2941037853    -0.1456716773    -0.0087290826
    5      H      -0.7908611130     1.1203013952     0.8943561700
    6      H      -0.7782318167     1.1367670100    -0.8656781982
    7      H       0.5517473480    -0.9884345913    -0.9221461038
    8      H       0.5474541195    -0.9969076654     0.9314663628
    9      H      -3.0654071207     0.6326475572    -0.0069811422
   10      H      -2.4384303088    -0.7650864814    -0.8997460992
   11      H      -2.4513872953    -0.7821053209     0.8679639829
 ----------------------------------------------------------------

   23   -2692.3206343812      5.59e-08  Convergence criterion met
 Total energy in the final basis set =    -2692.3206343812

                    Orbital Energies (a.u.)
 --------------------------------------------------------------

 Alpha MOs
 -- Occupied --
******* -62.554 -56.378 -56.371 -56.371 -10.184 -10.183 -10.175
 -8.741  -6.578  -6.556  -6.555  -2.669  -2.663  -2.663  -2.647
 -2.647  -0.794  -0.777  -0.670  -0.577  -0.459  -0.425  -0.390
 -0.376  -0.369  -0.347  -0.330  -0.320  -0.319  -0.195

 Beta MOs
 -- Occupied --
******* -62.552 -56.373 -56.369 -56.369 -10.185 -10.174 -10.170
 -8.737  -6.567  -6.554  -6.554  -2.661  -2.657  -2.657  -2.646
 -2.646  -0.767  -0.750  -0.652  -0.563  -0.455  -0.420  -0.385
 -0.365  -0.342  -0.328  -0.306  -0.304

          Ground-State Mulliken Net Atomic Charges

     Atom                 Charge (a.u.)    Spin (a.u.)
  --------------------------------------------------------
      1 Br                   -0.003577       1.006773
      2 C                    -0.191462      -0.073094
      3 C                    -0.213694       1.072319
      4 C                    -0.307149       0.049814
      5 H                     0.101694       0.012627
      6 H                     0.101850       0.013232
      7 H                     0.100947      -0.047289
      8 H                     0.101146      -0.047299
      9 H                     0.100121       0.014015
     10 H                     0.105038      -0.000572
     11 H                     0.105085      -0.000526
  --------------------------------------------------------
  Sum of atomic charges =    -0.000000

                    Cartesian Multipole Moments
 -----------------------------------------------------------------
    Charge (ESU x 10^10)
                 0.0000
    Dipole Moment (Debye)
         X      -0.2880      Y       0.0184      Z      -0.0003
       Tot       0.2886
    Quadrupole Moments (Debye-Ang)
        XX     -40.4990     XY      -0.7645     YY     -36.9381
        XZ      -0.0141     YZ       0.0558     ZZ     -38.8481

 Final energy is   -2692.32063438125
 **  OPTIMIZATION CONVERGED  **
 Total job time:  36.16s(wall), 421.83s(cpu)
        *  Thank you very much for using Q-Chem.  Have a nice day.  *
