 Q-Chem 5.1, Q-Chem, Inc., Pleasanton, CA (2018)
 Q-Chem 5.1.1 for Intel X86 EM64T Linux

User input:
--------------------------------------------------------------

$comment
potential surface scanner
$end

$rem
JOBTYPE  PES_SCAN
UNRESTRICTED TRUE
SYM_IGNORE  TRUE
GEOM_OPT_MAX_CYCLES 400
SCF_MAX_CYCLES 400
METHOD   B3LYP
BASIS   6-31G**
PDB_PRINT 2
SCF_CONVERGENCE 6
THRESH 14
SCF_PRINT 1
$end
$molecule
0 1
Br 2.913049 0.382554 0.019913
C -0.679328 0.454374 0.008727
C 0.226248 -0.708706 0.004101
C -2.147802 -0.069758 -0.009834
H -0.523155 1.060842 0.904184
H -0.508205 1.078824 -0.871543
H 0.431222 -1.238864 -0.920279
H 0.424546 -1.252570 0.921981
H -2.824241 0.789576 -0.005370
H -2.352105 -0.661203 -0.906539
H -2.367436 -0.682470 0.868761
$end
$scan
stre 1 3 3.000000 3.001000 0.100000
$end
--------------------------------------------------------------

   12   -2692.3759693308      1.43e-07  Convergence criterion met
 Total energy in the final basis set =    -2692.3759693308
   11   -2692.3690623601      9.34e-07  Convergence criterion met
 Total energy in the final basis set =    -2692.3690623601
   11   -2692.3691611178      9.42e-07  Convergence criterion met
 Total energy in the final basis set =    -2692.3691611178
   11   -2692.3692481594      9.64e-07  Convergence criterion met
 Total energy in the final basis set =    -2692.3692481594
   11   -2692.3692596710      9.71e-07  Convergence criterion met
 Total energy in the final basis set =    -2692.3692596710
   11   -2692.3692723625      9.82e-07  Convergence criterion met
 Total energy in the final basis set =    -2692.3692723625
   11   -2692.3692745593      9.83e-07  Convergence criterion met
 Total energy in the final basis set =    -2692.3692745593
   11   -2692.3692756748      9.83e-07  Convergence criterion met
 Total energy in the final basis set =    -2692.3692756748

             Standard Nuclear Orientation (Angstroms)
    I     Atom           X                Y                Z
 ----------------------------------------------------------------
    1      Br      2.9923435678     0.4058858315     0.0148658813
    2      C      -0.6856913093     0.4487850771     0.0102577796
    3      C       0.2108196321    -0.7179654996     0.0058062970
    4      C      -2.1584305023    -0.0689940202    -0.0109388144
    5      H      -0.5295207518     1.0533401416     0.9070191557
    6      H      -0.5121657803     1.0724103460    -0.8701709911
    7      H       0.4275410569    -1.2424904693    -0.9190911027
    8      H       0.4227442040    -1.2548020108     0.9247522759
    9      H      -2.8284196779     0.7953228143    -0.0066759293
   10      H      -2.3641250758    -0.6580481711    -0.9086937441
   11      H      -2.3823023635    -0.6808450396     0.8669711920
 ----------------------------------------------------------------

   11   -2692.3692761177      9.83e-07  Convergence criterion met
 Total energy in the final basis set =    -2692.3692761177

                    Orbital Energies (a.u.)
 --------------------------------------------------------------

 Alpha MOs
 -- Occupied --
******* -62.461 -56.282 -56.279 -56.279 -10.300 -10.236 -10.226
 -8.646  -6.475  -6.464  -6.464  -2.568  -2.565  -2.565  -2.557
 -2.557  -0.840  -0.724  -0.688  -0.632  -0.523  -0.482  -0.447
 -0.423  -0.403  -0.384  -0.263  -0.238  -0.238

 Beta MOs
 -- Occupied --
******* -62.461 -56.282 -56.279 -56.279 -10.300 -10.236 -10.226
 -8.646  -6.475  -6.464  -6.464  -2.568  -2.565  -2.565  -2.557
 -2.557  -0.840  -0.724  -0.688  -0.632  -0.523  -0.482  -0.447
 -0.423  -0.403  -0.384  -0.263  -0.238  -0.238

          Ground-State Mulliken Net Atomic Charges

     Atom                 Charge (a.u.)    Spin (a.u.)
  --------------------------------------------------------
      1 Br                   -0.437620      -0.000000
      2 C                    -0.215132      -0.000000
      3 C                    -0.094717      -0.000000
      4 C                    -0.342076       0.000000
      5 H                     0.158827      -0.000000
      6 H                     0.159852      -0.000000
      7 H                     0.185144       0.000000
      8 H                     0.185125      -0.000000
      9 H                     0.142718      -0.000000
     10 H                     0.128998      -0.000000
     11 H                     0.128879       0.000000
  --------------------------------------------------------
  Sum of atomic charges =     0.000000

                    Cartesian Multipole Moments
 -----------------------------------------------------------------
    Charge (ESU x 10^10)
                 0.0000
    Dipole Moment (Debye)
         X      -6.6347      Y      -1.6048      Z      -0.0241
       Tot       6.8261
    Quadrupole Moments (Debye-Ang)
        XX     -53.7229     XY      -2.5104     YY     -37.8221
        XZ      -0.0863     YZ      -0.0225     ZZ     -38.4721

 Final energy is   -2692.36927611771
 **  OPTIMIZATION CONVERGED  **
 Total job time:  37.75s(wall), 410.62s(cpu)
        *  Thank you very much for using Q-Chem.  Have a nice day.  *
