 Q-Chem 5.1, Q-Chem, Inc., Pleasanton, CA (2018)
 Q-Chem 5.1.1 for Intel X86 EM64T Linux

User input:
--------------------------------------------------------------

$comment
potential surface scanner
$end

$rem
JOBTYPE  PES_SCAN
UNRESTRICTED TRUE
SYM_IGNORE  TRUE
GEOM_OPT_MAX_CYCLES 400
SCF_MAX_CYCLES 400
METHOD   B3LYP
BASIS   6-31G**
PDB_PRINT 2
SCF_CONVERGENCE 6
THRESH 14
SCF_PRINT 1
$end
$molecule
0 1
Br 2.210600 0.183000 -0.010500
C -0.617000 0.498300 0.014000
C 0.429200 -0.601700 0.010200
C -2.022700 -0.079700 -0.013600
H -0.503100 1.127200 0.905100
H -0.483600 1.153700 -0.855200
H 0.357400 -1.232600 -0.880100
H 0.371000 -1.225900 0.906000
H -2.764000 0.725600 -0.009200
H -2.181500 -0.682500 -0.913600
H -2.203500 -0.712800 0.861000
$end
$scan
stre 1 3 3.100000 3.101000 0.100000
$end
--------------------------------------------------------------

    9   -2692.4353936127      6.13e-07  Convergence criterion met
 Total energy in the final basis set =    -2692.4353936127
    9   -2692.4330012081      5.01e-07  Convergence criterion met
 Total energy in the final basis set =    -2692.4330012081
    9   -2692.4238707042      6.17e-07  Convergence criterion met
 Total energy in the final basis set =    -2692.4238707042
    9   -2692.4124129257      7.29e-07  Convergence criterion met
 Total energy in the final basis set =    -2692.4124129257
   10   -2692.4017328533      7.55e-07  Convergence criterion met
 Total energy in the final basis set =    -2692.4017328533
   10   -2692.3911715262      9.45e-07  Convergence criterion met
 Total energy in the final basis set =    -2692.3911715262
   11   -2692.3813095575      8.53e-07  Convergence criterion met
 Total energy in the final basis set =    -2692.3813095575
   12   -2692.3709195012      2.09e-07  Convergence criterion met
   11   -2692.3626726338      5.62e-07  Convergence criterion met
 Total energy in the final basis set =    -2692.3626726338
   11   -2692.3626844174      5.55e-07  Convergence criterion met
 Total energy in the final basis set =    -2692.3626844174
   11   -2692.3626948981      5.50e-07  Convergence criterion met
 Total energy in the final basis set =    -2692.3626948981
   11   -2692.3627003549      5.49e-07  Convergence criterion met
 Total energy in the final basis set =    -2692.3627003549
   11   -2692.3627016126      5.50e-07  Convergence criterion met
 Total energy in the final basis set =    -2692.3627016126
   11   -2692.3627021614      5.51e-07  Convergence criterion met
 Total energy in the final basis set =    -2692.3627021614

             Standard Nuclear Orientation (Angstroms)
    I     Atom           X                Y                Z
 ----------------------------------------------------------------
    1      Br      3.0719668093     0.4255813047     0.0047229924
    2      C      -0.6933464023     0.4419848826     0.0105261820
    3      C       0.1945261864    -0.7278172866     0.0072683571
    4      C      -2.1707925676    -0.0670808462    -0.0101427189
    5      H      -0.5342199005     1.0456814843     0.9072536810
    6      H      -0.5168098423     1.0622324456    -0.8717325320
    7      H       0.4232123825    -1.2485667577    -0.9171745093
    8      H       0.4291615760    -1.2513259373     0.9285899131
    9      H      -2.8330083838     0.8031753872    -0.0067629348
   10      H      -2.3799112205    -0.6554591650    -0.9073242638
   11      H      -2.3979786373    -0.6758055118     0.8688758333
 ----------------------------------------------------------------

   11   -2692.3627030130      5.51e-07  Convergence criterion met
 Total energy in the final basis set =    -2692.3627030130

                    Orbital Energies (a.u.)
 --------------------------------------------------------------

 Alpha MOs
 -- Occupied --
******* -62.458 -56.279 -56.276 -56.276 -10.302 -10.239 -10.229
 -8.643  -6.472  -6.461  -6.461  -2.565  -2.562  -2.562  -2.554
 -2.554  -0.843  -0.726  -0.685  -0.635  -0.526  -0.485  -0.449
 -0.425  -0.406  -0.386  -0.257  -0.235  -0.235

 Beta MOs
 -- Occupied --
******* -62.458 -56.279 -56.276 -56.276 -10.302 -10.239 -10.229
 -8.643  -6.472  -6.461  -6.461  -2.565  -2.562  -2.562  -2.554
 -2.554  -0.843  -0.726  -0.685  -0.635  -0.526  -0.485  -0.449
 -0.425  -0.406  -0.386  -0.257  -0.235  -0.235

          Ground-State Mulliken Net Atomic Charges

     Atom                 Charge (a.u.)    Spin (a.u.)
  --------------------------------------------------------
      1 Br                   -0.452671       0.000000
      2 C                    -0.218807      -0.000000
      3 C                    -0.088362      -0.000000
      4 C                    -0.342212      -0.000000
      5 H                     0.160800      -0.000000
      6 H                     0.162407      -0.000000
      7 H                     0.186683      -0.000000
      8 H                     0.187045       0.000000
      9 H                     0.144333      -0.000000
     10 H                     0.130453       0.000000
     11 H                     0.130331       0.000000
  --------------------------------------------------------
  Sum of atomic charges =    -0.000000

                    Cartesian Multipole Moments
 -----------------------------------------------------------------
    Charge (ESU x 10^10)
                 0.0000
    Dipole Moment (Debye)
         X      -7.0143      Y      -1.6866      Z      -0.0014
       Tot       7.2143
    Quadrupole Moments (Debye-Ang)
        XX     -55.0537     XY      -2.7791     YY     -37.8367
        XZ      -0.0256     YZ      -0.0189     ZZ     -38.4539

 Final energy is   -2692.36270301303
 **  OPTIMIZATION CONVERGED  **
 Total job time:  86.72s(wall), 950.39s(cpu)
        *  Thank you very much for using Q-Chem.  Have a nice day.  *
