 Q-Chem 5.1, Q-Chem, Inc., Pleasanton, CA (2018)
 Q-Chem 5.1.1 for Intel X86 EM64T Linux

User input:
--------------------------------------------------------------

$comment
potential surface scanner
$end

$rem
JOBTYPE  PES_SCAN
UNRESTRICTED TRUE
SYM_IGNORE  TRUE
GEOM_OPT_MAX_CYCLES 400
SCF_MAX_CYCLES 400
METHOD   B3LYP
BASIS   6-31G**
PDB_PRINT 2
SCF_CONVERGENCE 6
THRESH 14
SCF_PRINT 1
$end
$molecule
0 3
Br 2.816617 0.377146 0.013339
C -0.700154 0.437167 0.007683
C 0.322221 -0.656241 0.003063
C -2.155343 -0.083336 -0.006437
H -0.564117 1.072516 0.893136
H -0.553529 1.089869 -0.863326
H 0.505922 -1.206955 -0.918601
H 0.496025 -1.224939 0.915533
H -2.872012 0.746186 -0.001337
H -2.346345 -0.689509 -0.898198
H -2.356500 -0.709298 0.869247
$end
$scan
stre 1 3 2.600000 2.601000 0.100000
$end
--------------------------------------------------------------

   10   -2692.3059639300      5.50e-07  Convergence criterion met
 Total energy in the final basis set =    -2692.3059639300
   10   -2692.3012814604      7.88e-07  Convergence criterion met
 Total energy in the final basis set =    -2692.3012814604
   10   -2692.3014444654      7.71e-07  Convergence criterion met
 Total energy in the final basis set =    -2692.3014444654
   10   -2692.3014817903      7.64e-07  Convergence criterion met
 Total energy in the final basis set =    -2692.3014817903
   10   -2692.3014902439      7.69e-07  Convergence criterion met
 Total energy in the final basis set =    -2692.3014902439
   10   -2692.3015169507      8.15e-07  Convergence criterion met
 Total energy in the final basis set =    -2692.3015169507
   10   -2692.3015184572      8.24e-07  Convergence criterion met
 Total energy in the final basis set =    -2692.3015184572

             Standard Nuclear Orientation (Angstroms)
    I     Atom           X                Y                Z
 ----------------------------------------------------------------
    1      Br      2.7536881933     0.3335863535     0.0092068755
    2      C      -0.6947362147     0.4485710376     0.0086318236
    3      C       0.3407042331    -0.6346534500     0.0044786267
    4      C      -2.1435489651    -0.0874086851    -0.0070648261
    5      H      -0.5655129972     1.0853060341     0.8942847993
    6      H      -0.5534961927     1.1038349894    -0.8615441817
    7      H       0.5000307279    -1.2004176382    -0.9141514757
    8      H       0.4912377775    -1.2173361596     0.9136489119
    9      H      -2.8705970738     0.7331702241    -0.0021051288
   10      H      -2.3267835797    -0.6955368680    -0.8992164500
   11      H      -2.3382009086    -0.7165098377     0.8679330252
 ----------------------------------------------------------------

   10   -2692.3015193397      8.36e-07  Convergence criterion met
 Total energy in the final basis set =    -2692.3015193397

                    Orbital Energies (a.u.)
 --------------------------------------------------------------

 Alpha MOs
 -- Occupied --
******* -62.552 -56.376 -56.369 -56.369 -10.181 -10.175 -10.172
 -8.740  -6.576  -6.555  -6.554  -2.667  -2.662  -2.661  -2.646
 -2.646  -0.800  -0.772  -0.667  -0.576  -0.456  -0.422  -0.389
 -0.381  -0.364  -0.346  -0.327  -0.327  -0.318  -0.167

 Beta MOs
 -- Occupied --
******* -62.551 -56.371 -56.368 -56.368 -10.181 -10.171 -10.161
 -8.735  -6.565  -6.552  -6.552  -2.659  -2.655  -2.655  -2.644
 -2.644  -0.767  -0.748  -0.649  -0.564  -0.451  -0.415  -0.380
 -0.368  -0.339  -0.325  -0.304  -0.303

          Ground-State Mulliken Net Atomic Charges

     Atom                 Charge (a.u.)    Spin (a.u.)
  --------------------------------------------------------
      1 Br                    0.047001       1.067870
      2 C                    -0.170767      -0.061839
      3 C                    -0.261371       0.980898
      4 C                    -0.307202       0.040055
      5 H                     0.096240       0.011240
      6 H                     0.096351       0.011357
      7 H                     0.098848      -0.031906
      8 H                     0.099276      -0.032357
      9 H                     0.097064       0.015949
     10 H                     0.102250      -0.000636
     11 H                     0.102310      -0.000630
  --------------------------------------------------------
  Sum of atomic charges =    -0.000000

                    Cartesian Multipole Moments
 -----------------------------------------------------------------
    Charge (ESU x 10^10)
                 0.0000
    Dipole Moment (Debye)
         X      -0.1761      Y      -0.0412      Z       0.0012
       Tot       0.1809
    Quadrupole Moments (Debye-Ang)
        XX     -41.1383     XY      -0.6375     YY     -39.6676
        XZ      -0.0050     YZ       0.0462     ZZ     -36.2873

 Final energy is   -2692.30151933974
 **  OPTIMIZATION CONVERGED  **
 Total job time:  35.45s(wall), 347.26s(cpu)
        *  Thank you very much for using Q-Chem.  Have a nice day.  *
