 Q-Chem 5.1, Q-Chem, Inc., Pleasanton, CA (2018)
 Q-Chem 5.1.1 for Intel X86 EM64T Linux

User input:
--------------------------------------------------------------

$comment
potential surface scanner
$end

$rem
JOBTYPE  PES_SCAN
UNRESTRICTED TRUE
SYM_IGNORE  TRUE
GEOM_OPT_MAX_CYCLES 400
SCF_MAX_CYCLES 400
METHOD   B3LYP
BASIS   6-31G**
PDB_PRINT 2
SCF_CONVERGENCE 6
THRESH 14
SCF_PRINT 1
$end
$molecule
0 1
Br 2.614551 0.286296 0.025845
C -0.654877 0.480238 0.006775
C 0.301557 -0.662127 0.002370
C -2.100847 -0.074193 -0.008028
H -0.503177 1.096240 0.897058
H -0.491740 1.112425 -0.870023
H 0.422193 -1.228546 -0.916014
H 0.410473 -1.245838 0.911350
H -2.810646 0.758144 -0.003957
H -2.291683 -0.675814 -0.902030
H -2.303007 -0.694225 0.870756
$end
$scan
stre 1 3 2.600000 2.601000 0.100000
$end
--------------------------------------------------------------

   10   -2692.4062691267      8.23e-07  Convergence criterion met
 Total energy in the final basis set =    -2692.4062691267
   10   -2692.3983914442      9.12e-07  Convergence criterion met
 Total energy in the final basis set =    -2692.3983914442
   10   -2692.3983080766      9.30e-07  Convergence criterion met
 Total energy in the final basis set =    -2692.3983080766
   10   -2692.3983672495      9.57e-07  Convergence criterion met
 Total energy in the final basis set =    -2692.3983672495

             Standard Nuclear Orientation (Angstroms)
    I     Atom           X                Y                Z
 ----------------------------------------------------------------
    1      Br      2.6908906932     0.3018876513     0.0215589756
    2      C      -0.6614519627     0.4767408585     0.0080855109
    3      C       0.2800537560    -0.6715311792     0.0036952184
    4      C      -2.1119702906    -0.0742645236    -0.0088755168
    5      H      -0.5099241211     1.0900965368     0.8999672134
    6      H      -0.4968905318     1.1070083842    -0.8695688627
    7      H       0.4244763549    -1.2284031448    -0.9167315891
    8      H       0.4147190551    -1.2445241466     0.9156930289
    9      H      -2.8160538059     0.7628022575    -0.0050371370
   10      H      -2.3035822286    -0.6735802500    -0.9039960447
   11      H      -2.3174699185    -0.6936324440     0.8693112030
 ----------------------------------------------------------------

   10   -2692.3983682165      9.57e-07  Convergence criterion met
 Total energy in the final basis set =    -2692.3983682165

                    Orbital Energies (a.u.)
 --------------------------------------------------------------

 Alpha MOs
 -- Occupied --
******* -62.476 -56.297 -56.294 -56.294 -10.284 -10.223 -10.213
 -8.662  -6.491  -6.480  -6.480  -2.584  -2.581  -2.581  -2.572
 -2.572  -0.827  -0.723  -0.695  -0.621  -0.509  -0.466  -0.434
 -0.416  -0.390  -0.371  -0.290  -0.252  -0.252

 Beta MOs
 -- Occupied --
******* -62.476 -56.297 -56.294 -56.294 -10.284 -10.223 -10.213
 -8.662  -6.491  -6.480  -6.480  -2.584  -2.581  -2.581  -2.572
 -2.572  -0.827  -0.723  -0.695  -0.621  -0.509  -0.466  -0.434
 -0.416  -0.390  -0.371  -0.290  -0.252  -0.252

          Ground-State Mulliken Net Atomic Charges

     Atom                 Charge (a.u.)    Spin (a.u.)
  --------------------------------------------------------
      1 Br                   -0.344318      -0.000000
      2 C                    -0.196920      -0.000000
      3 C                    -0.145848       0.000000
      4 C                    -0.338568      -0.000000
      5 H                     0.146951       0.000000
      6 H                     0.147225       0.000000
      7 H                     0.176779       0.000000
      8 H                     0.176713      -0.000000
      9 H                     0.133952      -0.000000
     10 H                     0.122043      -0.000000
     11 H                     0.121992       0.000000
  --------------------------------------------------------
  Sum of atomic charges =     0.000000

                    Cartesian Multipole Moments
 -----------------------------------------------------------------
    Charge (ESU x 10^10)
                -0.0000
    Dipole Moment (Debye)
         X      -4.9592      Y      -1.1941      Z      -0.0335
       Tot       5.1011
    Quadrupole Moments (Debye-Ang)
        XX     -48.7317     XY      -1.4289     YY     -37.8920
        XZ      -0.0923     YZ      -0.0136     ZZ     -38.5427

 Final energy is   -2692.39836821652
 **  OPTIMIZATION CONVERGED  **
 Total job time:  18.94s(wall), 216.24s(cpu)
        *  Thank you very much for using Q-Chem.  Have a nice day.  *
