 Q-Chem 5.1, Q-Chem, Inc., Pleasanton, CA (2018)
 Q-Chem 5.1.1 for Intel X86 EM64T Linux

User input:
--------------------------------------------------------------

$comment
potential surface scanner
$end

$rem
JOBTYPE  PES_SCAN
UNRESTRICTED TRUE
SYM_IGNORE  TRUE
GEOM_OPT_MAX_CYCLES 400
SCF_MAX_CYCLES 400
METHOD   B3LYP
BASIS   6-31G**
PDB_PRINT 2
SCF_CONVERGENCE 6
THRESH 14
SCF_PRINT 1
$end
$molecule
0 1
Br 2.480946 0.225680 0.023009
C -0.643744 0.495826 0.007387
C 0.346732 -0.631495 0.003472
C -2.076154 -0.078245 -0.008036
H -0.499040 1.117293 0.895766
H -0.487330 1.133250 -0.867582
H 0.405897 -1.220084 -0.908253
H 0.394410 -1.237348 0.904500
H -2.806073 0.736614 -0.004331
H -2.255431 -0.684950 -0.901586
H -2.267416 -0.703942 0.869756
$end
$scan
stre 1 3 2.400000 2.401000 0.100000
$end
--------------------------------------------------------------

    9   -2692.4217546100      7.00e-07  Convergence criterion met
 Total energy in the final basis set =    -2692.4217546100
    9   -2692.4139137666      7.94e-07  Convergence criterion met
 Total energy in the final basis set =    -2692.4139137666
    9   -2692.4138887076      8.19e-07  Convergence criterion met
 Total energy in the final basis set =    -2692.4138887076
    9   -2692.4139950296      8.56e-07  Convergence criterion met
 Total energy in the final basis set =    -2692.4139950296

             Standard Nuclear Orientation (Angstroms)
    I     Atom           X                Y                Z
 ----------------------------------------------------------------
    1      Br      2.5412348685     0.2680591912     0.0266123802
    2      C      -0.6486747392     0.4840371676     0.0063130214
    3      C       0.3244370335    -0.6512913248     0.0020918076
    4      C      -2.0898937186    -0.0745240969    -0.0078808314
    5      H      -0.4983950731     1.1022855334     0.8956063175
    6      H      -0.4870286451     1.1187045780    -0.8693059402
    7      H       0.4182116605    -1.2285033143    -0.9132424069
    8      H       0.4063697636    -1.2451967471     0.9078261906
    9      H      -2.8056598075     0.7527949907    -0.0033821838
   10      H      -2.2788539729    -0.6777812510    -0.9014148578
   11      H      -2.2889503697    -0.6959857267     0.8708785029
 ----------------------------------------------------------------

    9   -2692.4139961155      8.54e-07  Convergence criterion met
 Total energy in the final basis set =    -2692.4139961155

                    Orbital Energies (a.u.)
 --------------------------------------------------------------

 Alpha MOs
 -- Occupied --
******* -62.486 -56.307 -56.303 -56.303 -10.273 -10.215 -10.205
 -8.671  -6.501  -6.489  -6.489  -2.594  -2.591  -2.591  -2.582
 -2.582  -0.820  -0.732  -0.690  -0.614  -0.500  -0.457  -0.426
 -0.413  -0.381  -0.364  -0.308  -0.261  -0.260

 Beta MOs
 -- Occupied --
******* -62.486 -56.307 -56.303 -56.303 -10.273 -10.215 -10.205
 -8.671  -6.501  -6.489  -6.489  -2.594  -2.591  -2.591  -2.582
 -2.582  -0.820  -0.732  -0.690  -0.614  -0.500  -0.457  -0.426
 -0.413  -0.381  -0.364  -0.308  -0.261  -0.260

          Ground-State Mulliken Net Atomic Charges

     Atom                 Charge (a.u.)    Spin (a.u.)
  --------------------------------------------------------
      1 Br                   -0.275736       0.000000
      2 C                    -0.187439      -0.000000
      3 C                    -0.183591      -0.000000
      4 C                    -0.335096       0.000000
      5 H                     0.139288       0.000000
      6 H                     0.139254       0.000000
      7 H                     0.169797      -0.000000
      8 H                     0.169850       0.000000
      9 H                     0.128229      -0.000000
     10 H                     0.117738       0.000000
     11 H                     0.117707      -0.000000
  --------------------------------------------------------
  Sum of atomic charges =    -0.000000

                    Cartesian Multipole Moments
 -----------------------------------------------------------------
    Charge (ESU x 10^10)
                -0.0000
    Dipole Moment (Debye)
         X      -4.0275      Y      -1.0089      Z      -0.0373
       Tot       4.1521
    Quadrupole Moments (Debye-Ang)
        XX     -46.4122     XY      -1.0049     YY     -37.9703
        XZ      -0.0887     YZ      -0.0063     ZZ     -38.5791

 Final energy is   -2692.41399611547
 **  OPTIMIZATION CONVERGED  **
 Total job time:  17.93s(wall), 204.36s(cpu)
        *  Thank you very much for using Q-Chem.  Have a nice day.  *
