 Q-Chem 5.1, Q-Chem, Inc., Pleasanton, CA (2018)
 Q-Chem 5.1.1 for Intel X86 EM64T Linux

User input:
--------------------------------------------------------------

$comment
potential surface scanner
$end

$rem
JOBTYPE  PES_SCAN
UNRESTRICTED TRUE
SYM_IGNORE  TRUE
GEOM_OPT_MAX_CYCLES 400
SCF_MAX_CYCLES 400
METHOD   B3LYP
BASIS   6-31G**
PDB_PRINT 2
SCF_CONVERGENCE 6
THRESH 14
SCF_PRINT 1
$end
$molecule
0 1
Br 2.541235 0.268059 0.026612
C -0.648675 0.484037 0.006313
C 0.324437 -0.651291 0.002092
C -2.089894 -0.074524 -0.007881
H -0.498395 1.102286 0.895606
H -0.487029 1.118705 -0.869306
H 0.418212 -1.228503 -0.913242
H 0.406370 -1.245197 0.907826
H -2.805660 0.752795 -0.003382
H -2.278854 -0.677781 -0.901415
H -2.288950 -0.695986 0.870879
$end
$scan
stre 1 3 2.500000 2.501000 0.100000
$end
--------------------------------------------------------------

    9   -2692.4139961194      8.54e-07  Convergence criterion met
 Total energy in the final basis set =    -2692.4139961194
   10   -2692.4062577554      7.63e-07  Convergence criterion met
 Total energy in the final basis set =    -2692.4062577554
   10   -2692.4061881463      7.85e-07  Convergence criterion met
 Total energy in the final basis set =    -2692.4061881463
   10   -2692.4062681912      8.23e-07  Convergence criterion met
 Total energy in the final basis set =    -2692.4062681912

             Standard Nuclear Orientation (Angstroms)
    I     Atom           X                Y                Z
 ----------------------------------------------------------------
    1      Br      2.6145514268     0.2862964618     0.0258448296
    2      C      -0.6548766265     0.4802376022     0.0067753309
    3      C       0.3015572015    -0.6621265753     0.0023700133
    4      C      -2.1008467682    -0.0741929840    -0.0080284049
    5      H      -0.5031769343     1.0962396384     0.8970582435
    6      H      -0.4917401960     1.1124250426    -0.8700225886
    7      H       0.4221926777    -1.2285459018    -0.9160140709
    8      H       0.4104726135    -1.2458381537     0.9113495684
    9      H      -2.8106462366     0.7581441055    -0.0039569105
   10      H      -2.2916827298    -0.6758142288    -0.9020299550
   11      H      -2.3030074280    -0.6942250068     0.8707559442
 ----------------------------------------------------------------

   10   -2692.4062691093      8.23e-07  Convergence criterion met
 Total energy in the final basis set =    -2692.4062691093

                    Orbital Energies (a.u.)
 --------------------------------------------------------------

 Alpha MOs
 -- Occupied --
******* -62.481 -56.302 -56.298 -56.298 -10.279 -10.219 -10.209
 -8.667  -6.496  -6.484  -6.484  -2.589  -2.586  -2.586  -2.577
 -2.577  -0.823  -0.727  -0.693  -0.618  -0.504  -0.462  -0.430
 -0.414  -0.385  -0.368  -0.298  -0.257  -0.256

 Beta MOs
 -- Occupied --
******* -62.481 -56.302 -56.298 -56.298 -10.279 -10.219 -10.209
 -8.667  -6.496  -6.484  -6.484  -2.589  -2.586  -2.586  -2.577
 -2.577  -0.823  -0.727  -0.693  -0.618  -0.504  -0.462  -0.430
 -0.414  -0.385  -0.368  -0.298  -0.257  -0.256

          Ground-State Mulliken Net Atomic Charges

     Atom                 Charge (a.u.)    Spin (a.u.)
  --------------------------------------------------------
      1 Br                   -0.311426       0.000000
      2 C                    -0.191906       0.000000
      3 C                    -0.164218      -0.000000
      4 C                    -0.336944      -0.000000
      5 H                     0.143280      -0.000000
      6 H                     0.143287      -0.000000
      7 H                     0.173517       0.000000
      8 H                     0.173515       0.000000
      9 H                     0.131151      -0.000000
     10 H                     0.119883       0.000000
     11 H                     0.119861       0.000000
  --------------------------------------------------------
  Sum of atomic charges =    -0.000000

                    Cartesian Multipole Moments
 -----------------------------------------------------------------
    Charge (ESU x 10^10)
                -0.0000
    Dipole Moment (Debye)
         X      -4.4912      Y      -1.1045      Z      -0.0391
       Tot       4.6252
    Quadrupole Moments (Debye-Ang)
        XX     -47.5379     XY      -1.2147     YY     -37.9267
        XZ      -0.0975     YZ      -0.0094     ZZ     -38.5626

 Final energy is   -2692.40626910930
 **  OPTIMIZATION CONVERGED  **
 Total job time:  18.70s(wall), 213.91s(cpu)
        *  Thank you very much for using Q-Chem.  Have a nice day.  *
