 Q-Chem 5.1, Q-Chem, Inc., Pleasanton, CA (2018)
 Q-Chem 5.1.1 for Intel X86 EM64T Linux

User input:
--------------------------------------------------------------

$comment
potential surface scanner
$end

$rem
JOBTYPE  PES_SCAN
UNRESTRICTED TRUE
SYM_IGNORE  TRUE
GEOM_OPT_MAX_CYCLES 400
SCF_MAX_CYCLES 400
METHOD   B3LYP
BASIS   6-31G**
PDB_PRINT 2
SCF_CONVERGENCE 6
THRESH 14
SCF_PRINT 1
$end
$molecule
0 1
Br 2.690891 0.301888 0.021559
C -0.661452 0.476741 0.008086
C 0.280054 -0.671531 0.003695
C -2.111970 -0.074265 -0.008876
H -0.509924 1.090097 0.899967
H -0.496891 1.107008 -0.869569
H 0.424476 -1.228403 -0.916732
H 0.414719 -1.244524 0.915693
H -2.816054 0.762802 -0.005037
H -2.303582 -0.673580 -0.903996
H -2.317470 -0.693632 0.869311
$end
$scan
stre 1 3 2.700000 2.701000 0.100000
$end
--------------------------------------------------------------

   10   -2692.3983682065      9.57e-07  Convergence criterion met
 Total energy in the final basis set =    -2692.3983682065
   11   -2692.3904959538      4.78e-07  Convergence criterion met
 Total energy in the final basis set =    -2692.3904959538
   11   -2692.3903406137      4.84e-07  Convergence criterion met
 Total energy in the final basis set =    -2692.3903406137
   11   -2692.3892311170      5.27e-07  Convergence criterion met
 Total energy in the final basis set =    -2692.3892311170
   11   -2692.3904428005      4.98e-07  Convergence criterion met
 Total energy in the final basis set =    -2692.3904428005
   11   -2692.3904511641      4.97e-07  Convergence criterion met
 Total energy in the final basis set =    -2692.3904511641
   11   -2692.3904523160      4.97e-07  Convergence criterion met
 Total energy in the final basis set =    -2692.3904523160

             Standard Nuclear Orientation (Angstroms)
    I     Atom           X                Y                Z
 ----------------------------------------------------------------
    1      Br      2.7626022079     0.3306248014     0.0143763412
    2      C      -0.6676290292     0.4683110712     0.0100319003
    3      C       0.2610285455    -0.6852757777     0.0057465873
    4      C      -2.1245925363    -0.0723860797    -0.0108198553
    5      H      -0.5153202330     1.0780758138     0.9040892501
    6      H      -0.4983609835     1.0977162819    -0.8672449915
    7      H       0.4263547386    -1.2347331551    -0.9154250585
    8      H       0.4240969732    -1.2447373618     0.9212691299
    9      H      -2.8185204660     0.7730433142    -0.0059728716
   10      H      -2.3199026241    -0.6670385318    -0.9079424529
   11      H      -2.3369595932    -0.6909993764     0.8659930210
 ----------------------------------------------------------------

   11   -2692.3904526167      4.97e-07  Convergence criterion met
 Total energy in the final basis set =    -2692.3904526167

                    Orbital Energies (a.u.)
 --------------------------------------------------------------

 Alpha MOs
 -- Occupied --
******* -62.472 -56.293 -56.290 -56.290 -10.289 -10.226 -10.217
 -8.657  -6.486  -6.475  -6.475  -2.579  -2.577  -2.577  -2.568
 -2.568  -0.830  -0.721  -0.695  -0.624  -0.513  -0.471  -0.437
 -0.418  -0.393  -0.375  -0.282  -0.248  -0.248

 Beta MOs
 -- Occupied --
******* -62.472 -56.293 -56.290 -56.290 -10.289 -10.226 -10.217
 -8.657  -6.486  -6.475  -6.475  -2.579  -2.577  -2.577  -2.568
 -2.568  -0.830  -0.721  -0.695  -0.624  -0.513  -0.471  -0.437
 -0.418  -0.393  -0.375  -0.282  -0.248  -0.248

          Ground-State Mulliken Net Atomic Charges

     Atom                 Charge (a.u.)    Spin (a.u.)
  --------------------------------------------------------
      1 Br                   -0.373437      -0.000000
      2 C                    -0.201968       0.000000
      3 C                    -0.129554      -0.000000
      4 C                    -0.339705      -0.000000
      5 H                     0.150230      -0.000000
      6 H                     0.151173      -0.000000
      7 H                     0.179427       0.000000
      8 H                     0.179591       0.000000
      9 H                     0.136456       0.000000
     10 H                     0.123963       0.000000
     11 H                     0.123826       0.000000
  --------------------------------------------------------
  Sum of atomic charges =     0.000000

                    Cartesian Multipole Moments
 -----------------------------------------------------------------
    Charge (ESU x 10^10)
                 0.0000
    Dipole Moment (Debye)
         X      -5.3971      Y      -1.3077      Z      -0.0196
       Tot       5.5533
    Quadrupole Moments (Debye-Ang)
        XX     -49.9310     XY      -1.6976     YY     -37.8574
        XZ      -0.0664     YZ      -0.0171     ZZ     -38.5228

 Final energy is   -2692.39045261672
 **  OPTIMIZATION CONVERGED  **
 Total job time:  32.23s(wall), 365.73s(cpu)
        *  Thank you very much for using Q-Chem.  Have a nice day.  *
