 Q-Chem 5.1, Q-Chem, Inc., Pleasanton, CA (2018)
 Q-Chem 5.1.1 for Intel X86 EM64T Linux

User input:
--------------------------------------------------------------

$comment
potential surface scanner
$end

$rem
JOBTYPE  PES_SCAN
UNRESTRICTED TRUE
SYM_IGNORE  TRUE
GEOM_OPT_MAX_CYCLES 400
SCF_MAX_CYCLES 400
METHOD   B3LYP
BASIS   6-31G**
PDB_PRINT 2
SCF_CONVERGENCE 6
THRESH 14
SCF_PRINT 1
$end
$molecule
0 3
Br 4.619221 0.007455 0.022657
C -0.941911 0.480133 0.006120
C 0.152105 -0.535131 0.000930
C -2.356662 -0.146957 -0.007302
H -0.852741 1.120922 0.892832
H -0.845012 1.138188 -0.867306
H 0.473192 -0.998179 -0.927477
H 0.486371 -0.995229 0.926071
H -3.128216 0.630942 -0.003473
H -2.502297 -0.765774 -0.898442
H -2.511261 -0.783770 0.869488
$end
$scan
stre 1 3 4.400000 4.401000 0.100000
$end
--------------------------------------------------------------

   24   -2692.3213871058      2.94e-07  Convergence criterion met
 Total energy in the final basis set =    -2692.3213871058
   29   -2692.3212767561      4.73e-07  Convergence criterion met
 Total energy in the final basis set =    -2692.3212767561
   29   -2692.3213491684      5.06e-07  Convergence criterion met
 Total energy in the final basis set =    -2692.3213491684
   28   -2692.3214163297      2.00e-07  Convergence criterion met
 Total energy in the final basis set =    -2692.3214163297
   28   -2692.3214200345      2.56e-07  Convergence criterion met
 Total energy in the final basis set =    -2692.3214200345
   28   -2692.3214222352      5.84e-07  Convergence criterion met
 Total energy in the final basis set =    -2692.3214222352
   28   -2692.3214251882      7.92e-07  Convergence criterion met
 Total energy in the final basis set =    -2692.3214251882
   28   -2692.3214296786      3.27e-07  Convergence criterion met
 Total energy in the final basis set =    -2692.3214296786
   28   -2692.3214331683      4.16e-08  Convergence criterion met
 Total energy in the final basis set =    -2692.3214331683
   28   -2692.3214348729      6.72e-08  Convergence criterion met
 Total energy in the final basis set =    -2692.3214348729

             Standard Nuclear Orientation (Angstroms)
    I     Atom           X                Y                Z
 ----------------------------------------------------------------
    1      Br      4.5164390665     0.0333745486     0.0172008696
    2      C      -0.9283188656     0.4733457266     0.0071803870
    3      C       0.1556780100    -0.5527759837     0.0033647022
    4      C      -2.3489673873    -0.1404692399    -0.0084484763
    5      H      -0.8345720058     1.1130883785     0.8941674947
    6      H      -0.8240662734     1.1306212161    -0.8659770349
    7      H       0.4844001820    -1.0088944208    -0.9257492926
    8      H       0.4951372180    -1.0062775829     0.9298760142
    9      H      -3.1133550316     0.6444656412    -0.0048228526
   10      H      -2.4992035330    -0.7572201123    -0.9002613770
   11      H      -2.5103823797    -0.7766581715     0.8675675657
 ----------------------------------------------------------------

   28   -2692.3214358174      2.34e-07  Convergence criterion met
 Total energy in the final basis set =    -2692.3214358174

                    Orbital Energies (a.u.)
 --------------------------------------------------------------

 Alpha MOs
 -- Occupied --
******* -62.555 -56.379 -56.372 -56.372 -10.188 -10.187 -10.178
 -8.742  -6.579  -6.557  -6.557  -2.670  -2.664  -2.664  -2.648
 -2.648  -0.795  -0.780  -0.674  -0.581  -0.463  -0.428  -0.394
 -0.379  -0.369  -0.350  -0.333  -0.321  -0.320  -0.201

 Beta MOs
 -- Occupied --
******* -62.553 -56.374 -56.371 -56.371 -10.188 -10.176 -10.175
 -8.738  -6.568  -6.555  -6.555  -2.662  -2.658  -2.658  -2.647
 -2.647  -0.770  -0.751  -0.655  -0.567  -0.458  -0.422  -0.388
 -0.367  -0.345  -0.331  -0.307  -0.307

          Ground-State Mulliken Net Atomic Charges

     Atom                 Charge (a.u.)    Spin (a.u.)
  --------------------------------------------------------
      1 Br                   -0.002690       1.001500
      2 C                    -0.189543      -0.073561
      3 C                    -0.227294       1.078413
      4 C                    -0.307119       0.049969
      5 H                     0.103315       0.012228
      6 H                     0.103569       0.013690
      7 H                     0.102793      -0.047342
      8 H                     0.103042      -0.047396
      9 H                     0.101752       0.013612
     10 H                     0.106022      -0.000611
     11 H                     0.106153      -0.000503
  --------------------------------------------------------
  Sum of atomic charges =    -0.000000

                    Cartesian Multipole Moments
 -----------------------------------------------------------------
    Charge (ESU x 10^10)
                -0.0000
    Dipole Moment (Debye)
         X      -0.3507      Y       0.0364      Z       0.0010
       Tot       0.3526
    Quadrupole Moments (Debye-Ang)
        XX     -37.5321     XY      -0.3819     YY     -39.6873
        XZ       0.0291     YZ       0.0017     ZZ     -38.8192

 Final energy is   -2692.32143581738
 **  OPTIMIZATION CONVERGED  **
 Total job time:  77.32s(wall), 889.87s(cpu)
        *  Thank you very much for using Q-Chem.  Have a nice day.  *
