 Q-Chem 5.1, Q-Chem, Inc., Pleasanton, CA (2018)
 Q-Chem 5.1.1 for Intel X86 EM64T Linux

User input:
--------------------------------------------------------------

$comment
potential surface scanner
$end

$rem
JOBTYPE  PES_SCAN
UNRESTRICTED TRUE
SYM_IGNORE  TRUE
GEOM_OPT_MAX_CYCLES 400
SCF_MAX_CYCLES 400
METHOD   B3LYP
BASIS   6-31G**
PDB_PRINT 2
SCF_CONVERGENCE 6
THRESH 14
SCF_PRINT 1
$end
$molecule
0 3
Br 4.183711 -0.103385 0.009540
C -0.913307 0.493810 0.007903
C 0.203086 -0.496595 0.006251
C -2.314472 -0.163227 -0.009058
H -0.840786 1.136349 0.894944
H -0.828127 1.153584 -0.865384
H 0.554936 -0.935688 -0.922634
H 0.552038 -0.942930 0.932719
H -3.101762 0.598628 -0.007228
H -2.444767 -0.785002 -0.900444
H -2.457765 -0.802943 0.867491
$end
$scan
stre 1 3 3.900000 3.901000 0.100000
$end
--------------------------------------------------------------

   33   -2692.3216708130      8.18e-07  Convergence criterion met
 Total energy in the final basis set =    -2692.3216708130
   25   -2692.3206037975      7.27e-07  Convergence criterion met
 Total energy in the final basis set =    -2692.3206037975
   29   -2692.3206991920      8.72e-07  Convergence criterion met
 Total energy in the final basis set =    -2692.3206991920
   25   -2692.3207794333      9.46e-07  Convergence criterion met
 Total energy in the final basis set =    -2692.3207794333
   27   -2692.3207837266      1.79e-07  Convergence criterion met
 Total energy in the final basis set =    -2692.3207837266
   27   -2692.3207855602      5.71e-07  Convergence criterion met
 Total energy in the final basis set =    -2692.3207855602
   28   -2692.3207878504      3.30e-07  Convergence criterion met
 Total energy in the final basis set =    -2692.3207878504
   28   -2692.3207906708      4.73e-07  Convergence criterion met
 Total energy in the final basis set =    -2692.3207906708
   28   -2692.3207921463      4.22e-08  Convergence criterion met
 Total energy in the final basis set =    -2692.3207921463

             Standard Nuclear Orientation (Angstroms)
    I     Atom           X                Y                Z
 ----------------------------------------------------------------
    1      Br      4.0761775224    -0.0414344449     0.0099662649
    2      C      -0.8947616905     0.4823955753     0.0076697235
    3      C       0.2063052794    -0.5252466001     0.0060135629
    4      C      -2.3062337687    -0.1520456184    -0.0088171958
    5      H      -0.8125176442     1.1244834389     0.8943592559
    6      H      -0.7999271454     1.1411790335    -0.8655155107
    7      H       0.5579591229    -0.9640269179    -0.9223211271
    8      H       0.5538980233    -0.9723478288     0.9318526013
    9      H      -3.0823982472     0.6213982410    -0.0070480267
   10      H      -2.4464001143    -0.7722610943    -0.8999041771
   11      H      -2.4593163376    -0.7894927843     0.8678446288
 ----------------------------------------------------------------

   26   -2692.3207924661      9.79e-07  Convergence criterion met
 Total energy in the final basis set =    -2692.3207924661

                    Orbital Energies (a.u.)
 --------------------------------------------------------------

 Alpha MOs
 -- Occupied --
******* -62.554 -56.379 -56.371 -56.371 -10.184 -10.183 -10.175
 -8.742  -6.578  -6.556  -6.556  -2.669  -2.664  -2.664  -2.647
 -2.647  -0.794  -0.777  -0.671  -0.577  -0.459  -0.425  -0.390
 -0.376  -0.369  -0.347  -0.330  -0.320  -0.320  -0.195

 Beta MOs
 -- Occupied --
******* -62.553 -56.373 -56.370 -56.370 -10.185 -10.174 -10.170
 -8.738  -6.567  -6.554  -6.554  -2.661  -2.657  -2.657  -2.646
 -2.646  -0.767  -0.751  -0.652  -0.563  -0.455  -0.420  -0.385
 -0.364  -0.342  -0.328  -0.306  -0.305

          Ground-State Mulliken Net Atomic Charges

     Atom                 Charge (a.u.)    Spin (a.u.)
  --------------------------------------------------------
      1 Br                   -0.003219       1.005499
      2 C                    -0.190983      -0.073552
      3 C                    -0.215368       1.074656
      4 C                    -0.306999       0.049698
      5 H                     0.101716       0.012813
      6 H                     0.101873       0.013443
      7 H                     0.101252      -0.047660
      8 H                     0.101460      -0.047672
      9 H                     0.100067       0.013806
     10 H                     0.105075      -0.000539
     11 H                     0.105126      -0.000491
  --------------------------------------------------------
  Sum of atomic charges =     0.000000

                    Cartesian Multipole Moments
 -----------------------------------------------------------------
    Charge (ESU x 10^10)
                 0.0000
    Dipole Moment (Debye)
         X      -0.2675      Y       0.0290      Z      -0.0002
       Tot       0.2691
    Quadrupole Moments (Debye-Ang)
        XX     -40.4286     XY      -0.6901     YY     -36.9595
        XZ      -0.0122     YZ       0.0617     ZZ     -38.8421

 Final energy is   -2692.32079246614
 **  OPTIMIZATION CONVERGED  **
 Total job time:  70.00s(wall), 817.73s(cpu)
        *  Thank you very much for using Q-Chem.  Have a nice day.  *
