 Q-Chem 5.1, Q-Chem, Inc., Pleasanton, CA (2018)
 Q-Chem 5.1.1 for Intel X86 EM64T Linux

User input:
--------------------------------------------------------------

$comment
potential surface scanner
$end

$rem
JOBTYPE  PES_SCAN
UNRESTRICTED TRUE
SYM_IGNORE  TRUE
GEOM_OPT_MAX_CYCLES 400
SCF_MAX_CYCLES 400
METHOD   B3LYP
BASIS   6-31G**
PDB_PRINT 2
SCF_CONVERGENCE 6
THRESH 14
SCF_PRINT 1
$end
$molecule
0 3
Br 2.429316 -0.102497 -0.792268
C -0.706961 0.512621 0.190313
C 0.426566 -0.457753 0.281409
C -2.084072 -0.118178 -0.116065
H -0.768745 1.043691 1.151018
H -0.481821 1.268391 -0.573798
H 0.616898 -1.023524 -0.671333
H 0.461421 -1.140440 1.132676
H -2.862950 0.650973 -0.155565
H -2.071899 -0.633014 -1.082461
H -2.364967 -0.847665 0.650182
$end
$scan
stre 1 3 2.200000 2.201000 0.100000
$end
--------------------------------------------------------------

   11   -2692.2835137474      9.54e-07  Convergence criterion met
 Total energy in the final basis set =    -2692.2835137474
   11   -2692.2712954802      7.08e-07  Convergence criterion met
 Total energy in the final basis set =    -2692.2712954802
   11   -2692.2712453836      7.46e-07  Convergence criterion met
 Total energy in the final basis set =    -2692.2712453836
   11   -2692.2713785949      9.01e-07  Convergence criterion met
 Total energy in the final basis set =    -2692.2713785949
   11   -2692.2714886881      8.55e-07  Convergence criterion met
 Total energy in the final basis set =    -2692.2714886881
   11   -2692.2714918708      8.67e-07  Convergence criterion met
 Total energy in the final basis set =    -2692.2714918708

             Standard Nuclear Orientation (Angstroms)
    I     Atom           X                Y                Z
 ----------------------------------------------------------------
    1      Br      2.3829564547    -0.0857666918    -0.7220554517
    2      C      -0.6966054773     0.5148817005     0.1793694140
    3      C       0.4491338533    -0.4490930593     0.2619796894
    4      C      -2.0739040074    -0.1192500836    -0.1128554363
    5      H      -0.7497036643     1.0467048431     1.1404790572
    6      H      -0.4820866349     1.2726882926    -0.5865393899
    7      H       0.5726752176    -1.0482349293    -0.6862124320
    8      H       0.4619233049    -1.1403257210     1.1095884165
    9      H      -2.8573896087     0.6458803978    -0.1459919238
   10      H      -2.0693072365    -0.6346819150    -1.0793198772
   11      H      -2.3449062013    -0.8501978340     0.6556659336
 ----------------------------------------------------------------

   11   -2692.2714926499      8.74e-07  Convergence criterion met
 Total energy in the final basis set =    -2692.2714926499

                    Orbital Energies (a.u.)
 --------------------------------------------------------------

 Alpha MOs
 -- Occupied --
******* -62.528 -56.351 -56.346 -56.344 -10.205 -10.196 -10.185
 -8.716  -6.549  -6.534  -6.531  -2.641  -2.638  -2.636  -2.625
 -2.625  -0.818  -0.774  -0.684  -0.599  -0.483  -0.440  -0.416
 -0.403  -0.364  -0.349  -0.335  -0.304  -0.301  -0.149

 Beta MOs
 -- Occupied --
******* -62.526 -56.345 -56.343 -56.343 -10.196 -10.188 -10.184
 -8.712  -6.539  -6.530  -6.529  -2.634  -2.631  -2.630  -2.622
 -2.622  -0.791  -0.749  -0.662  -0.582  -0.469  -0.428  -0.402
 -0.387  -0.353  -0.343  -0.301  -0.286

          Ground-State Mulliken Net Atomic Charges

     Atom                 Charge (a.u.)    Spin (a.u.)
  --------------------------------------------------------
      1 Br                   -0.028819       0.990568
      2 C                    -0.183805      -0.030381
      3 C                    -0.277573       0.923182
      4 C                    -0.313953       0.038180
      5 H                     0.119326       0.021151
      6 H                     0.111466       0.014156
      7 H                     0.130574       0.045346
      8 H                     0.120390      -0.014906
      9 H                     0.107450       0.013266
     10 H                     0.106876      -0.000036
     11 H                     0.108067      -0.000525
  --------------------------------------------------------
  Sum of atomic charges =     0.000000

                    Cartesian Multipole Moments
 -----------------------------------------------------------------
    Charge (ESU x 10^10)
                -0.0000
    Dipole Moment (Debye)
         X      -1.6610      Y      -0.1993      Z       0.5143
       Tot       1.7502
    Quadrupole Moments (Debye-Ang)
        XX     -42.6869     XY       0.3946     YY     -38.2992
        XZ       1.6057     YZ       0.4087     ZZ     -39.2057

 Final energy is   -2692.27149264989
 **  OPTIMIZATION CONVERGED  **
 Total job time:  28.18s(wall), 325.50s(cpu)
        *  Thank you very much for using Q-Chem.  Have a nice day.  *
