 Q-Chem 5.1, Q-Chem, Inc., Pleasanton, CA (2018)
 Q-Chem 5.1.1 for Intel X86 EM64T Linux

User input:
--------------------------------------------------------------

$comment
potential surface scanner
$end

$rem
JOBTYPE  PES_SCAN
UNRESTRICTED TRUE
SYM_IGNORE  TRUE
GEOM_OPT_MAX_CYCLES 400
SCF_MAX_CYCLES 400
METHOD   B3LYP
BASIS   6-31G**
PDB_PRINT 2
SCF_CONVERGENCE 6
THRESH 14
SCF_PRINT 1
$end
$molecule
0 3
Br 3.071967 0.425581 0.004723
C -0.693346 0.441985 0.010526
C 0.194526 -0.727817 0.007268
C -2.170793 -0.067081 -0.010143
H -0.534220 1.045681 0.907254
H -0.516810 1.062232 -0.871733
H 0.423212 -1.248567 -0.917175
H 0.429162 -1.251326 0.928590
H -2.833008 0.803175 -0.006763
H -2.379911 -0.655459 -0.907324
H -2.397979 -0.675806 0.868876
$end
$scan
stre 1 3 5.700000 5.701000 0.100000
$end
--------------------------------------------------------------

   21   -2692.3145164260      4.35e-07  Convergence criterion met
 Total energy in the final basis set =    -2692.3145164260
   14   -2692.3171401440      9.72e-07  Convergence criterion met
 Total energy in the final basis set =    -2692.3171401440
   10   -2692.3186221013      9.17e-07  Convergence criterion met
 Total energy in the final basis set =    -2692.3186221013
   10   -2692.3195369612      7.73e-07  Convergence criterion met
 Total energy in the final basis set =    -2692.3195369612
   10   -2692.3199943429      7.15e-07  Convergence criterion met
 Total energy in the final basis set =    -2692.3199943429
   11   -2692.3202604466      8.33e-07  Convergence criterion met
 Total energy in the final basis set =    -2692.3202604466
   23   -2692.3203421077      7.35e-07  Convergence criterion met
 Total energy in the final basis set =    -2692.3203421077
   25   -2692.3202849721      2.64e-07  Convergence criterion met
   10   -2692.3196537671      6.33e-07  Convergence criterion met
 Total energy in the final basis set =    -2692.3196537671
   10   -2692.3198349986      6.26e-07  Convergence criterion met
 Total energy in the final basis set =    -2692.3198349986
   10   -2692.3202495165      6.56e-07  Convergence criterion met
 Total energy in the final basis set =    -2692.3202495165
   10   -2692.3206440592      7.55e-07  Convergence criterion met
 Total energy in the final basis set =    -2692.3206440592
   10   -2692.3208415260      8.97e-07  Convergence criterion met
 Total energy in the final basis set =    -2692.3208415260
   10   -2692.3208539214      9.10e-07  Convergence criterion met
 Total energy in the final basis set =    -2692.3208539214

             Standard Nuclear Orientation (Angstroms)
    I     Atom           X                Y                Z
 ----------------------------------------------------------------
    1      Br      5.7110245811    -1.1242945571    -0.0035573054
    2      C      -1.2119811819     0.6374639818     0.0143834819
    3      C       0.1136354918    -0.0477161478     0.0111474328
    4      C      -2.4104326279    -0.3416107205    -0.0139237574
    5      H      -1.3034824279     1.2728765163     0.9047420323
    6      H      -1.2904890743     1.3041844388    -0.8546179267
    7      H       0.5557333351    -0.3962004861    -0.9172501224
    8      H       0.5690544871    -0.3849863227     0.9370669899
    9      H      -3.3596689103     0.2057116442    -0.0139768719
   10      H      -2.3814327187    -0.9709949367    -0.9090616883
   11      H      -2.3991609543    -1.0018354102     0.8591467352
 ----------------------------------------------------------------

   10   -2692.3208552381      9.10e-07  Convergence criterion met
 Total energy in the final basis set =    -2692.3208552381

                    Orbital Energies (a.u.)
 --------------------------------------------------------------

 Alpha MOs
 -- Occupied --
******* -62.557 -56.382 -56.374 -56.374 -10.186 -10.185 -10.176
 -8.745  -6.581  -6.559  -6.559  -2.672  -2.667  -2.667  -2.650
 -2.650  -0.797  -0.779  -0.672  -0.579  -0.461  -0.427  -0.392
 -0.378  -0.371  -0.348  -0.332  -0.323  -0.323  -0.199

 Beta MOs
 -- Occupied --
******* -62.556 -56.376 -56.373 -56.373 -10.186 -10.175 -10.172
 -8.741  -6.570  -6.557  -6.557  -2.664  -2.661  -2.661  -2.649
 -2.649  -0.768  -0.753  -0.654  -0.565  -0.457  -0.421  -0.387
 -0.366  -0.343  -0.330  -0.309  -0.309

          Ground-State Mulliken Net Atomic Charges

     Atom                 Charge (a.u.)    Spin (a.u.)
  --------------------------------------------------------
      1 Br                   -0.000026       0.999984
      2 C                    -0.188843      -0.074092
      3 C                    -0.220896       1.080579
      4 C                    -0.307343       0.050058
      5 H                     0.102312       0.011831
      6 H                     0.102815       0.014360
      7 H                     0.099878      -0.047586
      8 H                     0.100153      -0.047671
      9 H                     0.101011       0.013626
     10 H                     0.105372      -0.000641
     11 H                     0.105566      -0.000448
  --------------------------------------------------------
  Sum of atomic charges =    -0.000000

                    Cartesian Multipole Moments
 -----------------------------------------------------------------
    Charge (ESU x 10^10)
                 0.0000
    Dipole Moment (Debye)
         X      -0.2589      Y      -0.0216      Z       0.0010
       Tot       0.2598
    Quadrupole Moments (Debye-Ang)
        XX     -36.8793     XY      -0.4492     YY     -40.0806
        XZ      -0.0577     YZ      -0.0028     ZZ     -38.8358

 Final energy is   -2692.32085523813
 **  OPTIMIZATION CONVERGED  **
 Total job time:  108.70s(wall), 1198.22s(cpu)
        *  Thank you very much for using Q-Chem.  Have a nice day.  *
