 Q-Chem 5.1, Q-Chem, Inc., Pleasanton, CA (2018)
 Q-Chem 5.1.1 for Intel X86 EM64T Linux

User input:
--------------------------------------------------------------

$comment
potential surface scanner
$end

$rem
JOBTYPE  PES_SCAN
UNRESTRICTED TRUE
SYM_IGNORE  TRUE
GEOM_OPT_MAX_CYCLES 400
SCF_MAX_CYCLES 400
METHOD   B3LYP
BASIS   6-31G**
PDB_PRINT 2
SCF_CONVERGENCE 6
THRESH 14
SCF_PRINT 1
$end
$molecule
0 3
Br 2.672069 0.322938 0.006380
C -0.686037 0.451504 0.009082
C 0.358770 -0.625032 0.005741
C -2.132449 -0.087773 -0.007235
H -0.558946 1.089835 0.894239
H -0.545904 1.108582 -0.860226
H 0.499628 -1.202878 -0.910000
H 0.488127 -1.221779 0.910394
H -2.861971 0.730824 -0.002797
H -2.314169 -0.696535 -0.899307
H -2.326333 -0.717080 0.867835
$end
$scan
stre 1 3 2.400000 2.401000 0.100000
$end
--------------------------------------------------------------

   11   -2692.2956841230      7.09e-07  Convergence criterion met
 Total energy in the final basis set =    -2692.2956841230
   11   -2692.2882486299      6.96e-07  Convergence criterion met
 Total energy in the final basis set =    -2692.2882486299
   11   -2692.2881285599      7.25e-07  Convergence criterion met
 Total energy in the final basis set =    -2692.2881285599
   11   -2692.2881772624      8.13e-07  Convergence criterion met
 Total energy in the final basis set =    -2692.2881772624
   11   -2692.2881820149      8.73e-07  Convergence criterion met
 Total energy in the final basis set =    -2692.2881820149
   12   -2692.2881866364      8.21e-07  Convergence criterion met
 Total energy in the final basis set =    -2692.2881866364
   13   -2692.2881931184      8.09e-07  Convergence criterion met
 Total energy in the final basis set =    -2692.2881931184
   17   -2692.2842977819      5.13e-07  Convergence criterion met
   11   -2692.2931999549      8.95e-07  Convergence criterion met
 Total energy in the final basis set =    -2692.2931999549
   11   -2692.2932288092      9.09e-07  Convergence criterion met
 Total energy in the final basis set =    -2692.2932288092
   11   -2692.2932374011      8.93e-07  Convergence criterion met
 Total energy in the final basis set =    -2692.2932374011
   11   -2692.2932420078      9.15e-07  Convergence criterion met
 Total energy in the final basis set =    -2692.2932420078
   11   -2692.2932435780      9.38e-07  Convergence criterion met
 Total energy in the final basis set =    -2692.2932435780
   11   -2692.2932445995      9.61e-07  Convergence criterion met
 Total energy in the final basis set =    -2692.2932445995

             Standard Nuclear Orientation (Angstroms)
    I     Atom           X                Y                Z
 ----------------------------------------------------------------
    1      Br      2.4823366279    -0.1383828829    -0.8614037788
    2      C      -0.7201607623     0.5120881415     0.2013745010
    3      C       0.4071476552    -0.4604893855     0.3004216976
    4      C      -2.0948517853    -0.1182264263    -0.1189857262
    5      H      -0.7904814271     1.0420369122     1.1620457146
    6      H      -0.4860412987     1.2668982435    -0.5603694663
    7      H       0.6615058045    -0.9860869836    -0.6555307053
    8      H       0.4626064871    -1.1381512433     1.1525686558
    9      H      -2.8717615400     0.6524006701    -0.1630507587
   10      H      -2.0744451700    -0.6306506280    -1.0863067419
   11      H      -2.3830695913    -0.8488304177     0.6433426082
 ----------------------------------------------------------------

   11   -2692.2932452794      9.86e-07  Convergence criterion met
 Total energy in the final basis set =    -2692.2932452794

                    Orbital Energies (a.u.)
 --------------------------------------------------------------

 Alpha MOs
 -- Occupied --
******* -62.522 -56.345 -56.339 -56.339 -10.213 -10.200 -10.189
 -8.710  -6.544  -6.527  -6.525  -2.635  -2.631  -2.630  -2.618
 -2.618  -0.810  -0.773  -0.690  -0.602  -0.488  -0.444  -0.420
 -0.402  -0.367  -0.352  -0.319  -0.300  -0.298  -0.186

 Beta MOs
 -- Occupied --
******* -62.520 -56.340 -56.338 -56.338 -10.201 -10.196 -10.187
 -8.706  -6.534  -6.524  -6.523  -2.628  -2.625  -2.625  -2.616
 -2.616  -0.790  -0.743  -0.667  -0.584  -0.474  -0.433  -0.406
 -0.387  -0.358  -0.347  -0.291  -0.284

          Ground-State Mulliken Net Atomic Charges

     Atom                 Charge (a.u.)    Spin (a.u.)
  --------------------------------------------------------
      1 Br                   -0.079793       0.902632
      2 C                    -0.192923      -0.046659
      3 C                    -0.239220       1.055968
      4 C                    -0.315001       0.047337
      5 H                     0.122024       0.022591
      6 H                     0.119260       0.015020
      7 H                     0.129951       0.017229
      8 H                     0.124521      -0.026299
      9 H                     0.110600       0.013229
     10 H                     0.110697      -0.000177
     11 H                     0.109885      -0.000871
  --------------------------------------------------------
  Sum of atomic charges =     0.000000

                    Cartesian Multipole Moments
 -----------------------------------------------------------------
    Charge (ESU x 10^10)
                 0.0000
    Dipole Moment (Debye)
         X      -1.9325      Y      -0.1430      Z       0.6588
       Tot       2.0467
    Quadrupole Moments (Debye-Ang)
        XX     -42.3193     XY       0.4656     YY     -38.4976
        XZ       1.3836     YZ      -0.1341     ZZ     -39.4304

 Final energy is   -2692.29324527943
 **  OPTIMIZATION CONVERGED  **
 Total job time:  139.54s(wall), 1576.46s(cpu)
        *  Thank you very much for using Q-Chem.  Have a nice day.  *
