 Q-Chem 5.1, Q-Chem, Inc., Pleasanton, CA (2018)
 Q-Chem 5.1.1 for Intel X86 EM64T Linux

User input:
--------------------------------------------------------------

$comment
potential surface scanner
$end

$rem
JOBTYPE  PES_SCAN
UNRESTRICTED TRUE
SYM_IGNORE  TRUE
GEOM_OPT_MAX_CYCLES 400
SCF_MAX_CYCLES 400
METHOD   B3LYP
BASIS   6-31G**
PDB_PRINT 2
SCF_CONVERGENCE 6
THRESH 14
SCF_PRINT 1
$end
$molecule
0 3
Br 5.295955 -0.891626 -0.004880
C -1.139700 0.610513 0.014205
C 0.150811 -0.138497 0.012262
C -2.384151 -0.309001 -0.014445
H -1.200397 1.250043 0.904242
H -1.184588 1.279814 -0.855280
H 0.568846 -0.519158 -0.914789
H 0.583352 -0.504488 0.938402
H -3.305864 0.283521 -0.015763
H -2.385443 -0.940073 -0.908947
H -2.406026 -0.968450 0.859089
$end
$scan
stre 1 3 5.100000 5.101000 0.100000
$end
--------------------------------------------------------------

   11   -2692.3207958346      7.44e-07  Convergence criterion met
 Total energy in the final basis set =    -2692.3207958346
   11   -2692.3201745161      8.39e-07  Convergence criterion met
 Total energy in the final basis set =    -2692.3201745161
   11   -2692.3205580160      8.23e-07  Convergence criterion met
 Total energy in the final basis set =    -2692.3205580160
   11   -2692.3207617167      7.60e-07  Convergence criterion met
 Total energy in the final basis set =    -2692.3207617167
   11   -2692.3207936482      7.14e-07  Convergence criterion met
 Total energy in the final basis set =    -2692.3207936482
   10   -2692.3208005664      9.96e-07  Convergence criterion met
 Total energy in the final basis set =    -2692.3208005664
   10   -2692.3208016079      9.91e-07  Convergence criterion met
 Total energy in the final basis set =    -2692.3208016079
   10   -2692.3208029090      9.84e-07  Convergence criterion met
 Total energy in the final basis set =    -2692.3208029090
   10   -2692.3208046830      9.71e-07  Convergence criterion met
 Total energy in the final basis set =    -2692.3208046830
   10   -2692.3208062249      9.58e-07  Convergence criterion met
 Total energy in the final basis set =    -2692.3208062249

             Standard Nuclear Orientation (Angstroms)
    I     Atom           X                Y                Z
 ----------------------------------------------------------------
    1      Br      5.2115365007    -0.8344642282    -0.0081750102
    2      C      -1.1236265049     0.5994158874     0.0147678933
    3      C       0.1551561046    -0.1692490774     0.0144046878
    4      C      -2.3827730377    -0.2998088452    -0.0155474335
    5      H      -1.1755263922     1.2401195937     0.9045454557
    6      H      -1.1570989622     1.2694657545    -0.8547730173
    7      H       0.5762636913    -0.5457471384    -0.9125065071
    8      H       0.5930378671    -0.5248709820     0.9416066956
    9      H      -3.2947925737     0.3075006503    -0.0177293157
   10      H      -2.3932250477    -0.9306117785    -0.9101872738
   11      H      -2.4161566453    -0.9591518363     0.8576898251
 ----------------------------------------------------------------

   10   -2692.3208069449      9.54e-07  Convergence criterion met
 Total energy in the final basis set =    -2692.3208069449

                    Orbital Energies (a.u.)
 --------------------------------------------------------------

 Alpha MOs
 -- Occupied --
******* -62.557 -56.381 -56.374 -56.374 -10.185 -10.185 -10.176
 -8.744  -6.581  -6.559  -6.559  -2.672  -2.666  -2.666  -2.650
 -2.650  -0.797  -0.778  -0.672  -0.578  -0.461  -0.426  -0.392
 -0.377  -0.371  -0.348  -0.331  -0.323  -0.322  -0.198

 Beta MOs
 -- Occupied --
******* -62.555 -56.376 -56.373 -56.373 -10.186 -10.175 -10.172
 -8.740  -6.570  -6.557  -6.557  -2.664  -2.660  -2.660  -2.649
 -2.649  -0.768  -0.753  -0.653  -0.565  -0.456  -0.421  -0.387
 -0.365  -0.343  -0.329  -0.308  -0.308

          Ground-State Mulliken Net Atomic Charges

     Atom                 Charge (a.u.)    Spin (a.u.)
  --------------------------------------------------------
      1 Br                   -0.000178       1.000016
      2 C                    -0.188915      -0.074141
      3 C                    -0.220632       1.080930
      4 C                    -0.307288       0.049909
      5 H                     0.102256       0.011664
      6 H                     0.102882       0.014750
      7 H                     0.100122      -0.047766
      8 H                     0.100361      -0.047882
      9 H                     0.100816       0.013573
     10 H                     0.105177      -0.000645
     11 H                     0.105399      -0.000409
  --------------------------------------------------------
  Sum of atomic charges =    -0.000000

                    Cartesian Multipole Moments
 -----------------------------------------------------------------
    Charge (ESU x 10^10)
                -0.0000
    Dipole Moment (Debye)
         X      -0.2505      Y       0.0067      Z       0.0010
       Tot       0.2506
    Quadrupole Moments (Debye-Ang)
        XX     -37.9140     XY       0.6630     YY     -39.1088
        XZ      -0.0890     YZ      -0.0566     ZZ     -38.8316

 Final energy is   -2692.32080694494
 **  OPTIMIZATION CONVERGED  **
 Total job time:  37.78s(wall), 425.25s(cpu)
        *  Thank you very much for using Q-Chem.  Have a nice day.  *
