 Q-Chem 5.1, Q-Chem, Inc., Pleasanton, CA (2018)
 Q-Chem 5.1.1 for Intel X86 EM64T Linux

User input:
--------------------------------------------------------------

$comment
potential surface scanner
$end

$rem
JOBTYPE  PES_SCAN
UNRESTRICTED TRUE
SYM_IGNORE  TRUE
GEOM_OPT_MAX_CYCLES 400
SCF_MAX_CYCLES 400
METHOD   B3LYP
BASIS   6-31G**
PDB_PRINT 2
SCF_CONVERGENCE 6
THRESH 14
SCF_PRINT 1
$end
$molecule
0 1
Br 2.834035 0.361740 0.021321
C -0.673311 0.459276 0.008177
C 0.243047 -0.699611 0.003588
C -2.137028 -0.070089 -0.009525
H -0.516854 1.067580 0.902424
H -0.502536 1.085446 -0.871019
H 0.432576 -1.237283 -0.919584
H 0.425958 -1.250680 0.920192
H -2.820109 0.784051 -0.004722
H -2.339445 -0.663357 -0.905711
H -2.353538 -0.684473 0.868960
$end
$scan
stre 1 3 2.900000 2.901000 0.100000
$end
--------------------------------------------------------------

   11   -2692.3829131528      8.76e-07  Convergence criterion met
 Total energy in the final basis set =    -2692.3829131528
   12   -2692.3757307960      1.40e-07  Convergence criterion met
 Total energy in the final basis set =    -2692.3757307960
   12   -2692.3757510051      1.44e-07  Convergence criterion met
 Total energy in the final basis set =    -2692.3757510051
   12   -2692.3759453445      1.46e-07  Convergence criterion met
 Total energy in the final basis set =    -2692.3759453445
   12   -2692.3759541635      1.46e-07  Convergence criterion met
 Total energy in the final basis set =    -2692.3759541635
   12   -2692.3759661231      1.45e-07  Convergence criterion met
 Total energy in the final basis set =    -2692.3759661231
   12   -2692.3759683898      1.44e-07  Convergence criterion met
 Total energy in the final basis set =    -2692.3759683898

             Standard Nuclear Orientation (Angstroms)
    I     Atom           X                Y                Z
 ----------------------------------------------------------------
    1      Br      2.9130487018     0.3825538474     0.0199129043
    2      C      -0.6793277312     0.4543739201     0.0087270823
    3      C       0.2262477634    -0.7087060396     0.0041008028
    4      C      -2.1478015811    -0.0697578847    -0.0098340807
    5      H      -0.5231547001     1.0608420249     0.9041840033
    6      H      -0.5082046958     1.0788244366    -0.8715429733
    7      H       0.4312220318    -1.2388637510    -0.9202791941
    8      H       0.4245464917    -1.2525699251     0.9219806436
    9      H      -2.8242407064     0.7895764739    -0.0053704214
   10      H      -2.3521047873    -0.6612029908    -0.9065386270
   11      H      -2.3674357867    -0.6824701117     0.8687608602
 ----------------------------------------------------------------

   12   -2692.3759693373      1.43e-07  Convergence criterion met
 Total energy in the final basis set =    -2692.3759693373

                    Orbital Energies (a.u.)
 --------------------------------------------------------------

 Alpha MOs
 -- Occupied --
******* -62.464 -56.285 -56.282 -56.282 -10.297 -10.233 -10.223
 -8.650  -6.478  -6.468  -6.468  -2.571  -2.569  -2.569  -2.560
 -2.560  -0.837  -0.722  -0.691  -0.630  -0.520  -0.478  -0.444
 -0.421  -0.400  -0.381  -0.268  -0.241  -0.241

 Beta MOs
 -- Occupied --
******* -62.464 -56.285 -56.282 -56.282 -10.297 -10.233 -10.223
 -8.650  -6.478  -6.468  -6.468  -2.571  -2.569  -2.569  -2.560
 -2.560  -0.837  -0.722  -0.691  -0.630  -0.520  -0.478  -0.444
 -0.421  -0.400  -0.381  -0.268  -0.241  -0.241

          Ground-State Mulliken Net Atomic Charges

     Atom                 Charge (a.u.)    Spin (a.u.)
  --------------------------------------------------------
      1 Br                   -0.420099      -0.000000
      2 C                    -0.211098      -0.000000
      3 C                    -0.104001       0.000000
      4 C                    -0.341563       0.000000
      5 H                     0.156555       0.000000
      6 H                     0.157185       0.000000
      7 H                     0.183665       0.000000
      8 H                     0.183699      -0.000000
      9 H                     0.140861      -0.000000
     10 H                     0.127441      -0.000000
     11 H                     0.127357      -0.000000
  --------------------------------------------------------
  Sum of atomic charges =    -0.000000

                    Cartesian Multipole Moments
 -----------------------------------------------------------------
    Charge (ESU x 10^10)
                -0.0000
    Dipole Moment (Debye)
         X      -6.2391      Y      -1.5142      Z      -0.0344
       Tot       6.4203
    Quadrupole Moments (Debye-Ang)
        XX     -52.4332     XY      -2.2423     YY     -37.8229
        XZ      -0.1056     YZ      -0.0197     ZZ     -38.4855

 Final energy is   -2692.37596933726
 **  OPTIMIZATION CONVERGED  **
 Total job time:  32.81s(wall), 377.73s(cpu)
        *  Thank you very much for using Q-Chem.  Have a nice day.  *
