 Q-Chem 5.1, Q-Chem, Inc., Pleasanton, CA (2018)
 Q-Chem 5.1.1 for Intel X86 EM64T Linux

User input:
--------------------------------------------------------------

$comment
potential surface scanner
$end

$rem
JOBTYPE  PES_SCAN
UNRESTRICTED TRUE
SYM_IGNORE  TRUE
GEOM_OPT_MAX_CYCLES 400
SCF_MAX_CYCLES 400
METHOD   B3LYP
BASIS   6-31G**
PDB_PRINT 2
SCF_CONVERGENCE 6
THRESH 14
SCF_PRINT 1
$end
$molecule
0 3
Br 3.710169 -0.020768 0.009917
C -0.852491 0.486013 0.007311
C 0.246577 -0.524272 0.006001
C -2.263654 -0.149273 -0.008348
H -0.769518 1.128314 0.893811
H -0.757156 1.144092 -0.866315
H 0.573227 -0.982847 -0.921919
H 0.565789 -0.994474 0.930657
H -3.041264 0.622753 -0.006565
H -2.403370 -0.770228 -0.899056
H -2.415523 -0.786710 0.868608
$end
$scan
stre 1 3 3.400000 3.401000 0.100000
$end
--------------------------------------------------------------

   24   -2692.3196453122      3.85e-07  Convergence criterion met
 Total energy in the final basis set =    -2692.3196453122
   24   -2692.3189145279      1.17e-07  Convergence criterion met
 Total energy in the final basis set =    -2692.3189145279
   27   -2692.3189581117      1.48e-07  Convergence criterion met
 Total energy in the final basis set =    -2692.3189581117
   22   -2692.3190039735      2.49e-07  Convergence criterion met
 Total energy in the final basis set =    -2692.3190039735

             Standard Nuclear Orientation (Angstroms)
    I     Atom           X                Y                Z
 ----------------------------------------------------------------
    1      Br      3.6079193278     0.0244870101     0.0108619345
    2      C      -0.8357675348     0.4817413795     0.0070415891
    3      C       0.2548574628    -0.5384971898     0.0058085960
    4      C      -2.2515071263    -0.1431086119    -0.0081039034
    5      H      -0.7475749093     1.1235488027     0.8933985855
    6      H      -0.7351480595     1.1390107943    -0.8665601947
    7      H       0.5673571592    -1.0070493205    -0.9223615426
    8      H       0.5603177845    -1.0192414083     0.9298615107
    9      H      -3.0237831045     0.6343127792    -0.0063195078
   10      H      -2.3960396713    -0.7633440083    -0.8985765625
   11      H      -2.4078453287    -0.7792602271     0.8690514952
 ----------------------------------------------------------------

   22   -2692.3190044883      5.01e-07  Convergence criterion met
 Total energy in the final basis set =    -2692.3190044883

                    Orbital Energies (a.u.)
 --------------------------------------------------------------

 Alpha MOs
 -- Occupied --
******* -62.552 -56.377 -56.369 -56.369 -10.184 -10.182 -10.175
 -8.739  -6.576  -6.554  -6.554  -2.667  -2.662  -2.661  -2.645
 -2.645  -0.793  -0.777  -0.670  -0.577  -0.459  -0.425  -0.390
 -0.377  -0.367  -0.347  -0.330  -0.318  -0.318  -0.193

 Beta MOs
 -- Occupied --
******* -62.551 -56.371 -56.368 -56.368 -10.184 -10.174 -10.168
 -8.735  -6.565  -6.552  -6.552  -2.659  -2.655  -2.655  -2.644
 -2.644  -0.767  -0.749  -0.652  -0.563  -0.455  -0.419  -0.384
 -0.365  -0.342  -0.328  -0.304  -0.302

          Ground-State Mulliken Net Atomic Charges

     Atom                 Charge (a.u.)    Spin (a.u.)
  --------------------------------------------------------
      1 Br                   -0.002811       1.013271
      2 C                    -0.192749      -0.071714
      3 C                    -0.209601       1.062389
      4 C                    -0.307325       0.050040
      5 H                     0.100481       0.012320
      6 H                     0.101882       0.012619
      7 H                     0.098716      -0.046255
      8 H                     0.101760      -0.046078
      9 H                     0.099915       0.014666
     10 H                     0.104850      -0.000643
     11 H                     0.104882      -0.000616
  --------------------------------------------------------
  Sum of atomic charges =     0.000000

                    Cartesian Multipole Moments
 -----------------------------------------------------------------
    Charge (ESU x 10^10)
                -0.0000
    Dipole Moment (Debye)
         X      -0.3214      Y      -0.0104      Z       0.0000
       Tot       0.3215
    Quadrupole Moments (Debye-Ang)
        XX     -40.6975     XY      -0.9613     YY     -37.3291
        XZ      -0.1615     YZ       0.9161     ZZ     -38.5058

 Final energy is   -2692.31900448829
 **  OPTIMIZATION CONVERGED  **
 Total job time:  35.23s(wall), 376.38s(cpu)
        *  Thank you very much for using Q-Chem.  Have a nice day.  *
