 Q-Chem 5.1, Q-Chem, Inc., Pleasanton, CA (2018)
 Q-Chem 5.1.1 for Intel X86 EM64T Linux

User input:
--------------------------------------------------------------

$comment
potential surface scanner
$end

$rem
JOBTYPE  PES_SCAN
UNRESTRICTED TRUE
SYM_IGNORE  TRUE
GEOM_OPT_MAX_CYCLES 400
SCF_MAX_CYCLES 400
METHOD   B3LYP
BASIS   6-31G**
PDB_PRINT 2
SCF_CONVERGENCE 6
THRESH 14
SCF_PRINT 1
$end
$molecule
0 1
Br 2.218383 0.121763 0.026508
C -0.619525 0.516749 0.005802
C 0.450408 -0.573747 0.003417
C -2.029406 -0.086911 -0.006874
H -0.487620 1.149641 0.890367
H -0.477457 1.163548 -0.867045
H 0.368280 -1.199157 -0.887863
H 0.352828 -1.217657 0.879789
H -2.789266 0.700321 -0.001701
H -2.193193 -0.701644 -0.898852
H -2.200633 -0.720307 0.870552
$end
$scan
stre 1 3 2.000000 2.001000 0.100000
$end
--------------------------------------------------------------

    9   -2692.4344187619      6.09e-07  Convergence criterion met
 Total energy in the final basis set =    -2692.4344187619
    9   -2692.4358759334      6.36e-07  Convergence criterion met
 Total energy in the final basis set =    -2692.4358759334
    9   -2692.4361805894      6.25e-07  Convergence criterion met
 Total energy in the final basis set =    -2692.4361805894
    9   -2692.4362479010      6.19e-07  Convergence criterion met
 Total energy in the final basis set =    -2692.4362479010

             Standard Nuclear Orientation (Angstroms)
    I     Atom           X                Y                Z
 ----------------------------------------------------------------
    1      Br      2.2832533053     0.1467352726     0.0246987797
    2      C      -0.6257310464     0.5124838798     0.0065141048
    3      C       0.4231875615    -0.5879151085     0.0036306022
    4      C      -2.0406308711    -0.0844329817    -0.0072180688
    5      H      -0.4907083392     1.1428297998     0.8918073183
    6      H      -0.4801425897     1.1571959385    -0.8666684480
    7      H       0.3778093294    -1.2055966841    -0.8935419166
    8      H       0.3639779804    -1.2237557626     0.8871630236
    9      H      -2.7942267970     0.7087537889    -0.0027457613
   10      H      -2.2073449837    -0.6974038503    -0.8996751497
   11      H      -2.2166445495    -0.7162952925     0.8701355160
 ----------------------------------------------------------------

    9   -2692.4362492842      6.19e-07  Convergence criterion met
 Total energy in the final basis set =    -2692.4362492842

                    Orbital Energies (a.u.)
 --------------------------------------------------------------

 Alpha MOs
 -- Occupied --
******* -62.504 -56.325 -56.321 -56.321 -10.245 -10.201 -10.191
 -8.690  -6.520  -6.508  -6.508  -2.614  -2.610  -2.610  -2.600
 -2.600  -0.822  -0.760  -0.672  -0.602  -0.486  -0.441  -0.416
 -0.413  -0.365  -0.351  -0.346  -0.273  -0.273

 Beta MOs
 -- Occupied --
******* -62.504 -56.325 -56.321 -56.321 -10.245 -10.201 -10.191
 -8.690  -6.520  -6.508  -6.508  -2.614  -2.610  -2.610  -2.600
 -2.600  -0.822  -0.760  -0.672  -0.602  -0.486  -0.441  -0.416
 -0.413  -0.365  -0.351  -0.346  -0.273  -0.273

          Ground-State Mulliken Net Atomic Charges

     Atom                 Charge (a.u.)    Spin (a.u.)
  --------------------------------------------------------
      1 Br                   -0.132870      -0.000000
      2 C                    -0.179727       0.000000
      3 C                    -0.243024       0.000000
      4 C                    -0.328576       0.000000
      5 H                     0.122742      -0.000000
      6 H                     0.122666      -0.000000
      7 H                     0.150259      -0.000000
      8 H                     0.150226       0.000000
      9 H                     0.117239       0.000000
     10 H                     0.110548      -0.000000
     11 H                     0.110514      -0.000000
  --------------------------------------------------------
  Sum of atomic charges =    -0.000000

                    Cartesian Multipole Moments
 -----------------------------------------------------------------
    Charge (ESU x 10^10)
                 0.0000
    Dipole Moment (Debye)
         X      -2.4230      Y      -0.6108      Z      -0.0243
       Tot       2.4990
    Quadrupole Moments (Debye-Ang)
        XX     -42.8287     XY      -0.3003     YY     -38.2161
        XZ      -0.0503     YZ      -0.0017     ZZ     -38.5867

 Final energy is   -2692.43624928419
 **  OPTIMIZATION CONVERGED  **
 Total job time:  20.65s(wall), 220.42s(cpu)
        *  Thank you very much for using Q-Chem.  Have a nice day.  *
