 Q-Chem 5.1, Q-Chem, Inc., Pleasanton, CA (2018)
 Q-Chem 5.1.1 for Intel X86 EM64T Linux

User input:
--------------------------------------------------------------

$comment
potential surface scanner
$end

$rem
JOBTYPE  PES_SCAN
UNRESTRICTED TRUE
SYM_IGNORE  TRUE
GEOM_OPT_MAX_CYCLES 400
SCF_MAX_CYCLES 400
METHOD   B3LYP
BASIS   6-31G**
PDB_PRINT 2
SCF_CONVERGENCE 6
THRESH 14
SCF_PRINT 1
$end
$molecule
0 1
Br 2.210600 0.183000 -0.010500
C -0.617000 0.498300 0.014000
C 0.429200 -0.601700 0.010200
C -2.022700 -0.079700 -0.013600
H -0.503100 1.127200 0.905100
H -0.483600 1.153700 -0.855200
H 0.357400 -1.232600 -0.880100
H 0.371000 -1.225900 0.906000
H -2.764000 0.725600 -0.009200
H -2.181500 -0.682500 -0.913600
H -2.203500 -0.712800 0.861000
$end
$scan
stre 1 3 1.700000 1.701000 0.100000
$end
--------------------------------------------------------------

    9   -2692.4353936127      6.13e-07  Convergence criterion met
 Total energy in the final basis set =    -2692.4353936127
    9   -2692.4224819729      5.81e-07  Convergence criterion met
 Total energy in the final basis set =    -2692.4224819729
    9   -2692.4022580880      5.85e-07  Convergence criterion met
 Total energy in the final basis set =    -2692.4022580880
    9   -2692.4028422236      6.06e-07  Convergence criterion met
 Total energy in the final basis set =    -2692.4028422236
    9   -2692.4035804062      6.53e-07  Convergence criterion met
 Total energy in the final basis set =    -2692.4035804062
    9   -2692.4036085169      6.55e-07  Convergence criterion met
 Total energy in the final basis set =    -2692.4036085169

             Standard Nuclear Orientation (Angstroms)
    I     Atom           X                Y                Z
 ----------------------------------------------------------------
    1      Br      2.0939131476     0.0589594953     0.0002704223
    2      C      -0.6072146896     0.5283670983     0.0112352463
    3      C       0.5044975948    -0.5441235181     0.0072764360
    4      C      -2.0056592788    -0.0931573030    -0.0119924691
    5      H      -0.4868155360     1.1594088715     0.9001342421
    6      H      -0.4688256786     1.1851911296    -0.8560299909
    7      H       0.3302585473    -1.1921753897    -0.8604825493
    8      H       0.3377548607    -1.1901418374     0.8779671546
    9      H      -2.7787764137     0.6809588159    -0.0063575958
   10      H      -2.1547713938    -0.7055727238    -0.9084109556
   11      H      -2.1715611598    -0.7351146385     0.8604900594
 ----------------------------------------------------------------

    9   -2692.4036250556      6.58e-07  Convergence criterion met
 Total energy in the final basis set =    -2692.4036250556

                    Orbital Energies (a.u.)
 --------------------------------------------------------------

 Alpha MOs
 -- Occupied --
******* -62.512 -56.332 -56.329 -56.329 -10.225 -10.194 -10.184
 -8.701  -6.531  -6.518  -6.518  -2.626  -2.621  -2.621  -2.611
 -2.611  -0.870  -0.767  -0.656  -0.596  -0.484  -0.444  -0.429
 -0.413  -0.369  -0.358  -0.345  -0.268  -0.268

 Beta MOs
 -- Occupied --
******* -62.512 -56.332 -56.329 -56.329 -10.225 -10.194 -10.184
 -8.701  -6.531  -6.518  -6.518  -2.626  -2.621  -2.621  -2.611
 -2.611  -0.870  -0.767  -0.656  -0.596  -0.484  -0.444  -0.429
 -0.413  -0.369  -0.358  -0.345  -0.268  -0.268

          Ground-State Mulliken Net Atomic Charges

     Atom                 Charge (a.u.)    Spin (a.u.)
  --------------------------------------------------------
      1 Br                   -0.072200      -0.000000
      2 C                    -0.189808      -0.000000
      3 C                    -0.228723      -0.000000
      4 C                    -0.326047      -0.000000
      5 H                     0.113215       0.000000
      6 H                     0.113564       0.000000
      7 H                     0.131423      -0.000000
      8 H                     0.131703      -0.000000
      9 H                     0.111911      -0.000000
     10 H                     0.107566      -0.000000
     11 H                     0.107396       0.000000
  --------------------------------------------------------
  Sum of atomic charges =    -0.000000

                    Cartesian Multipole Moments
 -----------------------------------------------------------------
    Charge (ESU x 10^10)
                 0.0000
    Dipole Moment (Debye)
         X      -1.6794      Y      -0.4598      Z       0.0068
       Tot       1.7412
    Quadrupole Moments (Debye-Ang)
        XX     -41.4369     XY      -0.1691     YY     -38.2973
        XZ      -0.0072     YZ      -0.0105     ZZ     -38.4561

 Final energy is   -2692.40362505564
 **  OPTIMIZATION CONVERGED  **
 Total job time:  26.37s(wall), 296.38s(cpu)
        *  Thank you very much for using Q-Chem.  Have a nice day.  *
