 Q-Chem 5.1, Q-Chem, Inc., Pleasanton, CA (2018)
 Q-Chem 5.1.1 for Intel X86 EM64T Linux

User input:
--------------------------------------------------------------

$comment
potential surface scanner
$end

$rem
JOBTYPE  PES_SCAN
UNRESTRICTED TRUE
SYM_IGNORE  TRUE
GEOM_OPT_MAX_CYCLES 400
SCF_MAX_CYCLES 400
METHOD   B3LYP
BASIS   6-31G**
PDB_PRINT 2
SCF_CONVERGENCE 6
THRESH 14
SCF_PRINT 1
$end
$molecule
0 3
Br 2.382956 -0.085767 -0.722055
C -0.696605 0.514882 0.179369
C 0.449134 -0.449093 0.261980
C -2.073904 -0.119250 -0.112855
H -0.749704 1.046705 1.140479
H -0.482087 1.272688 -0.586539
H 0.572675 -1.048235 -0.686212
H 0.461923 -1.140326 1.109588
H -2.857390 0.645880 -0.145992
H -2.069307 -0.634682 -1.079320
H -2.344906 -0.850198 0.655666
$end
$scan
stre 1 3 2.100000 2.101000 0.100000
$end
--------------------------------------------------------------

   11   -2692.2714925625      8.74e-07  Convergence criterion met
 Total energy in the final basis set =    -2692.2714925625
   11   -2692.2562337420      6.84e-07  Convergence criterion met
 Total energy in the final basis set =    -2692.2562337420
   11   -2692.2562004798      7.14e-07  Convergence criterion met
 Total energy in the final basis set =    -2692.2562004798
   11   -2692.2564380660      7.68e-07  Convergence criterion met
 Total energy in the final basis set =    -2692.2564380660
   11   -2692.2564538136      7.72e-07  Convergence criterion met
 Total energy in the final basis set =    -2692.2564538136
   11   -2692.2564591075      7.79e-07  Convergence criterion met
 Total energy in the final basis set =    -2692.2564591075
   11   -2692.2564644480      7.89e-07  Convergence criterion met
 Total energy in the final basis set =    -2692.2564644480
   11   -2692.2564726001      8.06e-07  Convergence criterion met
   11   -2692.2564817621      8.25e-07  Convergence criterion met
 Total energy in the final basis set =    -2692.2564817621
   11   -2692.2564875062      8.29e-07  Convergence criterion met
 Total energy in the final basis set =    -2692.2564875062
   11   -2692.2564911736      8.23e-07  Convergence criterion met
 Total energy in the final basis set =    -2692.2564911736
   11   -2692.2564931353      8.17e-07  Convergence criterion met
 Total energy in the final basis set =    -2692.2564931353
   11   -2692.2564951599      8.11e-07  Convergence criterion met
 Total energy in the final basis set =    -2692.2564951599
   11   -2692.2564969650      8.07e-07  Convergence criterion met
 Total energy in the final basis set =    -2692.2564969650

             Standard Nuclear Orientation (Angstroms)
    I     Atom           X                Y                Z
 ----------------------------------------------------------------
    1      Br      2.3836625475    -0.0536643102    -0.5488099608
    2      C      -0.6882499028     0.5133514129     0.1458880354
    3      C       0.4683433184    -0.4492154870     0.2161041996
    4      C      -2.0739105354    -0.1199352752    -0.0917790677
    5      H      -0.7107312065     1.0613371698     1.1000352049
    6      H      -0.4930566067     1.2617613905    -0.6348877749
    7      H       0.5548166140    -1.0382795278    -0.7453290961
    8      H       0.4341124787    -1.1761912775     1.0354941372
    9      H      -2.8593585721     0.6442885544    -0.1158459394
   10      H      -2.1013725147    -0.6562624572    -1.0466224370
   11      H      -2.3214706205    -0.8345861927     0.6998616988
 ----------------------------------------------------------------

   11   -2692.2564978518      8.07e-07  Convergence criterion met
 Total energy in the final basis set =    -2692.2564978518

                    Orbital Energies (a.u.)
 --------------------------------------------------------------

 Alpha MOs
 -- Occupied --
******* -62.533 -56.356 -56.351 -56.350 -10.198 -10.194 -10.182
 -8.722  -6.554  -6.541  -6.536  -2.647  -2.644  -2.641  -2.631
 -2.631  -0.825  -0.774  -0.680  -0.596  -0.480  -0.438  -0.412
 -0.405  -0.363  -0.348  -0.341  -0.307  -0.304  -0.125

 Beta MOs
 -- Occupied --
******* -62.531 -56.351 -56.349 -56.349 -10.194 -10.182 -10.181
 -8.717  -6.544  -6.537  -6.534  -2.639  -2.637  -2.635  -2.628
 -2.628  -0.794  -0.753  -0.659  -0.580  -0.466  -0.425  -0.399
 -0.387  -0.351  -0.340  -0.311  -0.288

          Ground-State Mulliken Net Atomic Charges

     Atom                 Charge (a.u.)    Spin (a.u.)
  --------------------------------------------------------
      1 Br                    0.007342       1.060018
      2 C                    -0.179059      -0.018075
      3 C                    -0.304975       0.829742
      4 C                    -0.311663       0.030505
      5 H                     0.117989       0.023023
      6 H                     0.105862       0.010911
      7 H                     0.131074       0.059258
      8 H                     0.118404      -0.009562
      9 H                     0.104095       0.014055
     10 H                     0.104385       0.000462
     11 H                     0.106546      -0.000335
  --------------------------------------------------------
  Sum of atomic charges =    -0.000000

                    Cartesian Multipole Moments
 -----------------------------------------------------------------
    Charge (ESU x 10^10)
                 0.0000
    Dipole Moment (Debye)
         X      -1.4881      Y      -0.2241      Z       0.3581
       Tot       1.5469
    Quadrupole Moments (Debye-Ang)
        XX     -43.2650     XY       0.1775     YY     -38.3519
        XZ       1.5422     YZ       0.7746     ZZ     -38.7453

 Final energy is   -2692.25649785183
 **  OPTIMIZATION CONVERGED  **
 Total job time:  64.06s(wall), 701.25s(cpu)
        *  Thank you very much for using Q-Chem.  Have a nice day.  *
