 Q-Chem 5.1, Q-Chem, Inc., Pleasanton, CA (2018)
 Q-Chem 5.1.1 for Intel X86 EM64T Linux

User input:
--------------------------------------------------------------

$comment
potential surface scanner
$end

$rem
JOBTYPE  PES_SCAN
UNRESTRICTED TRUE
SYM_IGNORE  TRUE
GEOM_OPT_MAX_CYCLES 400
SCF_MAX_CYCLES 400
METHOD   B3LYP
BASIS   6-31G**
PDB_PRINT 2
SCF_CONVERGENCE 6
THRESH 14
SCF_PRINT 1
$end
$molecule
0 3
Br 3.502570 0.073234 0.013048
C -0.818916 0.475250 0.006366
C 0.262666 -0.553627 0.004936
C -2.240476 -0.136180 -0.007654
H -0.723730 1.116680 0.892303
H -0.712574 1.132058 -0.866979
H 0.565118 -1.032481 -0.922075
H 0.557199 -1.044679 0.927614
H -3.005531 0.648330 -0.005347
H -2.391506 -0.755263 -0.897863
H -2.402035 -0.770720 0.869754
$end
$scan
stre 1 3 3.200000 3.201000 0.100000
$end
--------------------------------------------------------------

   14   -2692.3181840552      7.51e-07  Convergence criterion met
 Total energy in the final basis set =    -2692.3181840552
   11   -2692.3170562323      8.32e-07  Convergence criterion met
 Total energy in the final basis set =    -2692.3170562323
   10   -2692.3170903278      9.97e-07  Convergence criterion met
 Total energy in the final basis set =    -2692.3170903278
   10   -2692.3171274256      9.12e-07  Convergence criterion met
 Total energy in the final basis set =    -2692.3171274256
   10   -2692.3171306215      9.01e-07  Convergence criterion met
 Total energy in the final basis set =    -2692.3171306215
   10   -2692.3171332909      8.97e-07  Convergence criterion met
 Total energy in the final basis set =    -2692.3171332909
   10   -2692.3171370955      8.98e-07  Convergence criterion met
 Total energy in the final basis set =    -2692.3171370955
   10   -2692.3171434637      9.12e-07  Convergence criterion met
   10   -2692.3172061325      9.51e-07  Convergence criterion met
 Total energy in the final basis set =    -2692.3172061325
   11   -2692.3172453727      8.98e-07  Convergence criterion met
 Total energy in the final basis set =    -2692.3172453727
   11   -2692.3172912202      9.17e-07  Convergence criterion met
 Total energy in the final basis set =    -2692.3172912202
   10   -2692.3174196435      8.48e-07  Convergence criterion met
 Total energy in the final basis set =    -2692.3174196435
   22   -2692.3174486495      6.64e-07  Convergence criterion met
 Total energy in the final basis set =    -2692.3174486495
   21   -2692.3174524976      5.77e-07  Convergence criterion met
 Total energy in the final basis set =    -2692.3174524976

             Standard Nuclear Orientation (Angstroms)
    I     Atom           X                Y                Z
 ----------------------------------------------------------------
    1      Br      3.1112065032     0.6392000750     0.0363318475
    2      C      -0.7188335063     0.3774200341    -0.0007353750
    3      C       0.2379756561    -0.7689555399    -0.0042012758
    4      C      -2.2030836078    -0.0591633338    -0.0005509425
    5      H      -0.5441259176     1.0081034954     0.8814606595
    6      H      -0.5433074736     1.0133383731    -0.8783549702
    7      H       0.5161230842    -1.2531442380    -0.9351435640
    8      H       0.4732851913    -1.2936450970     0.9166175854
    9      H      -2.8667773732     0.8129046279     0.0045358117
   10      H      -2.4361828620    -0.6576947602    -0.8870762047
   11      H      -2.4334946943    -0.6657616367     0.8812194282
 ----------------------------------------------------------------

   21   -2692.3174533955      4.75e-07  Convergence criterion met
 Total energy in the final basis set =    -2692.3174533955

                    Orbital Energies (a.u.)
 --------------------------------------------------------------

 Alpha MOs
 -- Occupied --
******* -62.552 -56.376 -56.369 -56.369 -10.183 -10.181 -10.175
 -8.739  -6.576  -6.554  -6.554  -2.667  -2.661  -2.661  -2.645
 -2.645  -0.793  -0.776  -0.670  -0.577  -0.459  -0.424  -0.390
 -0.378  -0.367  -0.347  -0.330  -0.319  -0.318  -0.189

 Beta MOs
 -- Occupied --
******* -62.550 -56.371 -56.368 -56.368 -10.184 -10.173 -10.167
 -8.735  -6.565  -6.552  -6.552  -2.659  -2.655  -2.655  -2.644
 -2.644  -0.766  -0.748  -0.651  -0.563  -0.454  -0.419  -0.384
 -0.365  -0.341  -0.327  -0.304  -0.302

          Ground-State Mulliken Net Atomic Charges

     Atom                 Charge (a.u.)    Spin (a.u.)
  --------------------------------------------------------
      1 Br                    0.002186       1.019920
      2 C                    -0.187405      -0.072310
      3 C                    -0.213741       1.057417
      4 C                    -0.307934       0.047832
      5 H                     0.099437       0.014404
      6 H                     0.100903       0.011752
      7 H                     0.098533      -0.046120
      8 H                     0.099675      -0.046082
      9 H                     0.099124       0.014284
     10 H                     0.104717      -0.000448
     11 H                     0.104506      -0.000649
  --------------------------------------------------------
  Sum of atomic charges =    -0.000000

                    Cartesian Multipole Moments
 -----------------------------------------------------------------
    Charge (ESU x 10^10)
                -0.0000
    Dipole Moment (Debye)
         X      -0.2592      Y       0.0067      Z      -0.0062
       Tot       0.2594
    Quadrupole Moments (Debye-Ang)
        XX     -40.4795     XY      -1.4978     YY     -37.3595
        XZ      -0.2222     YZ       0.4672     ZZ     -38.7858

 Final energy is   -2692.31745339549
 **  OPTIMIZATION CONVERGED  **
 Total job time:  80.53s(wall), 920.18s(cpu)
        *  Thank you very much for using Q-Chem.  Have a nice day.  *
