 Q-Chem 5.1, Q-Chem, Inc., Pleasanton, CA (2018)
 Q-Chem 5.1.1 for Intel X86 EM64T Linux

User input:
--------------------------------------------------------------

$comment
potential surface scanner
$end

$rem
JOBTYPE  PES_SCAN
UNRESTRICTED TRUE
SYM_IGNORE  TRUE
GEOM_OPT_MAX_CYCLES 400
SCF_MAX_CYCLES 400
METHOD   B3LYP
BASIS   6-31G**
PDB_PRINT 2
SCF_CONVERGENCE 6
THRESH 14
SCF_PRINT 1
$end
$molecule
0 1
Br 2.210600 0.183000 -0.010500
C -0.617000 0.498300 0.014000
C 0.429200 -0.601700 0.010200
C -2.022700 -0.079700 -0.013600
H -0.503100 1.127200 0.905100
H -0.483600 1.153700 -0.855200
H 0.357400 -1.232600 -0.880100
H 0.371000 -1.225900 0.906000
H -2.764000 0.725600 -0.009200
H -2.181500 -0.682500 -0.913600
H -2.203500 -0.712800 0.861000
$end
$scan
stre 1 3 1.300000 1.301000 0.100000
$end
--------------------------------------------------------------

    9   -2692.4353936127      6.13e-07  Convergence criterion met
 Total energy in the final basis set =    -2692.4353936127
    9   -2692.4224819729      5.81e-07  Convergence criterion met
 Total energy in the final basis set =    -2692.4224819729
    9   -2692.3828958848      5.83e-07  Convergence criterion met
 Total energy in the final basis set =    -2692.3828958848
    9   -2692.3110172864      6.27e-07  Convergence criterion met
 Total energy in the final basis set =    -2692.3110172864
    9   -2692.1997295066      6.79e-07  Convergence criterion met
 Total energy in the final basis set =    -2692.1997295066
    9   -2692.0249338887      7.35e-07  Convergence criterion met
 Total energy in the final basis set =    -2692.0249338887
    9   -2692.0113461298      7.75e-07  Convergence criterion met
 Total energy in the final basis set =    -2692.0113461298
    9   -2692.0096712979      8.44e-07  Convergence criterion met
   10   -2692.0099841046      5.13e-07  Convergence criterion met
 Total energy in the final basis set =    -2692.0099841046
   10   -2692.0099900156      5.22e-07  Convergence criterion met
 Total energy in the final basis set =    -2692.0099900156
   10   -2692.0100029980      5.36e-07  Convergence criterion met
 Total energy in the final basis set =    -2692.0100029980
   10   -2692.0100062529      5.39e-07  Convergence criterion met
 Total energy in the final basis set =    -2692.0100062529
   10   -2692.0100087509      5.40e-07  Convergence criterion met
 Total energy in the final basis set =    -2692.0100087509
   10   -2692.0100105586      5.40e-07  Convergence criterion met
 Total energy in the final basis set =    -2692.0100105586

             Standard Nuclear Orientation (Angstroms)
    I     Atom           X                Y                Z
 ----------------------------------------------------------------
    1      Br      1.8576341091    -0.0543365728     0.0072222763
    2      C      -0.5916758486     0.5518751102     0.0099107551
    3      C       0.6326993811    -0.4896919617     0.0064426101
    4      C      -1.9661741020    -0.1068240428    -0.0110677847
    5      H      -0.4687700836     1.1832804293     0.9005144714
    6      H      -0.4529004990     1.2081496984    -0.8601416896
    7      H       0.2793074628    -1.1515339932    -0.8321447555
    8      H       0.2796108933    -1.1548800563     0.8425900766
    9      H      -2.7640955234     0.6422411846    -0.0042259727
   10      H      -2.1000843312    -0.7231951963    -0.9070924841
   11      H      -2.1127514583    -0.7524845993     0.8620924971
 ----------------------------------------------------------------

   10   -2692.0100116631      5.41e-07  Convergence criterion met
 Total energy in the final basis set =    -2692.0100116631

                    Orbital Energies (a.u.)
 --------------------------------------------------------------

 Alpha MOs
 -- Occupied --
******* -62.523 -56.341 -56.340 -56.340 -10.221 -10.189 -10.180
 -8.724  -6.558  -6.541  -6.541  -2.659  -2.646  -2.646  -2.633
 -2.633  -0.996  -0.765  -0.640  -0.593  -0.516  -0.472  -0.452
 -0.428  -0.385  -0.362  -0.346  -0.235  -0.233

 Beta MOs
 -- Occupied --
******* -62.523 -56.341 -56.340 -56.340 -10.221 -10.189 -10.180
 -8.724  -6.558  -6.541  -6.541  -2.659  -2.646  -2.646  -2.633
 -2.633  -0.996  -0.765  -0.640  -0.593  -0.516  -0.472  -0.452
 -0.428  -0.385  -0.362  -0.346  -0.235  -0.233

          Ground-State Mulliken Net Atomic Charges

     Atom                 Charge (a.u.)    Spin (a.u.)
  --------------------------------------------------------
      1 Br                    0.070407       0.000000
      2 C                    -0.223152      -0.000000
      3 C                    -0.223142      -0.000000
      4 C                    -0.324925       0.000000
      5 H                     0.104490       0.000000
      6 H                     0.104357      -0.000000
      7 H                     0.082942      -0.000000
      8 H                     0.083016      -0.000000
      9 H                     0.110132      -0.000000
     10 H                     0.107989      -0.000000
     11 H                     0.107886       0.000000
  --------------------------------------------------------
  Sum of atomic charges =    -0.000000

                    Cartesian Multipole Moments
 -----------------------------------------------------------------
    Charge (ESU x 10^10)
                 0.0000
    Dipole Moment (Debye)
         X      -1.2187      Y      -0.3862      Z      -0.0005
       Tot       1.2784
    Quadrupole Moments (Debye-Ang)
        XX     -40.9463     XY      -0.4975     YY     -38.2703
        XZ      -0.0132     YZ      -0.0063     ZZ     -38.0913

 Final energy is   -2692.01001166311
 **  OPTIMIZATION CONVERGED  **
 Total job time:  56.91s(wall), 655.80s(cpu)
        *  Thank you very much for using Q-Chem.  Have a nice day.  *
