 Q-Chem 5.1, Q-Chem, Inc., Pleasanton, CA (2018)
 Q-Chem 5.1.1 for Intel X86 EM64T Linux

User input:
--------------------------------------------------------------

$comment
potential surface scanner
$end

$rem
JOBTYPE  PES_SCAN
UNRESTRICTED TRUE
SYM_IGNORE  TRUE
GEOM_OPT_MAX_CYCLES 400
SCF_MAX_CYCLES 400
METHOD   B3LYP
BASIS   6-31G**
PDB_PRINT 2
SCF_CONVERGENCE 6
THRESH 14
SCF_PRINT 1
$end
$molecule
0 1
Br 2.210600 0.183000 -0.010500
C -0.617000 0.498300 0.014000
C 0.429200 -0.601700 0.010200
C -2.022700 -0.079700 -0.013600
H -0.503100 1.127200 0.905100
H -0.483600 1.153700 -0.855200
H 0.357400 -1.232600 -0.880100
H 0.371000 -1.225900 0.906000
H -2.764000 0.725600 -0.009200
H -2.181500 -0.682500 -0.913600
H -2.203500 -0.712800 0.861000
$end
$scan
stre 1 3 1.500000 1.501000 0.100000
$end
--------------------------------------------------------------

    9   -2692.4353936127      6.13e-07  Convergence criterion met
 Total energy in the final basis set =    -2692.4353936127
    9   -2692.4224819729      5.81e-07  Convergence criterion met
 Total energy in the final basis set =    -2692.4224819729
    9   -2692.3828958847      5.83e-07  Convergence criterion met
 Total energy in the final basis set =    -2692.3828958847
    9   -2692.3124374999      6.28e-07  Convergence criterion met
 Total energy in the final basis set =    -2692.3124374999
    9   -2692.2964858405      6.80e-07  Convergence criterion met
 Total energy in the final basis set =    -2692.2964858405
    9   -2692.2967606119      7.41e-07  Convergence criterion met
 Total energy in the final basis set =    -2692.2967606119
    9   -2692.2968705445      7.72e-07  Convergence criterion met
 Total energy in the final basis set =    -2692.2968705445
    9   -2692.2968932173      7.81e-07  Convergence criterion met
 Total energy in the final basis set =    -2692.2968932173
    9   -2692.2968979744      7.83e-07  Convergence criterion met
 Total energy in the final basis set =    -2692.2968979744

             Standard Nuclear Orientation (Angstroms)
    I     Atom           X                Y                Z
 ----------------------------------------------------------------
    1      Br      1.9722878431    -0.0025498128     0.0018626727
    2      C      -0.5963559886     0.5404947685     0.0109253248
    3      C       0.5625059224    -0.5148879407     0.0068537664
    4      C      -1.9832976189    -0.0999744708    -0.0118300635
    5      H      -0.4792508130     1.1732438231     0.9002577217
    6      H      -0.4620285437     1.1993088970    -0.8567494354
    7      H       0.3028195696    -1.1725818061    -0.8444815695
    8      H       0.3085159152    -1.1714830369     0.8606953561
    9      H      -2.7698262821     0.6605617092    -0.0055328082
   10      H      -2.1236437296    -0.7145344091    -0.9082460894
   11      H      -2.1389262744    -0.7449977214     0.8603451241
 ----------------------------------------------------------------

    9   -2692.2968988865      7.82e-07  Convergence criterion met
 Total energy in the final basis set =    -2692.2968988865

                    Orbital Energies (a.u.)
 --------------------------------------------------------------

 Alpha MOs
 -- Occupied --
******* -62.515 -56.335 -56.332 -56.332 -10.216 -10.191 -10.182
 -8.708  -6.539  -6.525  -6.525  -2.635  -2.628  -2.628  -2.618
 -2.618  -0.928  -0.767  -0.647  -0.594  -0.493  -0.457  -0.439
 -0.419  -0.379  -0.359  -0.345  -0.255  -0.254

 Beta MOs
 -- Occupied --
******* -62.515 -56.335 -56.332 -56.332 -10.216 -10.191 -10.182
 -8.708  -6.539  -6.525  -6.525  -2.635  -2.628  -2.628  -2.618
 -2.618  -0.928  -0.767  -0.647  -0.594  -0.493  -0.457  -0.439
 -0.419  -0.379  -0.359  -0.345  -0.255  -0.254

          Ground-State Mulliken Net Atomic Charges

     Atom                 Charge (a.u.)    Spin (a.u.)
  --------------------------------------------------------
      1 Br                   -0.040176       0.000000
      2 C                    -0.203653       0.000000
      3 C                    -0.199152       0.000000
      4 C                    -0.325714       0.000000
      5 H                     0.108905      -0.000000
      6 H                     0.108996      -0.000000
      7 H                     0.112956       0.000000
      8 H                     0.113210      -0.000000
      9 H                     0.110391       0.000000
     10 H                     0.107196       0.000000
     11 H                     0.107041      -0.000000
  --------------------------------------------------------
  Sum of atomic charges =     0.000000

                    Cartesian Multipole Moments
 -----------------------------------------------------------------
    Charge (ESU x 10^10)
                 0.0000
    Dipole Moment (Debye)
         X      -1.4256      Y      -0.4182      Z       0.0049
       Tot       1.4857
    Quadrupole Moments (Debye-Ang)
        XX     -41.0908     XY      -0.2696     YY     -38.2807
        XZ      -0.0077     YZ      -0.0084     ZZ     -38.2963

 Final energy is   -2692.29689888647
 **  OPTIMIZATION CONVERGED  **
 Total job time:  36.22s(wall), 420.31s(cpu)
        *  Thank you very much for using Q-Chem.  Have a nice day.  *
