 Q-Chem 5.1, Q-Chem, Inc., Pleasanton, CA (2018)
 Q-Chem 5.1.1 for Intel X86 EM64T Linux

User input:
--------------------------------------------------------------

$comment
potential surface scanner
$end

$rem
JOBTYPE  PES_SCAN
UNRESTRICTED TRUE
SYM_IGNORE  TRUE
GEOM_OPT_MAX_CYCLES 400
SCF_MAX_CYCLES 400
METHOD   B3LYP
BASIS   6-31G**
PDB_PRINT 2
SCF_CONVERGENCE 6
THRESH 14
SCF_PRINT 1
$end
$molecule
0 3
Br 4.721292 -0.042909 0.023415
C -0.960516 0.485766 0.006022
C 0.145751 -0.516100 0.000760
C -2.368411 -0.156615 -0.007252
H -0.878830 1.127744 0.892644
H -0.871435 1.145023 -0.867388
H 0.481514 -0.967506 -0.928073
H 0.495070 -0.964204 0.926102
H -3.148005 0.613221 -0.003543
H -2.507460 -0.777042 -0.898290
H -2.516179 -0.794777 0.869701
$end
$scan
stre 1 3 4.500000 4.501000 0.100000
$end
--------------------------------------------------------------

   25   -2692.3213381440      2.18e-07  Convergence criterion met
 Total energy in the final basis set =    -2692.3213381440
   24   -2692.3212123553      5.58e-08  Convergence criterion met
 Total energy in the final basis set =    -2692.3212123553
   24   -2692.3213052096      5.30e-08  Convergence criterion met
 Total energy in the final basis set =    -2692.3213052096
   24   -2692.3213812885      1.11e-07  Convergence criterion met
 Total energy in the final basis set =    -2692.3213812885
   24   -2692.3213861998      2.34e-07  Convergence criterion met
 Total energy in the final basis set =    -2692.3213861998

             Standard Nuclear Orientation (Angstroms)
    I     Atom           X                Y                Z
 ----------------------------------------------------------------
    1      Br      4.6192213060     0.0074553028     0.0226572043
    2      C      -0.9419105726     0.4801334376     0.0061195764
    3      C       0.1521048798    -0.5351309902     0.0009304490
    4      C      -2.3566615773    -0.1469574217    -0.0073017524
    5      H      -0.8527405228     1.1209221309     0.8928315760
    6      H      -0.8450118039     1.1381883326    -0.8673059377
    7      H       0.4731917848    -0.9981790361    -0.9274767712
    8      H       0.4863710311    -0.9952287195     0.9260709069
    9      H      -3.1282155785     0.6309421377    -0.0034725311
   10      H      -2.5022965457    -0.7657743992    -0.8984423953
   11      H      -2.5112614009    -0.7837697749     0.8694876751
 ----------------------------------------------------------------

   24   -2692.3213871057      2.94e-07  Convergence criterion met
 Total energy in the final basis set =    -2692.3213871057

                    Orbital Energies (a.u.)
 --------------------------------------------------------------

 Alpha MOs
 -- Occupied --
******* -62.555 -56.379 -56.372 -56.372 -10.188 -10.187 -10.178
 -8.742  -6.579  -6.557  -6.557  -2.670  -2.664  -2.664  -2.648
 -2.648  -0.795  -0.780  -0.674  -0.581  -0.463  -0.428  -0.393
 -0.379  -0.369  -0.350  -0.333  -0.321  -0.321  -0.201

 Beta MOs
 -- Occupied --
******* -62.554 -56.374 -56.371 -56.371 -10.188 -10.176 -10.174
 -8.738  -6.568  -6.555  -6.555  -2.662  -2.658  -2.658  -2.647
 -2.647  -0.770  -0.751  -0.655  -0.567  -0.458  -0.422  -0.388
 -0.367  -0.344  -0.331  -0.307  -0.307

          Ground-State Mulliken Net Atomic Charges

     Atom                 Charge (a.u.)    Spin (a.u.)
  --------------------------------------------------------
      1 Br                   -0.002108       1.001194
      2 C                    -0.189609      -0.073314
      3 C                    -0.226254       1.077949
      4 C                    -0.307270       0.050120
      5 H                     0.103250       0.012067
      6 H                     0.103487       0.013507
      7 H                     0.102166      -0.047002
      8 H                     0.102472      -0.047047
      9 H                     0.101844       0.013700
     10 H                     0.105945      -0.000641
     11 H                     0.106077      -0.000534
  --------------------------------------------------------
  Sum of atomic charges =    -0.000000

                    Cartesian Multipole Moments
 -----------------------------------------------------------------
    Charge (ESU x 10^10)
                -0.0000
    Dipole Moment (Debye)
         X      -0.3546      Y       0.0251      Z       0.0017
       Tot       0.3555
    Quadrupole Moments (Debye-Ang)
        XX     -37.4954     XY      -0.3949     YY     -39.6758
        XZ       0.0553     YZ       0.0036     ZZ     -38.8280

 Final energy is   -2692.32138710569
 **  OPTIMIZATION CONVERGED  **
 Total job time:  36.92s(wall), 427.87s(cpu)
        *  Thank you very much for using Q-Chem.  Have a nice day.  *
