 Q-Chem 5.1, Q-Chem, Inc., Pleasanton, CA (2018)
 Q-Chem 5.1.1 for Intel X86 EM64T Linux

User input:
--------------------------------------------------------------

$comment
potential surface scanner
$end

$rem
JOBTYPE  PES_SCAN
UNRESTRICTED TRUE
SYM_IGNORE  TRUE
GEOM_OPT_MAX_CYCLES 400
SCF_MAX_CYCLES 400
METHOD   B3LYP
BASIS   6-31G**
PDB_PRINT 2
SCF_CONVERGENCE 6
THRESH 14
SCF_PRINT 1
$end
$molecule
0 1
Br 2.210600 0.183000 -0.010500
C -0.617000 0.498300 0.014000
C 0.429200 -0.601700 0.010200
C -2.022700 -0.079700 -0.013600
H -0.503100 1.127200 0.905100
H -0.483600 1.153700 -0.855200
H 0.357400 -1.232600 -0.880100
H 0.371000 -1.225900 0.906000
H -2.764000 0.725600 -0.009200
H -2.181500 -0.682500 -0.913600
H -2.203500 -0.712800 0.861000
$end
$scan
stre 1 3 1.800000 1.801000 0.100000
$end
--------------------------------------------------------------

    9   -2692.4353936127      6.13e-07  Convergence criterion met
 Total energy in the final basis set =    -2692.4353936127
    9   -2692.4241768262      5.82e-07  Convergence criterion met
 Total energy in the final basis set =    -2692.4241768262
    9   -2692.4239678509      5.92e-07  Convergence criterion met
 Total energy in the final basis set =    -2692.4239678509
    9   -2692.4244697207      6.20e-07  Convergence criterion met
 Total energy in the final basis set =    -2692.4244697207
    9   -2692.4244955079      6.23e-07  Convergence criterion met
 Total energy in the final basis set =    -2692.4244955079

             Standard Nuclear Orientation (Angstroms)
    I     Atom           X                Y                Z
 ----------------------------------------------------------------
    1      Br      2.1524509679     0.1012185729    -0.0041528139
    2      C      -0.6135548032     0.5183404627     0.0124355731
    3      C       0.4790679888    -0.5618261605     0.0085405089
    4      C      -2.0195076229    -0.0889482175    -0.0124414425
    5      H      -0.4885515614     1.1478140570     0.9011866650
    6      H      -0.4697028777     1.1731130854    -0.8548086892
    7      H       0.3469553376    -1.2049245752    -0.8666030309
    8      H       0.3578698739    -1.2015826396     0.8876588682
    9      H      -2.7816213587     0.6961473337    -0.0076071221
   10      H      -2.1753591362    -0.6981975824    -0.9097427696
   11      H      -2.1952468081    -0.7285543366     0.8596342530
 ----------------------------------------------------------------

    9   -2692.4245086099      6.27e-07  Convergence criterion met
 Total energy in the final basis set =    -2692.4245086099

                    Orbital Energies (a.u.)
 --------------------------------------------------------------

 Alpha MOs
 -- Occupied --
******* -62.510 -56.330 -56.327 -56.327 -10.231 -10.196 -10.186
 -8.698  -6.528  -6.515  -6.515  -2.622  -2.618  -2.618  -2.608
 -2.608  -0.848  -0.766  -0.662  -0.598  -0.483  -0.440  -0.425
 -0.412  -0.364  -0.357  -0.346  -0.272  -0.272

 Beta MOs
 -- Occupied --
******* -62.510 -56.330 -56.327 -56.327 -10.231 -10.196 -10.186
 -8.698  -6.528  -6.515  -6.515  -2.622  -2.618  -2.618  -2.608
 -2.608  -0.848  -0.766  -0.662  -0.598  -0.483  -0.440  -0.425
 -0.412  -0.364  -0.357  -0.346  -0.272  -0.272

          Ground-State Mulliken Net Atomic Charges

     Atom                 Charge (a.u.)    Spin (a.u.)
  --------------------------------------------------------
      1 Br                   -0.086523      -0.000000
      2 C                    -0.185285       0.000000
      3 C                    -0.240449       0.000000
      4 C                    -0.326491      -0.000000
      5 H                     0.115871      -0.000000
      6 H                     0.116440      -0.000000
      7 H                     0.138302      -0.000000
      8 H                     0.138638      -0.000000
      9 H                     0.113310      -0.000000
     10 H                     0.108179      -0.000000
     11 H                     0.108007       0.000000
  --------------------------------------------------------
  Sum of atomic charges =    -0.000000

                    Cartesian Multipole Moments
 -----------------------------------------------------------------
    Charge (ESU x 10^10)
                -0.0000
    Dipole Moment (Debye)
         X      -1.8645      Y      -0.5066      Z       0.0109
       Tot       1.9321
    Quadrupole Moments (Debye-Ang)
        XX     -41.7690     XY      -0.1835     YY     -38.2724
        XZ      -0.0028     YZ      -0.0146     ZZ     -38.5133

 Final energy is   -2692.42450860989
 **  OPTIMIZATION CONVERGED  **
 Total job time:  22.28s(wall), 250.92s(cpu)
        *  Thank you very much for using Q-Chem.  Have a nice day.  *
