 Q-Chem 5.1, Q-Chem, Inc., Pleasanton, CA (2018)
 Q-Chem 5.1.1 for Intel X86 EM64T Linux

User input:
--------------------------------------------------------------

$comment
potential surface scanner
$end

$rem
JOBTYPE  PES_SCAN
UNRESTRICTED TRUE
SYM_IGNORE  TRUE
GEOM_OPT_MAX_CYCLES 400
SCF_MAX_CYCLES 400
METHOD   B3LYP
BASIS   6-31G**
PDB_PRINT 2
SCF_CONVERGENCE 6
THRESH 14
SCF_PRINT 1
$end
$molecule
0 1
Br 2.283253 0.146735 0.024699
C -0.625731 0.512484 0.006514
C 0.423188 -0.587915 0.003631
C -2.040631 -0.084433 -0.007218
H -0.490708 1.142830 0.891807
H -0.480143 1.157196 -0.866668
H 0.377809 -1.205597 -0.893542
H 0.363978 -1.223756 0.887163
H -2.794227 0.708754 -0.002746
H -2.207345 -0.697404 -0.899675
H -2.216645 -0.716295 0.870136
$end
$scan
stre 1 3 2.100000 2.101000 0.100000
$end
--------------------------------------------------------------

    9   -2692.4362492927      6.19e-07  Convergence criterion met
 Total energy in the final basis set =    -2692.4362492927
    9   -2692.4334225987      4.98e-07  Convergence criterion met
 Total energy in the final basis set =    -2692.4334225987
    9   -2692.4336302511      5.05e-07  Convergence criterion met
 Total energy in the final basis set =    -2692.4336302511
    9   -2692.4337159817      5.11e-07  Convergence criterion met
 Total energy in the final basis set =    -2692.4337159817
    9   -2692.4337178040      5.11e-07  Convergence criterion met
 Total energy in the final basis set =    -2692.4337178040

             Standard Nuclear Orientation (Angstroms)
    I     Atom           X                Y                Z
 ----------------------------------------------------------------
    1      Br      2.3427498309     0.1867590659     0.0306460871
    2      C      -0.6314226205     0.5023375487     0.0049259970
    3      C       0.3987723926    -0.6070335677     0.0015860343
    4      C      -2.0543691629    -0.0805456131    -0.0066760736
    5      H      -0.4904358081     1.1296859780     0.8908119565
    6      H      -0.4808919340     1.1443913130    -0.8687792298
    7      H       0.3944559734    -1.2143121291    -0.9020990994
    8      H       0.3778124252    -1.2337071005     0.8916500197
    9      H      -2.7954299305     0.7243817682    -0.0017721194
   10      H      -2.2309262265    -0.6914212328    -0.8983638445
   11      H      -2.2375169397    -0.7079370307     0.8721712719
 ----------------------------------------------------------------

    9   -2692.4337181946      5.11e-07  Convergence criterion met
 Total energy in the final basis set =    -2692.4337181946

                    Orbital Energies (a.u.)
 --------------------------------------------------------------

 Alpha MOs
 -- Occupied --
******* -62.500 -56.321 -56.317 -56.317 -10.252 -10.205 -10.194
 -8.686  -6.516  -6.504  -6.503  -2.609  -2.606  -2.606  -2.596
 -2.596  -0.817  -0.754  -0.677  -0.605  -0.489  -0.444  -0.416
 -0.414  -0.368  -0.353  -0.337  -0.271  -0.271

 Beta MOs
 -- Occupied --
******* -62.500 -56.321 -56.317 -56.317 -10.252 -10.205 -10.194
 -8.686  -6.516  -6.504  -6.503  -2.609  -2.606  -2.606  -2.596
 -2.596  -0.817  -0.754  -0.677  -0.605  -0.489  -0.444  -0.416
 -0.414  -0.368  -0.353  -0.337  -0.271  -0.271

          Ground-State Mulliken Net Atomic Charges

     Atom                 Charge (a.u.)    Spin (a.u.)
  --------------------------------------------------------
      1 Br                   -0.164756       0.000000
      2 C                    -0.179682       0.000000
      3 C                    -0.234043      -0.000000
      4 C                    -0.329965      -0.000000
      5 H                     0.126773      -0.000000
      6 H                     0.126520       0.000000
      7 H                     0.155735       0.000000
      8 H                     0.155714      -0.000000
      9 H                     0.119729      -0.000000
     10 H                     0.111994       0.000000
     11 H                     0.111979       0.000000
  --------------------------------------------------------
  Sum of atomic charges =     0.000000

                    Cartesian Multipole Moments
 -----------------------------------------------------------------
    Charge (ESU x 10^10)
                 0.0000
    Dipole Moment (Debye)
         X      -2.7647      Y      -0.7052      Z      -0.0339
       Tot       2.8534
    Quadrupole Moments (Debye-Ang)
        XX     -43.5602     XY      -0.4396     YY     -38.1494
        XZ      -0.0674     YZ       0.0018     ZZ     -38.5969

 Final energy is   -2692.43371819460
 **  OPTIMIZATION CONVERGED  **
 Total job time:  21.79s(wall), 248.60s(cpu)
        *  Thank you very much for using Q-Chem.  Have a nice day.  *
