 Q-Chem 5.1, Q-Chem, Inc., Pleasanton, CA (2018)
 Q-Chem 5.1.1 for Intel X86 EM64T Linux

User input:
--------------------------------------------------------------

$comment
potential surface scanner
$end

$rem
JOBTYPE  PES_SCAN
UNRESTRICTED TRUE
SYM_IGNORE  TRUE
GEOM_OPT_MAX_CYCLES 400
SCF_MAX_CYCLES 400
METHOD   B3LYP
BASIS   6-31G**
PDB_PRINT 2
SCF_CONVERGENCE 6
THRESH 14
SCF_PRINT 1
$end
$molecule
0 3
Br 5.211537 -0.834464 -0.008175
C -1.123627 0.599416 0.014768
C 0.155156 -0.169249 0.014405
C -2.382773 -0.299809 -0.015547
H -1.175526 1.240120 0.904545
H -1.157099 1.269466 -0.854773
H 0.576264 -0.545747 -0.912507
H 0.593038 -0.524871 0.941607
H -3.294793 0.307501 -0.017729
H -2.393225 -0.930612 -0.910187
H -2.416157 -0.959152 0.857690
$end
$scan
stre 1 3 5.000000 5.001000 0.100000
$end
--------------------------------------------------------------

   10   -2692.3208069451      9.54e-07  Convergence criterion met
 Total energy in the final basis set =    -2692.3208069451
   11   -2692.3201950714      7.38e-07  Convergence criterion met
 Total energy in the final basis set =    -2692.3201950714
   11   -2692.3205728982      7.16e-07  Convergence criterion met
 Total energy in the final basis set =    -2692.3205728982
   10   -2692.3207725493      9.58e-07  Convergence criterion met
 Total energy in the final basis set =    -2692.3207725493
   10   -2692.3208031105      9.32e-07  Convergence criterion met
 Total energy in the final basis set =    -2692.3208031105
   10   -2692.3208091502      9.21e-07  Convergence criterion met
 Total energy in the final basis set =    -2692.3208091502

             Standard Nuclear Orientation (Angstroms)
    I     Atom           X                Y                Z
 ----------------------------------------------------------------
    1      Br      5.1256246955    -0.7930218861    -0.0092602049
    2      C      -1.1097801227     0.5957783269     0.0148851693
    3      C       0.1630295824    -0.1830534481     0.0150717104
    4      C      -2.3753095255    -0.2943034272    -0.0159504967
    5      H      -1.1569708723     1.2367366384     0.9047079387
    6      H      -1.1376059062     1.2659067244    -0.8547841708
    7      H       0.5763782053    -0.5697211075    -0.9114640371
    8      H       0.5942110217    -0.5464450689     0.9427197618
    9      H      -3.2831529362     0.3192586800    -0.0184891062
   10      H      -2.3899190806    -0.9250751984    -0.9105774907
   11      H      -2.4137100615    -0.9534612335     0.8572379261
 ----------------------------------------------------------------

   10   -2692.3208096344      9.21e-07  Convergence criterion met
 Total energy in the final basis set =    -2692.3208096344

                    Orbital Energies (a.u.)
 --------------------------------------------------------------

 Alpha MOs
 -- Occupied --
******* -62.557 -56.381 -56.374 -56.374 -10.185 -10.185 -10.176
 -8.744  -6.581  -6.558  -6.558  -2.672  -2.666  -2.666  -2.650
 -2.650  -0.797  -0.778  -0.672  -0.578  -0.460  -0.426  -0.392
 -0.377  -0.371  -0.348  -0.331  -0.322  -0.322  -0.198

 Beta MOs
 -- Occupied --
******* -62.555 -56.376 -56.373 -56.373 -10.186 -10.174 -10.171
 -8.740  -6.570  -6.557  -6.557  -2.664  -2.660  -2.660  -2.649
 -2.649  -0.768  -0.753  -0.653  -0.564  -0.456  -0.420  -0.386
 -0.365  -0.343  -0.329  -0.308  -0.308

          Ground-State Mulliken Net Atomic Charges

     Atom                 Charge (a.u.)    Spin (a.u.)
  --------------------------------------------------------
      1 Br                   -0.000228       1.000058
      2 C                    -0.189047      -0.073953
      3 C                    -0.220203       1.080549
      4 C                    -0.307343       0.049906
      5 H                     0.102227       0.011500
      6 H                     0.102881       0.014712
      7 H                     0.100087      -0.047616
      8 H                     0.100355      -0.047730
      9 H                     0.100813       0.013656
     10 H                     0.105115      -0.000663
     11 H                     0.105344      -0.000418
  --------------------------------------------------------
  Sum of atomic charges =     0.000000

                    Cartesian Multipole Moments
 -----------------------------------------------------------------
    Charge (ESU x 10^10)
                 0.0000
    Dipole Moment (Debye)
         X      -0.2549      Y       0.0024      Z       0.0012
       Tot       0.2549
    Quadrupole Moments (Debye-Ang)
        XX     -38.2295     XY       0.7402     YY     -38.8078
        XZ      -0.0839     YZ      -0.0675     ZZ     -38.8332

 Final energy is   -2692.32080963441
 **  OPTIMIZATION CONVERGED  **
 Total job time:  24.95s(wall), 277.46s(cpu)
        *  Thank you very much for using Q-Chem.  Have a nice day.  *
