 Q-Chem 5.1, Q-Chem, Inc., Pleasanton, CA (2018)
 Q-Chem 5.1.1 for Intel X86 EM64T Linux

User input:
--------------------------------------------------------------

$comment
potential surface scanner
$end

$rem
JOBTYPE  PES_SCAN
UNRESTRICTED TRUE
SYM_IGNORE  TRUE
GEOM_OPT_MAX_CYCLES 400
SCF_MAX_CYCLES 400
METHOD   B3LYP
BASIS   6-31G**
PDB_PRINT 2
SCF_CONVERGENCE 6
THRESH 14
SCF_PRINT 1
$end
$molecule
0 1
Br 2.210600 0.183000 -0.010500
C -0.617000 0.498300 0.014000
C 0.429200 -0.601700 0.010200
C -2.022700 -0.079700 -0.013600
H -0.503100 1.127200 0.905100
H -0.483600 1.153700 -0.855200
H 0.357400 -1.232600 -0.880100
H 0.371000 -1.225900 0.906000
H -2.764000 0.725600 -0.009200
H -2.181500 -0.682500 -0.913600
H -2.203500 -0.712800 0.861000
$end
$scan
stre 1 3 1.900000 1.901000 0.100000
$end
--------------------------------------------------------------

    9   -2692.4353936127      6.13e-07  Convergence criterion met
 Total energy in the final basis set =    -2692.4353936127
    9   -2692.4342885844      5.95e-07  Convergence criterion met
 Total energy in the final basis set =    -2692.4342885844
    9   -2692.4343911499      6.03e-07  Convergence criterion met
 Total energy in the final basis set =    -2692.4343911499
    9   -2692.4344111066      6.09e-07  Convergence criterion met
 Total energy in the final basis set =    -2692.4344111066
    9   -2692.4344121783      6.09e-07  Convergence criterion met
 Total energy in the final basis set =    -2692.4344121783
    9   -2692.4344148883      6.09e-07  Convergence criterion met
 Total energy in the final basis set =    -2692.4344148883
    9   -2692.4344169374      6.09e-07  Convergence criterion met
 Total energy in the final basis set =    -2692.4344169374
    9   -2692.4344184336      6.09e-07  Convergence criterion met
 Total energy in the final basis set =    -2692.4344184336

             Standard Nuclear Orientation (Angstroms)
    I     Atom           X                Y                Z
 ----------------------------------------------------------------
    1      Br      2.2183827951     0.1217627685     0.0265080312
    2      C      -0.6195253849     0.5167489714     0.0058024738
    3      C       0.4504084818    -0.5737466544     0.0034166936
    4      C      -2.0294056983    -0.0869106598    -0.0068743385
    5      H      -0.4876195939     1.1496405313     0.8903670527
    6      H      -0.4774572127     1.1635482635    -0.8670451718
    7      H       0.3682797590    -1.1991569183    -0.8878630413
    8      H       0.3528284760    -1.2176568049     0.8797892537
    9      H      -2.7892661394     0.7003213444    -0.0017012857
   10      H      -2.1931929617    -0.7016439106    -0.8988521002
   11      H      -2.2006325210    -0.7203069311     0.8705524324
 ----------------------------------------------------------------

    9   -2692.4344187165      6.09e-07  Convergence criterion met
 Total energy in the final basis set =    -2692.4344187165

                    Orbital Energies (a.u.)
 --------------------------------------------------------------

 Alpha MOs
 -- Occupied --
******* -62.507 -56.328 -56.324 -56.324 -10.238 -10.199 -10.188
 -8.694  -6.524  -6.512  -6.512  -2.618  -2.614  -2.614  -2.604
 -2.604  -0.832  -0.764  -0.667  -0.600  -0.484  -0.440  -0.420
 -0.412  -0.363  -0.353  -0.348  -0.273  -0.273

 Beta MOs
 -- Occupied --
******* -62.507 -56.328 -56.324 -56.324 -10.238 -10.199 -10.188
 -8.694  -6.524  -6.512  -6.512  -2.618  -2.614  -2.614  -2.604
 -2.604  -0.832  -0.764  -0.667  -0.600  -0.484  -0.440  -0.420
 -0.412  -0.363  -0.353  -0.348  -0.273  -0.273

          Ground-State Mulliken Net Atomic Charges

     Atom                 Charge (a.u.)    Spin (a.u.)
  --------------------------------------------------------
      1 Br                   -0.106512       0.000000
      2 C                    -0.181568      -0.000000
      3 C                    -0.245379       0.000000
      4 C                    -0.327404       0.000000
      5 H                     0.119264       0.000000
      6 H                     0.119148       0.000000
      7 H                     0.144547      -0.000000
      8 H                     0.144499      -0.000000
      9 H                     0.115067       0.000000
     10 H                     0.109189      -0.000000
     11 H                     0.109148      -0.000000
  --------------------------------------------------------
  Sum of atomic charges =    -0.000000

                    Cartesian Multipole Moments
 -----------------------------------------------------------------
    Charge (ESU x 10^10)
                -0.0000
    Dipole Moment (Debye)
         X      -2.1171      Y      -0.5494      Z      -0.0240
       Tot       2.1873
    Quadrupole Moments (Debye-Ang)
        XX     -42.2262     XY      -0.2197     YY     -38.2561
        XZ      -0.0462     YZ       0.0004     ZZ     -38.5593

 Final energy is   -2692.43441871652
 **  OPTIMIZATION CONVERGED  **
 Total job time:  32.96s(wall), 373.91s(cpu)
        *  Thank you very much for using Q-Chem.  Have a nice day.  *
