 Q-Chem 5.1, Q-Chem, Inc., Pleasanton, CA (2018)
 Q-Chem 5.1.1 for Intel X86 EM64T Linux

User input:
--------------------------------------------------------------

$comment
potential surface scanner
$end

$rem
JOBTYPE  PES_SCAN
UNRESTRICTED TRUE
SYM_IGNORE  TRUE
GEOM_OPT_MAX_CYCLES 400
SCF_MAX_CYCLES 400
METHOD   B3LYP
BASIS   6-31G**
PDB_PRINT 2
SCF_CONVERGENCE 6
THRESH 14
SCF_PRINT 1
$end
$molecule
0 3
Br 4.278514 -0.113726 0.011203
C -0.924001 0.496484 0.007705
C 0.195845 -0.490273 0.005630
C -2.322800 -0.165314 -0.008869
H -0.853234 1.139229 0.894721
H -0.841237 1.156514 -0.865624
H 0.544251 -0.932557 -0.923147
H 0.543322 -0.938535 0.931837
H -3.112771 0.593800 -0.006669
H -2.451380 -0.787379 -0.900313
H -2.463724 -0.805642 0.867626
$end
$scan
stre 1 3 4.000000 4.001000 0.100000
$end
--------------------------------------------------------------

   25   -2692.3216296550      8.06e-08  Convergence criterion met
 Total energy in the final basis set =    -2692.3216296550
   34   -2692.3214836745      5.62e-07  Convergence criterion met
 Total energy in the final basis set =    -2692.3214836745
   32   -2692.3215770637      6.44e-07  Convergence criterion met
 Total energy in the final basis set =    -2692.3215770637
   33   -2692.3216551946      4.55e-07  Convergence criterion met
 Total energy in the final basis set =    -2692.3216551946
   34   -2692.3216597390      1.69e-07  Convergence criterion met
 Total energy in the final basis set =    -2692.3216597390
   34   -2692.3216608868      4.35e-07  Convergence criterion met
 Total energy in the final basis set =    -2692.3216608868
   34   -2692.3216620301      1.33e-07  Convergence criterion met
 Total energy in the final basis set =    -2692.3216620301
   35   -2692.3216647653      1.35e-07  Convergence criterion met
 Total energy in the final basis set =    -2692.3216647653
   34   -2692.3216677793      1.13e-07  Convergence criterion met
 Total energy in the final basis set =    -2692.3216677793
   32   -2692.3216700009      2.33e-07  Convergence criterion met
 Total energy in the final basis set =    -2692.3216700009

             Standard Nuclear Orientation (Angstroms)
    I     Atom           X                Y                Z
 ----------------------------------------------------------------
    1      Br      4.1837106098    -0.1033849572     0.0095400698
    2      C      -0.9133065115     0.4938097077     0.0079026791
    3      C       0.2030855005    -0.4965948064     0.0062511745
    4      C      -2.3144717311    -0.1632267713    -0.0090575791
    5      H      -0.8407864321     1.1363492609     0.8949440603
    6      H      -0.8281270501     1.1535835879    -0.8653839143
    7      H       0.5549360004    -0.9356878712    -0.9226341940
    8      H       0.5520380203    -0.9429302819     0.9327190420
    9      H      -3.1017620299     0.5986283723    -0.0072284838
   10      H      -2.4447667213    -0.7850024130    -0.9004441711
   11      H      -2.4577646551    -0.8029428278     0.8674913167
 ----------------------------------------------------------------

   33   -2692.3216708128      8.18e-07  Convergence criterion met
 Total energy in the final basis set =    -2692.3216708128

                    Orbital Energies (a.u.)
 --------------------------------------------------------------

 Alpha MOs
 -- Occupied --
******* -62.554 -56.378 -56.370 -56.370 -10.190 -10.188 -10.178
 -8.741  -6.577  -6.555  -6.555  -2.668  -2.663  -2.663  -2.646
 -2.646  -0.793  -0.781  -0.675  -0.582  -0.464  -0.429  -0.395
 -0.380  -0.368  -0.350  -0.334  -0.320  -0.319  -0.202

 Beta MOs
 -- Occupied --
******* -62.552 -56.372 -56.369 -56.369 -10.189 -10.177 -10.176
 -8.737  -6.567  -6.554  -6.554  -2.660  -2.657  -2.657  -2.645
 -2.645  -0.771  -0.750  -0.656  -0.568  -0.459  -0.423  -0.389
 -0.368  -0.345  -0.332  -0.305  -0.305

          Ground-State Mulliken Net Atomic Charges

     Atom                 Charge (a.u.)    Spin (a.u.)
  --------------------------------------------------------
      1 Br                   -0.005952       1.002148
      2 C                    -0.190288      -0.072938
      3 C                    -0.229327       1.076542
      4 C                    -0.307411       0.050120
      5 H                     0.104072       0.012706
      6 H                     0.104202       0.013430
      7 H                     0.104706      -0.047200
      8 H                     0.104838      -0.047222
      9 H                     0.102216       0.013480
     10 H                     0.106441      -0.000560
     11 H                     0.106503      -0.000505
  --------------------------------------------------------
  Sum of atomic charges =     0.000000

                    Cartesian Multipole Moments
 -----------------------------------------------------------------
    Charge (ESU x 10^10)
                 0.0000
    Dipole Moment (Debye)
         X      -0.4161      Y       0.0296      Z      -0.0004
       Tot       0.4172
    Quadrupole Moments (Debye-Ang)
        XX     -37.6520     XY      -0.6450     YY     -39.7185
        XZ      -0.0051     YZ      -0.0070     ZZ     -38.8090

 Final energy is   -2692.32167081284
 **  OPTIMIZATION CONVERGED  **
 Total job time:  88.03s(wall), 1030.84s(cpu)
        *  Thank you very much for using Q-Chem.  Have a nice day.  *
