 Q-Chem 5.1, Q-Chem, Inc., Pleasanton, CA (2018)
 Q-Chem 5.1.1 for Intel X86 EM64T Linux

User input:
--------------------------------------------------------------

$comment
potential surface scanner
$end

$rem
JOBTYPE  PES_SCAN
UNRESTRICTED TRUE
SYM_IGNORE  TRUE
GEOM_OPT_MAX_CYCLES 400
SCF_MAX_CYCLES 400
METHOD   B3LYP
BASIS   6-31G**
PDB_PRINT 2
SCF_CONVERGENCE 6
THRESH 14
SCF_PRINT 1
$end
$molecule
0 3
Br 4.350056 -0.021343 0.012460
C -0.918200 0.484250 0.007891
C 0.180481 -0.525911 0.005105
C -2.329684 -0.150261 -0.008993
H -0.834369 1.124942 0.895186
H -0.822319 1.142853 -0.865163
H 0.510326 -0.982906 -0.923300
H 0.514547 -0.984903 0.930940
H -3.105248 0.623593 -0.006891
H -2.469877 -0.769754 -0.900516
H -2.482927 -0.787959 0.867381
$end
$scan
stre 1 3 4.100000 4.101000 0.100000
$end
--------------------------------------------------------------

   26   -2692.3215593758      9.50e-07  Convergence criterion met
 Total energy in the final basis set =    -2692.3215593758
   33   -2692.3214456635      6.02e-07  Convergence criterion met
 Total energy in the final basis set =    -2692.3214456635
   33   -2692.3215165178      6.77e-07  Convergence criterion met
 Total energy in the final basis set =    -2692.3215165178
   36   -2692.3215836458      1.82e-07  Convergence criterion met
 Total energy in the final basis set =    -2692.3215836458
   35   -2692.3215871070      6.11e-07  Convergence criterion met
 Total energy in the final basis set =    -2692.3215871070
   36   -2692.3215900890      1.29e-07  Convergence criterion met
 Total energy in the final basis set =    -2692.3215900890
   35   -2692.3215948423      6.86e-07  Convergence criterion met
 Total energy in the final basis set =    -2692.3215948423
   33   -2692.3215995888      6.68e-07  Convergence criterion met
   27   -2692.3216190671      4.21e-07  Convergence criterion met
 Total energy in the final basis set =    -2692.3216190671
   29   -2692.3216209814      1.65e-07  Convergence criterion met
 Total energy in the final basis set =    -2692.3216209814
   26   -2692.3216228393      7.47e-08  Convergence criterion met
 Total energy in the final basis set =    -2692.3216228393
   26   -2692.3216253480      9.17e-07  Convergence criterion met
 Total energy in the final basis set =    -2692.3216253480
   25   -2692.3216281396      4.25e-08  Convergence criterion met
 Total energy in the final basis set =    -2692.3216281396
   25   -2692.3216294164      8.69e-08  Convergence criterion met
 Total energy in the final basis set =    -2692.3216294164

             Standard Nuclear Orientation (Angstroms)
    I     Atom           X                Y                Z
 ----------------------------------------------------------------
    1      Br      4.2785137540    -0.1137264806     0.0112026413
    2      C      -0.9240008843     0.4964840311     0.0077045284
    3      C       0.1958451636    -0.4902725910     0.0056303817
    4      C      -2.3227998644    -0.1653141108    -0.0088686090
    5      H      -0.8532343176     1.1392292516     0.8947210109
    6      H      -0.8412365817     1.1565140218    -0.8656241783
    7      H       0.5442513976    -0.9325571879    -0.9231467001
    8      H       0.5433220774    -0.9385347671     0.9318365568
    9      H      -3.1127712633     0.5938000211    -0.0066687635
   10      H      -2.4513798416    -0.7873793211    -0.9003129850
   11      H      -2.4637236397    -0.8056418670     0.8676261168
 ----------------------------------------------------------------

   25   -2692.3216296553      8.06e-08  Convergence criterion met
 Total energy in the final basis set =    -2692.3216296553

                    Orbital Energies (a.u.)
 --------------------------------------------------------------

 Alpha MOs
 -- Occupied --
******* -62.554 -56.378 -56.371 -56.371 -10.189 -10.187 -10.178
 -8.741  -6.578  -6.556  -6.556  -2.669  -2.663  -2.663  -2.647
 -2.647  -0.794  -0.781  -0.675  -0.581  -0.463  -0.429  -0.394
 -0.380  -0.368  -0.350  -0.334  -0.320  -0.320  -0.202

 Beta MOs
 -- Occupied --
******* -62.553 -56.373 -56.370 -56.370 -10.188 -10.176 -10.176
 -8.737  -6.567  -6.554  -6.554  -2.661  -2.657  -2.657  -2.646
 -2.646  -0.770  -0.750  -0.656  -0.567  -0.459  -0.423  -0.389
 -0.368  -0.345  -0.332  -0.306  -0.306

          Ground-State Mulliken Net Atomic Charges

     Atom                 Charge (a.u.)    Spin (a.u.)
  --------------------------------------------------------
      1 Br                   -0.004915       1.001950
      2 C                    -0.190107      -0.073023
      3 C                    -0.228593       1.077004
      4 C                    -0.307395       0.050076
      5 H                     0.103871       0.012571
      6 H                     0.104015       0.013383
      7 H                     0.104040      -0.047182
      8 H                     0.104195      -0.047207
      9 H                     0.102149       0.013524
     10 H                     0.106335      -0.000578
     11 H                     0.106405      -0.000517
  --------------------------------------------------------
  Sum of atomic charges =    -0.000000

                    Cartesian Multipole Moments
 -----------------------------------------------------------------
    Charge (ESU x 10^10)
                 0.0000
    Dipole Moment (Debye)
         X      -0.4019      Y       0.0258      Z      -0.0002
       Tot       0.4028
    Quadrupole Moments (Debye-Ang)
        XX     -37.5963     XY      -0.6641     YY     -39.7174
        XZ       0.0010     YZ      -0.0063     ZZ     -38.8142

 Final energy is   -2692.32162965531
 **  OPTIMIZATION CONVERGED  **
 Total job time:  123.55s(wall), 1395.69s(cpu)
        *  Thank you very much for using Q-Chem.  Have a nice day.  *
