 Q-Chem 5.1, Q-Chem, Inc., Pleasanton, CA (2018)
 Q-Chem 5.1.1 for Intel X86 EM64T Linux

User input:
--------------------------------------------------------------

$comment
potential surface scanner
$end

$rem
JOBTYPE  PES_SCAN
UNRESTRICTED TRUE
SYM_IGNORE  TRUE
GEOM_OPT_MAX_CYCLES 400
SCF_MAX_CYCLES 400
METHOD   B3LYP
BASIS   6-31G**
PDB_PRINT 2
SCF_CONVERGENCE 6
THRESH 14
SCF_PRINT 1
$end
$molecule
0 3
Br 5.125625 -0.793022 -0.009260
C -1.109780 0.595778 0.014885
C 0.163030 -0.183053 0.015072
C -2.375310 -0.294303 -0.015950
H -1.156971 1.236737 0.904708
H -1.137606 1.265907 -0.854784
H 0.576378 -0.569721 -0.911464
H 0.594211 -0.546445 0.942720
H -3.283153 0.319259 -0.018489
H -2.389919 -0.925075 -0.910577
H -2.413710 -0.953461 0.857238
$end
$scan
stre 1 3 4.900000 4.901000 0.100000
$end
--------------------------------------------------------------

   10   -2692.3208096343      9.21e-07  Convergence criterion met
 Total energy in the final basis set =    -2692.3208096343
   11   -2692.3202157517      7.15e-07  Convergence criterion met
 Total energy in the final basis set =    -2692.3202157517
   10   -2692.3205692749      9.86e-07  Convergence criterion met
 Total energy in the final basis set =    -2692.3205692749
   10   -2692.3207592787      9.33e-07  Convergence criterion met
 Total energy in the final basis set =    -2692.3207592787
   10   -2692.3207877812      9.06e-07  Convergence criterion met
 Total energy in the final basis set =    -2692.3207877812
   10   -2692.3207935076      8.94e-07  Convergence criterion met
 Total energy in the final basis set =    -2692.3207935076

             Standard Nuclear Orientation (Angstroms)
    I     Atom           X                Y                Z
 ----------------------------------------------------------------
    1      Br      5.0396038743    -0.7483753705    -0.0099422393
    2      C      -1.0952594414     0.5910069601     0.0148733086
    3      C       0.1705366112    -0.1992519743     0.0155708000
    4      C      -2.3683832004    -0.2881493825    -0.0162482924
    5      H      -1.1370570747     1.2324084491     0.9046456748
    6      H      -1.1168737524     1.2613072260    -0.8548519838
    7      H       0.5766591994    -0.5943177721    -0.9106306328
    8      H       0.5953495015    -0.5692027437     0.9435590267
    9      H      -3.2710460064     0.3330120602    -0.0189585670
   10      H      -2.3882078246    -0.9188503736    -0.9108406087
   11      H      -2.4125268864    -0.9469860788     0.8569225139
 ----------------------------------------------------------------

   10   -2692.3207940788      8.93e-07  Convergence criterion met
 Total energy in the final basis set =    -2692.3207940788

                    Orbital Energies (a.u.)
 --------------------------------------------------------------

 Alpha MOs
 -- Occupied --
******* -62.557 -56.381 -56.373 -56.373 -10.185 -10.185 -10.176
 -8.744  -6.581  -6.558  -6.558  -2.671  -2.666  -2.666  -2.650
 -2.650  -0.796  -0.778  -0.672  -0.578  -0.460  -0.426  -0.391
 -0.377  -0.371  -0.348  -0.331  -0.322  -0.322  -0.198

 Beta MOs
 -- Occupied --
******* -62.555 -56.375 -56.372 -56.372 -10.186 -10.174 -10.171
 -8.740  -6.570  -6.557  -6.557  -2.664  -2.660  -2.660  -2.649
 -2.649  -0.768  -0.753  -0.653  -0.564  -0.456  -0.420  -0.386
 -0.365  -0.342  -0.329  -0.308  -0.308

          Ground-State Mulliken Net Atomic Charges

     Atom                 Charge (a.u.)    Spin (a.u.)
  --------------------------------------------------------
      1 Br                   -0.000292       1.000124
      2 C                    -0.189198      -0.073812
      3 C                    -0.219795       1.080188
      4 C                    -0.307377       0.049920
      5 H                     0.102159       0.011389
      6 H                     0.102834       0.014693
      7 H                     0.100108      -0.047501
      8 H                     0.100417      -0.047615
      9 H                     0.100794       0.013712
     10 H                     0.105058      -0.000675
     11 H                     0.105293      -0.000424
  --------------------------------------------------------
  Sum of atomic charges =     0.000000

                    Cartesian Multipole Moments
 -----------------------------------------------------------------
    Charge (ESU x 10^10)
                 0.0000
    Dipole Moment (Debye)
         X      -0.2577      Y      -0.0001      Z       0.0015
       Tot       0.2577
    Quadrupole Moments (Debye-Ang)
        XX     -38.5465     XY       0.7598     YY     -38.5078
        XZ      -0.0736     YZ      -0.0738     ZZ     -38.8343

 Final energy is   -2692.32079407883
 **  OPTIMIZATION CONVERGED  **
 Total job time:  23.54s(wall), 264.20s(cpu)
        *  Thank you very much for using Q-Chem.  Have a nice day.  *
