 Q-Chem 5.1, Q-Chem, Inc., Pleasanton, CA (2018)
 Q-Chem 5.1.1 for Intel X86 EM64T Linux

User input:
--------------------------------------------------------------

$comment
potential surface scanner
$end

$rem
JOBTYPE  PES_SCAN
UNRESTRICTED TRUE
SYM_IGNORE  TRUE
GEOM_OPT_MAX_CYCLES 400
SCF_MAX_CYCLES 400
METHOD   B3LYP
BASIS   6-31G**
PDB_PRINT 2
SCF_CONVERGENCE 6
THRESH 14
SCF_PRINT 1
$end
$molecule
0 1
Br 2.210600 0.183000 -0.010500
C -0.617000 0.498300 0.014000
C 0.429200 -0.601700 0.010200
C -2.022700 -0.079700 -0.013600
H -0.503100 1.127200 0.905100
H -0.483600 1.153700 -0.855200
H 0.357400 -1.232600 -0.880100
H 0.371000 -1.225900 0.906000
H -2.764000 0.725600 -0.009200
H -2.181500 -0.682500 -0.913600
H -2.203500 -0.712800 0.861000
$end
$scan
stre 1 3 1.400000 1.401000 0.100000
$end
--------------------------------------------------------------

    9   -2692.4353936127      6.13e-07  Convergence criterion met
 Total energy in the final basis set =    -2692.4353936127
    9   -2692.4224819729      5.81e-07  Convergence criterion met
 Total energy in the final basis set =    -2692.4224819729
    9   -2692.3828958847      5.83e-07  Convergence criterion met
 Total energy in the final basis set =    -2692.3828958847
    9   -2692.3110172864      6.27e-07  Convergence criterion met
 Total energy in the final basis set =    -2692.3110172864
    9   -2692.2113166918      6.98e-07  Convergence criterion met
 Total energy in the final basis set =    -2692.2113166918
    9   -2692.1876914614      7.63e-07  Convergence criterion met
 Total energy in the final basis set =    -2692.1876914614
    9   -2692.1865996060      8.14e-07  Convergence criterion met
 Total energy in the final basis set =    -2692.1865996060
    9   -2692.1867006861      8.74e-07  Convergence criterion met
 Total energy in the final basis set =    -2692.1867006861
    9   -2692.1867054929      8.79e-07  Convergence criterion met
 Total energy in the final basis set =    -2692.1867054929
    9   -2692.1867082150      8.83e-07  Convergence criterion met
 Total energy in the final basis set =    -2692.1867082150

             Standard Nuclear Orientation (Angstroms)
    I     Atom           X                Y                Z
 ----------------------------------------------------------------
    1      Br      1.9136585702    -0.0305781532     0.0039304503
    2      C      -0.5927985215     0.5466322644     0.0105197789
    3      C       0.5951841458    -0.5013420783     0.0065925867
    4      C      -1.9734815092    -0.1035475835    -0.0115589739
    5      H      -0.4744797615     1.1792585632     0.9003470395
    6      H      -0.4578395508     1.2049875603    -0.8580102204
    7      H       0.2897087410    -1.1622148674    -0.8374374297
    8      H       0.2933792175    -1.1626196046     0.8516077405
    9      H      -2.7663480142     0.6505254279    -0.0048930067
   10      H      -2.1100623269    -0.7190941771    -0.9078382031
   11      H      -2.1241209902    -0.7494073518     0.8608402378
 ----------------------------------------------------------------

    9   -2692.1867090703      8.85e-07  Convergence criterion met
 Total energy in the final basis set =    -2692.1867090703

                    Orbital Energies (a.u.)
 --------------------------------------------------------------

 Alpha MOs
 -- Occupied --
******* -62.518 -56.337 -56.335 -56.335 -10.215 -10.190 -10.181
 -8.714  -6.546  -6.531  -6.531  -2.644  -2.635  -2.635  -2.624
 -2.624  -0.962  -0.766  -0.643  -0.593  -0.502  -0.464  -0.446
 -0.424  -0.383  -0.360  -0.345  -0.246  -0.245

 Beta MOs
 -- Occupied --
******* -62.518 -56.337 -56.335 -56.335 -10.215 -10.190 -10.181
 -8.714  -6.546  -6.531  -6.531  -2.644  -2.635  -2.635  -2.624
 -2.624  -0.962  -0.766  -0.643  -0.593  -0.502  -0.464  -0.446
 -0.424  -0.383  -0.360  -0.345  -0.246  -0.245

          Ground-State Mulliken Net Atomic Charges

     Atom                 Charge (a.u.)    Spin (a.u.)
  --------------------------------------------------------
      1 Br                   -0.002523       0.000000
      2 C                    -0.212574      -0.000000
      3 C                    -0.197671       0.000000
      4 C                    -0.325499       0.000000
      5 H                     0.106844       0.000000
      6 H                     0.106808       0.000000
      7 H                     0.099744      -0.000000
      8 H                     0.099933      -0.000000
      9 H                     0.110130       0.000000
     10 H                     0.107473      -0.000000
     11 H                     0.107337      -0.000000
  --------------------------------------------------------
  Sum of atomic charges =    -0.000000

                    Cartesian Multipole Moments
 -----------------------------------------------------------------
    Charge (ESU x 10^10)
                -0.0000
    Dipole Moment (Debye)
         X      -1.3283      Y      -0.4032      Z       0.0028
       Tot       1.3881
    Quadrupole Moments (Debye-Ang)
        XX     -41.0126     XY      -0.3681     YY     -38.2679
        XZ      -0.0091     YZ      -0.0070     ZZ     -38.1987

 Final energy is   -2692.18670907026
 **  OPTIMIZATION CONVERGED  **
 Total job time:  41.76s(wall), 463.91s(cpu)
        *  Thank you very much for using Q-Chem.  Have a nice day.  *
