 Q-Chem 5.1, Q-Chem, Inc., Pleasanton, CA (2018)
 Q-Chem 5.1.1 for Intel X86 EM64T Linux

User input:
--------------------------------------------------------------

$comment
potential surface scanner
$end

$rem
JOBTYPE  PES_SCAN
UNRESTRICTED TRUE
SYM_IGNORE  TRUE
GEOM_OPT_MAX_CYCLES 400
SCF_MAX_CYCLES 400
METHOD   B3LYP
BASIS   6-31G**
PDB_PRINT 2
SCF_CONVERGENCE 6
THRESH 14
SCF_PRINT 1
$end
$molecule
0 3
Br 2.836885 0.488898 0.012774
C -0.695265 0.413531 0.007483
C 0.302401 -0.701187 0.003185
C -2.162781 -0.071921 -0.006180
H -0.545317 1.045572 0.892960
H -0.534166 1.062343 -0.863696
H 0.506859 -1.236817 -0.921331
H 0.490800 -1.258956 0.917840
H -2.857486 0.776019 -0.001500
H -2.369398 -0.673331 -0.897595
H -2.379748 -0.691546 0.870161
$end
$scan
stre 1 3 2.700000 2.701000 0.100000
$end
--------------------------------------------------------------

   10   -2692.3095680311      7.08e-07  Convergence criterion met
 Total energy in the final basis set =    -2692.3095680311
   10   -2692.3056310003      5.94e-07  Convergence criterion met
 Total energy in the final basis set =    -2692.3056310003
   10   -2692.3058162444      5.84e-07  Convergence criterion met
 Total energy in the final basis set =    -2692.3058162444
   10   -2692.3058652083      5.84e-07  Convergence criterion met
 Total energy in the final basis set =    -2692.3058652083
   10   -2692.3058753818      5.84e-07  Convergence criterion met
 Total energy in the final basis set =    -2692.3058753818
   10   -2692.3059554165      5.49e-07  Convergence criterion met
 Total energy in the final basis set =    -2692.3059554165
   10   -2692.3059611274      5.46e-07  Convergence criterion met
 Total energy in the final basis set =    -2692.3059611274
   10   -2692.3059632653      5.48e-07  Convergence criterion met
 Total energy in the final basis set =    -2692.3059632653

             Standard Nuclear Orientation (Angstroms)
    I     Atom           X                Y                Z
 ----------------------------------------------------------------
    1      Br      2.8166165302     0.3771464560     0.0133393771
    2      C      -0.7001541828     0.4371667002     0.0076834297
    3      C       0.3222214621    -0.6562413006     0.0030630979
    4      C      -2.1553427319    -0.0833363639    -0.0064374399
    5      H      -0.5641173214     1.0725158509     0.8931363040
    6      H      -0.5535288416     1.0898689219    -0.8633264471
    7      H       0.5059219175    -1.2069547265    -0.9186011181
    8      H       0.4960247736    -1.2249388012     0.9155331544
    9      H      -2.8720123655     0.7461860753    -0.0013374103
   10      H      -2.3463451094    -0.6895094455    -0.8981984984
   11      H      -2.3565001308    -0.7092983664     0.8692465507
 ----------------------------------------------------------------

   10   -2692.3059639073      5.50e-07  Convergence criterion met
 Total energy in the final basis set =    -2692.3059639073

                    Orbital Energies (a.u.)
 --------------------------------------------------------------

 Alpha MOs
 -- Occupied --
******* -62.552 -56.376 -56.369 -56.369 -10.181 -10.176 -10.173
 -8.739  -6.576  -6.554  -6.554  -2.667  -2.662  -2.661  -2.645
 -2.645  -0.798  -0.773  -0.668  -0.576  -0.457  -0.422  -0.389
 -0.380  -0.365  -0.346  -0.327  -0.325  -0.318  -0.173

 Beta MOs
 -- Occupied --
******* -62.550 -56.370 -56.367 -56.367 -10.182 -10.172 -10.162
 -8.735  -6.565  -6.552  -6.552  -2.658  -2.655  -2.655  -2.644
 -2.644  -0.767  -0.748  -0.650  -0.564  -0.452  -0.415  -0.381
 -0.367  -0.339  -0.325  -0.303  -0.302

          Ground-State Mulliken Net Atomic Charges

     Atom                 Charge (a.u.)    Spin (a.u.)
  --------------------------------------------------------
      1 Br                    0.034559       1.054419
      2 C                    -0.173733      -0.065096
      3 C                    -0.246626       1.003383
      4 C                    -0.307544       0.042261
      5 H                     0.097042       0.011626
      6 H                     0.097142       0.011648
      7 H                     0.097925      -0.036199
      8 H                     0.098252      -0.036420
      9 H                     0.097620       0.015671
     10 H                     0.102664      -0.000647
     11 H                     0.102698      -0.000647
  --------------------------------------------------------
  Sum of atomic charges =    -0.000000

                    Cartesian Multipole Moments
 -----------------------------------------------------------------
    Charge (ESU x 10^10)
                -0.0000
    Dipole Moment (Debye)
         X      -0.1952      Y      -0.0292      Z       0.0003
       Tot       0.1973
    Quadrupole Moments (Debye-Ang)
        XX     -41.0667     XY      -0.6327     YY     -39.6740
        XZ      -0.0142     YZ       0.0259     ZZ     -36.2413

 Final energy is   -2692.30596390730
 **  OPTIMIZATION CONVERGED  **
 Total job time:  33.38s(wall), 380.63s(cpu)
        *  Thank you very much for using Q-Chem.  Have a nice day.  *
