 Q-Chem 5.1, Q-Chem, Inc., Pleasanton, CA (2018)
 Q-Chem 5.1.1 for Intel X86 EM64T Linux

User input:
--------------------------------------------------------------

$comment
potential surface scanner
$end

$rem
JOBTYPE  PES_SCAN
UNRESTRICTED TRUE
SYM_IGNORE  TRUE
GEOM_OPT_MAX_CYCLES 400
SCF_MAX_CYCLES 400
METHOD   B3LYP
BASIS   6-31G**
PDB_PRINT 2
SCF_CONVERGENCE 6
THRESH 14
SCF_PRINT 1
$end
$molecule
0 3
Br 4.516439 0.033375 0.017201
C -0.928319 0.473346 0.007180
C 0.155678 -0.552776 0.003365
C -2.348967 -0.140469 -0.008448
H -0.834572 1.113088 0.894167
H -0.824066 1.130621 -0.865977
H 0.484400 -1.008894 -0.925749
H 0.495137 -1.006278 0.929876
H -3.113355 0.644466 -0.004823
H -2.499204 -0.757220 -0.900261
H -2.510382 -0.776658 0.867568
$end
$scan
stre 1 3 4.300000 4.301000 0.100000
$end
--------------------------------------------------------------

   28   -2692.3214358173      2.33e-07  Convergence criterion met
 Total energy in the final basis set =    -2692.3214358173
   28   -2692.3213299613      8.54e-07  Convergence criterion met
 Total energy in the final basis set =    -2692.3213299613
   28   -2692.3214015212      3.84e-07  Convergence criterion met
 Total energy in the final basis set =    -2692.3214015212
   30   -2692.3214686264      4.58e-07  Convergence criterion met
 Total energy in the final basis set =    -2692.3214686264
   30   -2692.3214711103      5.19e-07  Convergence criterion met
 Total energy in the final basis set =    -2692.3214711103
   30   -2692.3214726630      5.73e-07  Convergence criterion met
 Total energy in the final basis set =    -2692.3214726630
   30   -2692.3214754088      8.78e-07  Convergence criterion met
 Total energy in the final basis set =    -2692.3214754088
   28   -2692.3214818390      1.85e-07  Convergence criterion met
 Total energy in the final basis set =    -2692.3214818390
   27   -2692.3214913385      3.01e-08  Convergence criterion met
 Total energy in the final basis set =    -2692.3214913385
   27   -2692.3215004484      3.05e-07  Convergence criterion met
 Total energy in the final basis set =    -2692.3215004484
   26   -2692.3215056994      9.86e-07  Convergence criterion met
 Total energy in the final basis set =    -2692.3215056994

             Standard Nuclear Orientation (Angstroms)
    I     Atom           X                Y                Z
 ----------------------------------------------------------------
    1      Br      4.4488897327    -0.0628166430     0.0126258063
    2      C      -0.9349804341     0.4874805832     0.0079224094
    3      C       0.1725238622    -0.5129709772     0.0050831549
    4      C      -2.3418048775    -0.1572390106    -0.0090554378
    5      H      -0.8565325317     1.1290321138     0.8951565328
    6      H      -0.8445849416     1.1472198348    -0.8649374610
    7      H       0.5177482902    -0.9569670707    -0.9238519753
    8      H       0.5223162755    -0.9586683095     0.9314320713
    9      H      -3.1227005829     0.6112369799    -0.0070366458
   10      H      -2.4775238070    -0.7777327529    -0.9005567688
   11      H      -2.4905619858    -0.7959737478     0.8673173139
 ----------------------------------------------------------------

   28   -2692.3215065293      2.83e-07  Convergence criterion met
 Total energy in the final basis set =    -2692.3215065293

                    Orbital Energies (a.u.)
 --------------------------------------------------------------

 Alpha MOs
 -- Occupied --
******* -62.555 -56.379 -56.371 -56.371 -10.189 -10.187 -10.178
 -8.742  -6.579  -6.556  -6.556  -2.669  -2.664  -2.664  -2.648
 -2.648  -0.794  -0.780  -0.674  -0.581  -0.463  -0.428  -0.394
 -0.379  -0.369  -0.350  -0.333  -0.320  -0.320  -0.201

 Beta MOs
 -- Occupied --
******* -62.553 -56.373 -56.370 -56.370 -10.188 -10.176 -10.175
 -8.738  -6.568  -6.555  -6.555  -2.661  -2.658  -2.658  -2.647
 -2.647  -0.770  -0.751  -0.655  -0.567  -0.458  -0.423  -0.389
 -0.367  -0.345  -0.331  -0.306  -0.306

          Ground-State Mulliken Net Atomic Charges

     Atom                 Charge (a.u.)    Spin (a.u.)
  --------------------------------------------------------
      1 Br                   -0.003282       1.001581
      2 C                    -0.189649      -0.073537
      3 C                    -0.227827       1.078338
      4 C                    -0.307162       0.049975
      5 H                     0.103441       0.012451
      6 H                     0.103649       0.013636
      7 H                     0.103206      -0.047415
      8 H                     0.103402      -0.047460
      9 H                     0.101836       0.013514
     10 H                     0.106142      -0.000586
     11 H                     0.106245      -0.000497
  --------------------------------------------------------
  Sum of atomic charges =    -0.000000

                    Cartesian Multipole Moments
 -----------------------------------------------------------------
    Charge (ESU x 10^10)
                -0.0000
    Dipole Moment (Debye)
         X      -0.3598      Y       0.0338      Z       0.0004
       Tot       0.3614
    Quadrupole Moments (Debye-Ang)
        XX     -37.5119     XY      -0.5826     YY     -39.7266
        XZ       0.0092     YZ      -0.0033     ZZ     -38.8175

 Final energy is   -2692.32150652926
 **  OPTIMIZATION CONVERGED  **
 Total job time:  89.94s(wall), 986.53s(cpu)
        *  Thank you very much for using Q-Chem.  Have a nice day.  *
