 Q-Chem 5.1, Q-Chem, Inc., Pleasanton, CA (2018)
 Q-Chem 5.1.1 for Intel X86 EM64T Linux

User input:
--------------------------------------------------------------

$comment
potential surface scanner
$end

$rem
JOBTYPE  PES_SCAN
UNRESTRICTED TRUE
SYM_IGNORE  TRUE
GEOM_OPT_MAX_CYCLES 400
SCF_MAX_CYCLES 400
METHOD   B3LYP
BASIS   6-31G**
PDB_PRINT 2
SCF_CONVERGENCE 6
THRESH 14
SCF_PRINT 1
$end
$molecule
0 3
Br 5.545748 -1.035465 -0.003887
C -1.183737 0.628299 0.014307
C 0.129282 -0.080655 0.011393
C -2.399129 -0.329618 -0.014054
H -1.263975 1.265179 0.904677
H -1.250096 1.296086 -0.854896
H 0.560313 -0.443925 -0.916656
H 0.573938 -0.431835 0.937490
H -3.338741 0.234079 -0.014755
H -2.380921 -0.959954 -0.908840
H -2.399884 -0.989591 0.859319
$end
$scan
stre 1 3 5.400000 5.401000 0.100000
$end
--------------------------------------------------------------

   10   -2692.3208205799      9.63e-07  Convergence criterion met
 Total energy in the final basis set =    -2692.3208205799
   11   -2692.3200960049      7.10e-07  Convergence criterion met
 Total energy in the final basis set =    -2692.3200960049
   11   -2692.3205342288      7.20e-07  Convergence criterion met
 Total energy in the final basis set =    -2692.3205342288
   11   -2692.3207607022      7.16e-07  Convergence criterion met
 Total energy in the final basis set =    -2692.3207607022
   11   -2692.3207958802      7.06e-07  Convergence criterion met
 Total energy in the final basis set =    -2692.3207958802
   11   -2692.3208032927      6.97e-07  Convergence criterion met
 Total energy in the final basis set =    -2692.3208032927

             Standard Nuclear Orientation (Angstroms)
    I     Atom           X                Y                Z
 ----------------------------------------------------------------
    1      Br      5.4628496059    -0.9889352499    -0.0040659912
    2      C      -1.1692905866     0.6228501525     0.0142511914
    3      C       0.1367290031    -0.0988797378     0.0115793237
    4      C      -2.3939418936    -0.3230975399    -0.0141356794
    5      H      -1.2433382452     1.2606085681     0.9045313138
    6      H      -1.2289208196     1.2911908658    -0.8550317551
    7      H       0.5630744126    -0.4684055399    -0.9161946036
    8      H       0.5769079453    -0.4557396671     0.9376764724
    9      H      -3.3280208988     0.2497247423    -0.0150326554
   10      H      -2.3819027312    -0.9537769222    -0.9088015318
   11      H      -2.4013477920    -0.9829396719     0.8593219152
 ----------------------------------------------------------------

   11   -2692.3208038959      6.94e-07  Convergence criterion met
 Total energy in the final basis set =    -2692.3208038959

                    Orbital Energies (a.u.)
 --------------------------------------------------------------

 Alpha MOs
 -- Occupied --
******* -62.557 -56.381 -56.374 -56.374 -10.186 -10.185 -10.177
 -8.744  -6.581  -6.559  -6.559  -2.672  -2.666  -2.666  -2.650
 -2.650  -0.797  -0.779  -0.672  -0.579  -0.461  -0.427  -0.392
 -0.378  -0.371  -0.348  -0.332  -0.323  -0.322  -0.199

 Beta MOs
 -- Occupied --
******* -62.556 -56.376 -56.373 -56.373 -10.186 -10.175 -10.172
 -8.740  -6.570  -6.557  -6.557  -2.664  -2.660  -2.660  -2.649
 -2.649  -0.768  -0.753  -0.654  -0.565  -0.457  -0.421  -0.387
 -0.366  -0.343  -0.330  -0.309  -0.308

          Ground-State Mulliken Net Atomic Charges

     Atom                 Charge (a.u.)    Spin (a.u.)
  --------------------------------------------------------
      1 Br                   -0.000079       0.999974
      2 C                    -0.188944      -0.073872
      3 C                    -0.220496       1.080104
      4 C                    -0.307511       0.050151
      5 H                     0.102427       0.011688
      6 H                     0.102956       0.014277
      7 H                     0.099703      -0.047403
      8 H                     0.099951      -0.047490
      9 H                     0.101137       0.013707
     10 H                     0.105333      -0.000667
     11 H                     0.105523      -0.000470
  --------------------------------------------------------
  Sum of atomic charges =     0.000000

                    Cartesian Multipole Moments
 -----------------------------------------------------------------
    Charge (ESU x 10^10)
                 0.0000
    Dipole Moment (Debye)
         X      -0.2718      Y      -0.0200      Z       0.0011
       Tot       0.2725
    Quadrupole Moments (Debye-Ang)
        XX     -37.1094     XY       0.0105     YY     -39.8733
        XZ      -0.0676     YZ      -0.0150     ZZ     -38.8377

 Final energy is   -2692.32080389588
 **  OPTIMIZATION CONVERGED  **
 Total job time:  25.92s(wall), 272.27s(cpu)
        *  Thank you very much for using Q-Chem.  Have a nice day.  *
