 Q-Chem 5.1, Q-Chem, Inc., Pleasanton, CA (2018)
 Q-Chem 5.1.1 for Intel X86 EM64T Linux

User input:
--------------------------------------------------------------

$comment
potential surface scanner
$end

$rem
JOBTYPE  PES_SCAN
UNRESTRICTED TRUE
SYM_IGNORE  TRUE
GEOM_OPT_MAX_CYCLES 400
SCF_MAX_CYCLES 400
METHOD   B3LYP
BASIS   6-31G**
PDB_PRINT 2
SCF_CONVERGENCE 6
THRESH 14
SCF_PRINT 1
$end
$molecule
0 3
Br 3.607919 0.024487 0.010862
C -0.835768 0.481741 0.007042
C 0.254857 -0.538497 0.005809
C -2.251507 -0.143109 -0.008104
H -0.747575 1.123549 0.893399
H -0.735148 1.139011 -0.866560
H 0.567357 -1.007049 -0.922362
H 0.560318 -1.019241 0.929862
H -3.023783 0.634313 -0.006320
H -2.396040 -0.763344 -0.898577
H -2.407845 -0.779260 0.869051
$end
$scan
stre 1 3 3.300000 3.301000 0.100000
$end
--------------------------------------------------------------

   22   -2692.3190044889      5.02e-07  Convergence criterion met
 Total energy in the final basis set =    -2692.3190044889
   21   -2692.3180726183      4.31e-07  Convergence criterion met
 Total energy in the final basis set =    -2692.3180726183
   18   -2692.3181214167      6.21e-07  Convergence criterion met
 Total energy in the final basis set =    -2692.3181214167
   11   -2692.3181828857      8.91e-07  Convergence criterion met
 Total energy in the final basis set =    -2692.3181828857
   11   -2692.3181845845      9.67e-07  Convergence criterion met
 Total energy in the final basis set =    -2692.3181845845

             Standard Nuclear Orientation (Angstroms)
    I     Atom           X                Y                Z
 ----------------------------------------------------------------
    1      Br      3.5025703190     0.0732344778     0.0130476742
    2      C      -0.8189155469     0.4752498459     0.0063663123
    3      C       0.2626661015    -0.5536271679     0.0049357821
    4      C      -2.2404756431    -0.1361801222    -0.0076540623
    5      H      -0.7237300121     1.1166797895     0.8923025398
    6      H      -0.7125743225     1.1320578272    -0.8669793155
    7      H       0.5651178533    -1.0324813585    -0.9220754572
    8      H       0.5571986412    -1.0446794732     0.9276142594
    9      H      -3.0055309076     0.6483298403    -0.0053466123
   10      H      -2.3915060244    -0.7552630236    -0.8978628854
   11      H      -2.4020354585    -0.7707196353     0.8697537649
 ----------------------------------------------------------------

   14   -2692.3181840579      7.51e-07  Convergence criterion met
 Total energy in the final basis set =    -2692.3181840579

                    Orbital Energies (a.u.)
 --------------------------------------------------------------

 Alpha MOs
 -- Occupied --
******* -62.552 -56.376 -56.368 -56.368 -10.183 -10.182 -10.175
 -8.739  -6.576  -6.553  -6.553  -2.666  -2.661  -2.661  -2.645
 -2.645  -0.793  -0.777  -0.670  -0.577  -0.459  -0.425  -0.390
 -0.377  -0.367  -0.348  -0.330  -0.318  -0.318  -0.192

 Beta MOs
 -- Occupied --
******* -62.550 -56.370 -56.367 -56.367 -10.184 -10.174 -10.168
 -8.735  -6.565  -6.552  -6.551  -2.659  -2.655  -2.655  -2.643
 -2.643  -0.767  -0.748  -0.652  -0.564  -0.455  -0.419  -0.384
 -0.365  -0.342  -0.328  -0.304  -0.302

          Ground-State Mulliken Net Atomic Charges

     Atom                 Charge (a.u.)    Spin (a.u.)
  --------------------------------------------------------
      1 Br                   -0.002725       1.014707
      2 C                    -0.191194      -0.071703
      3 C                    -0.206529       1.059688
      4 C                    -0.307584       0.049803
      5 H                     0.101179       0.012484
      6 H                     0.101661       0.012704
      7 H                     0.097450      -0.045590
      8 H                     0.098717      -0.045544
      9 H                     0.099911       0.014711
     10 H                     0.104545      -0.000637
     11 H                     0.104568      -0.000623
  --------------------------------------------------------
  Sum of atomic charges =    -0.000000

                    Cartesian Multipole Moments
 -----------------------------------------------------------------
    Charge (ESU x 10^10)
                 0.0000
    Dipole Moment (Debye)
         X      -0.3372      Y      -0.0101      Z       0.0004
       Tot       0.3374
    Quadrupole Moments (Debye-Ang)
        XX     -40.8889     XY      -0.5830     YY     -39.6587
        XZ      -0.0485     YZ       0.2553     ZZ     -36.1162

 Final energy is   -2692.31818405791
 **  OPTIMIZATION CONVERGED  **
 Total job time:  28.77s(wall), 332.53s(cpu)
        *  Thank you very much for using Q-Chem.  Have a nice day.  *
