 Q-Chem 5.1, Q-Chem, Inc., Pleasanton, CA (2018)
 Q-Chem 5.1.1 for Intel X86 EM64T Linux

User input:
--------------------------------------------------------------

$comment
potential surface scanner
$end

$rem
JOBTYPE  PES_SCAN
UNRESTRICTED TRUE
SYM_IGNORE  TRUE
GEOM_OPT_MAX_CYCLES 400
SCF_MAX_CYCLES 400
METHOD   B3LYP
BASIS   6-31G**
PDB_PRINT 2
SCF_CONVERGENCE 6
THRESH 14
SCF_PRINT 1
$end
$molecule
0 1
Br 2.210600 0.183000 -0.010500
C -0.617000 0.498300 0.014000
C 0.429200 -0.601700 0.010200
C -2.022700 -0.079700 -0.013600
H -0.503100 1.127200 0.905100
H -0.483600 1.153700 -0.855200
H 0.357400 -1.232600 -0.880100
H 0.371000 -1.225900 0.906000
H -2.764000 0.725600 -0.009200
H -2.181500 -0.682500 -0.913600
H -2.203500 -0.712800 0.861000
$end
$scan
stre 1 3 1.000000 1.001000 0.100000
$end
--------------------------------------------------------------

    9   -2692.4353936127      6.13e-07  Convergence criterion met
 Total energy in the final basis set =    -2692.4353936127
    9   -2692.4224819729      5.81e-07  Convergence criterion met
 Total energy in the final basis set =    -2692.4224819729
    9   -2692.3828958848      5.83e-07  Convergence criterion met
 Total energy in the final basis set =    -2692.3828958848
    9   -2692.3110172864      6.27e-07  Convergence criterion met
 Total energy in the final basis set =    -2692.3110172864
    9   -2692.1997295066      6.79e-07  Convergence criterion met
 Total energy in the final basis set =    -2692.1997295066
    9   -2692.0175575849      7.29e-07  Convergence criterion met
 Total energy in the final basis set =    -2692.0175575849
   10   -2691.7460363073      5.10e-07  Convergence criterion met
 Total energy in the final basis set =    -2691.7460363073
   10   -2691.5778512426      6.99e-07  Convergence criterion met
   10   -2690.6168441796      9.08e-07  Convergence criterion met
 Total energy in the final basis set =    -2690.6168441796
   10   -2690.6168659242      9.19e-07  Convergence criterion met
 Total energy in the final basis set =    -2690.6168659242
   10   -2690.6168788830      9.26e-07  Convergence criterion met
 Total energy in the final basis set =    -2690.6168788830
   10   -2690.6168852535      9.28e-07  Convergence criterion met
 Total energy in the final basis set =    -2690.6168852535
   10   -2690.6168899569      9.29e-07  Convergence criterion met
 Total energy in the final basis set =    -2690.6168899569
   10   -2690.6168934194      9.31e-07  Convergence criterion met
 Total energy in the final basis set =    -2690.6168934194

             Standard Nuclear Orientation (Angstroms)
    I     Atom           X                Y                Z
 ----------------------------------------------------------------
    1      Br      1.7398773572    -0.1378567932     0.0122973867
    2      C      -0.6248272949     0.5935611827     0.0095387223
    3      C       0.8030885095    -0.4877177142     0.0073401974
    4      C      -1.9679557545    -0.1028492427    -0.0100236354
    5      H      -0.4620901968     1.2027229327     0.9104261317
    6      H      -0.4475301498     1.2241483980    -0.8737540357
    7      H       0.2638948742    -1.1307024575    -0.8100070045
    8      H       0.2585420333    -1.1402405961     0.8137002925
    9      H      -2.8019055610     0.6088789494    -0.0024045492
   10      H      -2.0793035129    -0.7235265567    -0.9067475021
   11      H      -2.0889903044    -0.7538181023     0.8637339963
 ----------------------------------------------------------------

   10   -2690.6168946676      9.32e-07  Convergence criterion met
 Total energy in the final basis set =    -2690.6168946676

                    Orbital Energies (a.u.)
 --------------------------------------------------------------

 Alpha MOs
 -- Occupied --
******* -62.590 -56.406 -56.403 -56.403 -10.361 -10.177 -10.175
 -8.826  -6.684  -6.628  -6.627  -2.792  -2.755  -2.754  -2.715
 -2.715  -1.053  -0.752  -0.630  -0.605  -0.598  -0.522  -0.435
 -0.433  -0.385  -0.363  -0.343  -0.202  -0.186

 Beta MOs
 -- Occupied --
******* -62.590 -56.406 -56.403 -56.403 -10.361 -10.177 -10.175
 -8.826  -6.684  -6.628  -6.627  -2.792  -2.755  -2.754  -2.715
 -2.715  -1.053  -0.752  -0.630  -0.605  -0.598  -0.522  -0.435
 -0.433  -0.385  -0.363  -0.343  -0.202  -0.186

          Ground-State Mulliken Net Atomic Charges

     Atom                 Charge (a.u.)    Spin (a.u.)
  --------------------------------------------------------
      1 Br                    0.638191       0.000000
      2 C                    -0.278555       0.000000
      3 C                    -0.592387      -0.000000
      4 C                    -0.317632      -0.000000
      5 H                     0.091839      -0.000000
      6 H                     0.091554       0.000000
      7 H                     0.021362      -0.000000
      8 H                     0.021231      -0.000000
      9 H                     0.109069       0.000000
     10 H                     0.107676       0.000000
     11 H                     0.107651       0.000000
  --------------------------------------------------------
  Sum of atomic charges =    -0.000000

                    Cartesian Multipole Moments
 -----------------------------------------------------------------
    Charge (ESU x 10^10)
                -0.0000
    Dipole Moment (Debye)
         X      -0.5238      Y      -0.4196      Z      -0.0050
       Tot       0.6712
    Quadrupole Moments (Debye-Ang)
        XX     -40.8288     XY      -1.0722     YY     -38.3004
        XZ      -0.0209     YZ      -0.0102     ZZ     -37.7279

 Final energy is   -2690.61689466756
 **  OPTIMIZATION CONVERGED  **
 Total job time:  125.62s(wall), 1439.02s(cpu)
        *  Thank you very much for using Q-Chem.  Have a nice day.  *
