 Q-Chem 5.1, Q-Chem, Inc., Pleasanton, CA (2018)
 Q-Chem 5.1.1 for Intel X86 EM64T Linux

User input:
--------------------------------------------------------------

$comment
potential surface scanner
$end

$rem
JOBTYPE  PES_SCAN
UNRESTRICTED TRUE
SYM_IGNORE  TRUE
GEOM_OPT_MAX_CYCLES 400
SCF_MAX_CYCLES 400
METHOD   B3LYP
BASIS   6-31G**
PDB_PRINT 2
SCF_CONVERGENCE 6
THRESH 14
SCF_PRINT 1
$end
$molecule
0 3
Br 3.109836 0.508981 -0.004315
C -0.728036 0.405230 0.010445
C 0.261204 -0.713774 0.008822
C -2.198391 -0.075287 -0.008452
H -0.580067 1.034408 0.898181
H -0.561634 1.053630 -0.859792
H 0.516255 -1.218606 -0.919296
H 0.486571 -1.248673 0.927487
H -2.888526 0.776067 -0.003847
H -2.404752 -0.674063 -0.901531
H -2.419676 -0.695311 0.866402
$end
$scan
stre 1 3 3.000000 3.001000 0.100000
$end
--------------------------------------------------------------

   11   -2692.3162670450      9.26e-07  Convergence criterion met
 Total energy in the final basis set =    -2692.3162670450
   11   -2692.3146200616      8.88e-07  Convergence criterion met
 Total energy in the final basis set =    -2692.3146200616
   11   -2692.3147632881      8.58e-07  Convergence criterion met
 Total energy in the final basis set =    -2692.3147632881
   11   -2692.3147938475      8.47e-07  Convergence criterion met
 Total energy in the final basis set =    -2692.3147938475
   11   -2692.3148018842      8.49e-07  Convergence criterion met
 Total energy in the final basis set =    -2692.3148018842
   11   -2692.3148256990      8.21e-07  Convergence criterion met
 Total energy in the final basis set =    -2692.3148256990
   11   -2692.3148286297      8.07e-07  Convergence criterion met
 Total energy in the final basis set =    -2692.3148286297
   10   -2692.3148298587      9.99e-07  Convergence criterion met
 Total energy in the final basis set =    -2692.3148298587

             Standard Nuclear Orientation (Angstroms)
    I     Atom           X                Y                Z
 ----------------------------------------------------------------
    1      Br      3.0464219373     0.4618378868     0.0098953437
    2      C      -0.7229080222     0.4168720245     0.0078635148
    3      C       0.2776519055    -0.6931002434     0.0042169974
    4      C      -2.1877431314    -0.0797565158    -0.0062175183
    5      H      -0.5782237649     1.0492175857     0.8938462726
    6      H      -0.5663127951     1.0656088334    -0.8639440805
    7      H       0.5123886641    -1.2098995207    -0.9231741336
    8      H       0.4889432653    -1.2379470675     0.9210187259
    9      H      -2.8881046706     0.7632897149    -0.0024461031
   10      H      -2.3890716543    -0.6831723023    -0.8974095686
   11      H      -2.4002577337    -0.7003483955     0.8704545497
 ----------------------------------------------------------------

   10   -2692.3148302799      9.87e-07  Convergence criterion met
 Total energy in the final basis set =    -2692.3148302799

                    Orbital Energies (a.u.)
 --------------------------------------------------------------

 Alpha MOs
 -- Occupied --
******* -62.551 -56.376 -56.368 -56.368 -10.182 -10.180 -10.174
 -8.739  -6.575  -6.553  -6.553  -2.666  -2.661  -2.661  -2.645
 -2.644  -0.794  -0.775  -0.669  -0.576  -0.458  -0.423  -0.389
 -0.378  -0.366  -0.346  -0.329  -0.321  -0.318  -0.185

 Beta MOs
 -- Occupied --
******* -62.550 -56.370 -56.367 -56.367 -10.183 -10.173 -10.166
 -8.735  -6.564  -6.551  -6.551  -2.658  -2.655  -2.654  -2.643
 -2.643  -0.766  -0.748  -0.651  -0.563  -0.453  -0.417  -0.383
 -0.365  -0.340  -0.327  -0.303  -0.302

          Ground-State Mulliken Net Atomic Charges

     Atom                 Charge (a.u.)    Spin (a.u.)
  --------------------------------------------------------
      1 Br                    0.010084       1.029474
      2 C                    -0.182306      -0.069860
      3 C                    -0.218669       1.041086
      4 C                    -0.308169       0.046704
      5 H                     0.099246       0.012606
      6 H                     0.099693       0.011892
      7 H                     0.096431      -0.042736
      8 H                     0.097422      -0.042889
      9 H                     0.099001       0.015034
     10 H                     0.103638      -0.000629
     11 H                     0.103630      -0.000682
  --------------------------------------------------------
  Sum of atomic charges =     0.000000

                    Cartesian Multipole Moments
 -----------------------------------------------------------------
    Charge (ESU x 10^10)
                -0.0000
    Dipole Moment (Debye)
         X      -0.2642      Y      -0.0146      Z      -0.0003
       Tot       0.2646
    Quadrupole Moments (Debye-Ang)
        XX     -40.9375     XY      -0.6068     YY     -39.6343
        XZ      -0.0451     YZ       0.1901     ZZ     -36.1680

 Final energy is   -2692.31483027992
 **  OPTIMIZATION CONVERGED  **
 Total job time:  33.68s(wall), 389.96s(cpu)
        *  Thank you very much for using Q-Chem.  Have a nice day.  *
