 Q-Chem 5.1, Q-Chem, Inc., Pleasanton, CA (2018)
 Q-Chem 5.1.1 for Intel X86 EM64T Linux

User input:
--------------------------------------------------------------

$comment
potential surface scanner
$end

$rem
JOBTYPE  PES_SCAN
UNRESTRICTED TRUE
SYM_IGNORE  TRUE
GEOM_OPT_MAX_CYCLES 400
SCF_MAX_CYCLES 400
METHOD   B3LYP
BASIS   6-31G**
PDB_PRINT 2
SCF_CONVERGENCE 6
THRESH 14
SCF_PRINT 1
$end
$molecule
0 1
Br 2.210600 0.183000 -0.010500
C -0.617000 0.498300 0.014000
C 0.429200 -0.601700 0.010200
C -2.022700 -0.079700 -0.013600
H -0.503100 1.127200 0.905100
H -0.483600 1.153700 -0.855200
H 0.357400 -1.232600 -0.880100
H 0.371000 -1.225900 0.906000
H -2.764000 0.725600 -0.009200
H -2.181500 -0.682500 -0.913600
H -2.203500 -0.712800 0.861000
$end
$scan
stre 1 3 1.100000 1.101000 0.100000
$end
--------------------------------------------------------------

    9   -2692.4353936127      6.13e-07  Convergence criterion met
 Total energy in the final basis set =    -2692.4353936127
    9   -2692.4224819729      5.81e-07  Convergence criterion met
 Total energy in the final basis set =    -2692.4224819729
    9   -2692.3828958847      5.83e-07  Convergence criterion met
 Total energy in the final basis set =    -2692.3828958847
    9   -2692.3110172864      6.27e-07  Convergence criterion met
 Total energy in the final basis set =    -2692.3110172864
    9   -2692.1997295066      6.79e-07  Convergence criterion met
 Total energy in the final basis set =    -2692.1997295066
    9   -2692.0175575849      7.29e-07  Convergence criterion met
 Total energy in the final basis set =    -2692.0175575849
   10   -2691.7460363073      5.10e-07  Convergence criterion met
 Total energy in the final basis set =    -2691.7460363073
   10   -2691.5253049342      7.13e-07  Convergence criterion met
   10   -2691.2954391684      7.70e-07  Convergence criterion met
 Total energy in the final basis set =    -2691.2954391684
   10   -2691.2954558769      7.70e-07  Convergence criterion met
 Total energy in the final basis set =    -2691.2954558769
   10   -2691.2954709684      7.72e-07  Convergence criterion met
 Total energy in the final basis set =    -2691.2954709684
   10   -2691.2954775172      7.73e-07  Convergence criterion met
 Total energy in the final basis set =    -2691.2954775172
   10   -2691.2954795358      7.74e-07  Convergence criterion met
 Total energy in the final basis set =    -2691.2954795358
   10   -2691.2954806359      7.75e-07  Convergence criterion met
 Total energy in the final basis set =    -2691.2954806359

             Standard Nuclear Orientation (Angstroms)
    I     Atom           X                Y                Z
 ----------------------------------------------------------------
    1      Br      1.7632564182    -0.1052177952     0.0094440029
    2      C      -0.6019712430     0.5721651704     0.0099243635
    3      C       0.7275798546    -0.4758502465     0.0068631559
    4      C      -1.9585377839    -0.1092233279    -0.0105438540
    5      H      -0.4622079390     1.1951925538     0.9052476310
    6      H      -0.4472703543     1.2181442013    -0.8665456532
    7      H       0.2598593346    -1.1371316518    -0.8194621967
    8      H       0.2575270998    -1.1435435872     0.8268367030
    9      H      -2.7733496470     0.6224648411    -0.0033031139
   10      H      -2.0803234989    -0.7270694907    -0.9073189583
   11      H      -2.0917622410    -0.7573306673     0.8629579199
 ----------------------------------------------------------------

   10   -2691.2954815872      7.75e-07  Convergence criterion met
 Total energy in the final basis set =    -2691.2954815872

                    Orbital Energies (a.u.)
 --------------------------------------------------------------

 Alpha MOs
 -- Occupied --
******* -62.552 -56.369 -56.368 -56.367 -10.278 -10.184 -10.177
 -8.773  -6.617  -6.583  -6.582  -2.725  -2.698  -2.697  -2.673
 -2.673  -1.047  -0.759  -0.633  -0.597  -0.562  -0.502  -0.450
 -0.433  -0.387  -0.364  -0.345  -0.212  -0.204

 Beta MOs
 -- Occupied --
******* -62.552 -56.369 -56.368 -56.367 -10.278 -10.184 -10.177
 -8.773  -6.617  -6.583  -6.582  -2.725  -2.698  -2.697  -2.673
 -2.673  -1.047  -0.759  -0.633  -0.597  -0.562  -0.502  -0.450
 -0.433  -0.387  -0.364  -0.345  -0.212  -0.204

          Ground-State Mulliken Net Atomic Charges

     Atom                 Charge (a.u.)    Spin (a.u.)
  --------------------------------------------------------
      1 Br                    0.386383       0.000000
      2 C                    -0.251256      -0.000000
      3 C                    -0.414326      -0.000000
      4 C                    -0.321497      -0.000000
      5 H                     0.097642       0.000000
      6 H                     0.097318      -0.000000
      7 H                     0.039046      -0.000000
      8 H                     0.038994       0.000000
      9 H                     0.109902      -0.000000
     10 H                     0.108914      -0.000000
     11 H                     0.108880       0.000000
  --------------------------------------------------------
  Sum of atomic charges =     0.000000

                    Cartesian Multipole Moments
 -----------------------------------------------------------------
    Charge (ESU x 10^10)
                 0.0000
    Dipole Moment (Debye)
         X      -0.8552      Y      -0.3447      Z      -0.0032
       Tot       0.9220
    Quadrupole Moments (Debye-Ang)
        XX     -40.8081     XY      -0.8535     YY     -38.3192
        XZ      -0.0154     YZ      -0.0067     ZZ     -37.8744

 Final energy is   -2691.29548158719
 **  OPTIMIZATION CONVERGED  **
 Total job time:  83.72s(wall), 976.08s(cpu)
        *  Thank you very much for using Q-Chem.  Have a nice day.  *
