 Q-Chem 5.1, Q-Chem, Inc., Pleasanton, CA (2018)
 Q-Chem 5.1.1 for Intel X86 EM64T Linux

User input:
--------------------------------------------------------------

$comment
potential surface scanner
$end

$rem
JOBTYPE  PES_SCAN
UNRESTRICTED TRUE
SYM_IGNORE  TRUE
GEOM_OPT_MAX_CYCLES 400
SCF_MAX_CYCLES 400
METHOD   B3LYP
BASIS   6-31G**
PDB_PRINT 2
SCF_CONVERGENCE 6
THRESH 14
SCF_PRINT 1
$end
$molecule
0 1
Br 2.413781 0.200955 0.025433
C -0.637745 0.501200 0.006731
C 0.371870 -0.617640 0.003030
C -2.064396 -0.079968 -0.007387
H -0.495706 1.125841 0.893798
H -0.485106 1.140768 -0.867843
H 0.398321 -1.215511 -0.905191
H 0.384616 -1.234516 0.898740
H -2.801960 0.728018 -0.003752
H -2.240143 -0.689339 -0.900098
H -2.250735 -0.707209 0.870640
$end
$scan
stre 1 3 2.300000 2.301000 0.100000
$end
--------------------------------------------------------------

    9   -2692.4287623327      6.11e-07  Convergence criterion met
 Total energy in the final basis set =    -2692.4287623327
    9   -2692.4216404510      6.66e-07  Convergence criterion met
 Total energy in the final basis set =    -2692.4216404510
    9   -2692.4216752017      6.82e-07  Convergence criterion met
 Total energy in the final basis set =    -2692.4216752017
    9   -2692.4217533648      7.01e-07  Convergence criterion met
 Total energy in the final basis set =    -2692.4217533648

             Standard Nuclear Orientation (Angstroms)
    I     Atom           X                Y                Z
 ----------------------------------------------------------------
    1      Br      2.4809463657     0.2256799455     0.0230086942
    2      C      -0.6437435850     0.4958259163     0.0073869596
    3      C       0.3467323204    -0.6314946315     0.0034720089
    4      C      -2.0761544156    -0.0782450668    -0.0080364909
    5      H      -0.4990398075     1.1172925060     0.8957662478
    6      H      -0.4873302290     1.1332504218    -0.8675818925
    7      H       0.4058968146    -1.2200840907    -0.9082532042
    8      H       0.3944095390    -1.2373477265     0.9044997572
    9      H      -2.8060728508     0.7366137425    -0.0043306595
   10      H      -2.2554313821    -0.6849500546    -0.9015864345
   11      H      -2.2674157695    -0.7039419618     0.8697560138
 ----------------------------------------------------------------

    9   -2692.4217546191      7.00e-07  Convergence criterion met
 Total energy in the final basis set =    -2692.4217546191

                    Orbital Energies (a.u.)
 --------------------------------------------------------------

 Alpha MOs
 -- Occupied --
******* -62.490 -56.312 -56.308 -56.308 -10.266 -10.212 -10.202
 -8.676  -6.506  -6.494  -6.494  -2.599  -2.596  -2.596  -2.587
 -2.587  -0.817  -0.739  -0.686  -0.611  -0.496  -0.453  -0.423
 -0.412  -0.377  -0.360  -0.317  -0.265  -0.264

 Beta MOs
 -- Occupied --
******* -62.490 -56.312 -56.308 -56.308 -10.266 -10.212 -10.202
 -8.676  -6.506  -6.494  -6.494  -2.599  -2.596  -2.596  -2.587
 -2.587  -0.817  -0.739  -0.686  -0.611  -0.496  -0.453  -0.423
 -0.412  -0.377  -0.360  -0.317  -0.265  -0.264

          Ground-State Mulliken Net Atomic Charges

     Atom                 Charge (a.u.)    Spin (a.u.)
  --------------------------------------------------------
      1 Br                   -0.238341      -0.000000
      2 C                    -0.183708       0.000000
      3 C                    -0.202700       0.000000
      4 C                    -0.333490      -0.000000
      5 H                     0.134905      -0.000000
      6 H                     0.134955       0.000000
      7 H                     0.165612      -0.000000
      8 H                     0.165566       0.000000
      9 H                     0.125410       0.000000
     10 H                     0.115910       0.000000
     11 H                     0.115880       0.000000
  --------------------------------------------------------
  Sum of atomic charges =    -0.000000

                    Cartesian Multipole Moments
 -----------------------------------------------------------------
    Charge (ESU x 10^10)
                -0.0000
    Dipole Moment (Debye)
         X      -3.6030      Y      -0.8760      Z      -0.0294
       Tot       3.7080
    Quadrupole Moments (Debye-Ang)
        XX     -45.3880     XY      -0.7553     YY     -38.0443
        XZ      -0.0712     YZ      -0.0070     ZZ     -38.5935

 Final energy is   -2692.42175461907
 **  OPTIMIZATION CONVERGED  **
 Total job time:  18.29s(wall), 205.11s(cpu)
        *  Thank you very much for using Q-Chem.  Have a nice day.  *
