 Q-Chem 5.1, Q-Chem, Inc., Pleasanton, CA (2018)
 Q-Chem 5.1.1 for Intel X86 EM64T Linux

User input:
--------------------------------------------------------------

$comment
potential surface scanner
$end

$rem
JOBTYPE  PES_SCAN
UNRESTRICTED TRUE
SYM_IGNORE  TRUE
GEOM_OPT_MAX_CYCLES 400
SCF_MAX_CYCLES 400
METHOD   B3LYP
BASIS   6-31G**
PDB_PRINT 2
SCF_CONVERGENCE 6
THRESH 14
SCF_PRINT 1
$end
$molecule
0 1
Br 2.210600 0.183000 -0.010500
C -0.617000 0.498300 0.014000
C 0.429200 -0.601700 0.010200
C -2.022700 -0.079700 -0.013600
H -0.503100 1.127200 0.905100
H -0.483600 1.153700 -0.855200
H 0.357400 -1.232600 -0.880100
H 0.371000 -1.225900 0.906000
H -2.764000 0.725600 -0.009200
H -2.181500 -0.682500 -0.913600
H -2.203500 -0.712800 0.861000
$end
$scan
stre 1 3 1.200000 1.201000 0.100000
$end
--------------------------------------------------------------

    9   -2692.4353936127      6.13e-07  Convergence criterion met
 Total energy in the final basis set =    -2692.4353936127
    9   -2692.4224819729      5.81e-07  Convergence criterion met
 Total energy in the final basis set =    -2692.4224819729
    9   -2692.3828958847      5.83e-07  Convergence criterion met
 Total energy in the final basis set =    -2692.3828958847
    9   -2692.3110172864      6.27e-07  Convergence criterion met
 Total energy in the final basis set =    -2692.3110172864
    9   -2692.1997295066      6.79e-07  Convergence criterion met
 Total energy in the final basis set =    -2692.1997295066
    9   -2692.0175575849      7.29e-07  Convergence criterion met
 Total energy in the final basis set =    -2692.0175575849
    9   -2691.8042167592      9.33e-07  Convergence criterion met
 Total energy in the final basis set =    -2691.8042167592
   10   -2691.7453647104      5.40e-07  Convergence criterion met
   10   -2691.7314268387      6.77e-07  Convergence criterion met
 Total energy in the final basis set =    -2691.7314268387
   10   -2691.7314720467      6.82e-07  Convergence criterion met
 Total energy in the final basis set =    -2691.7314720467
   10   -2691.7314790128      6.82e-07  Convergence criterion met
 Total energy in the final basis set =    -2691.7314790128
   10   -2691.7314831689      6.82e-07  Convergence criterion met
 Total energy in the final basis set =    -2691.7314831689
   10   -2691.7314876336      6.83e-07  Convergence criterion met
 Total energy in the final basis set =    -2691.7314876336
   10   -2691.7314914353      6.83e-07  Convergence criterion met
 Total energy in the final basis set =    -2691.7314914353

             Standard Nuclear Orientation (Angstroms)
    I     Atom           X                Y                Z
 ----------------------------------------------------------------
    1      Br      1.8069349844    -0.0821696130     0.0085603146
    2      C      -0.5936358881     0.5612407182     0.0098310057
    3      C       0.6747580675    -0.4798786500     0.0065386447
    4      C      -1.9593672315    -0.1095627303    -0.0107916767
    5      H      -0.4650033949     1.1898324381     0.9022562811
    6      H      -0.4495963560     1.2139383609    -0.8627376365
    7      H       0.2659089094    -1.1419300187    -0.8255795479
    8      H       0.2646562436    -1.1468427758     0.8342333185
    9      H      -2.7653362102     0.6311507252    -0.0037622377
   10      H      -2.0872744003    -0.7268295826    -0.9070649873
   11      H      -2.0992447238    -0.7563488721     0.8626165215
 ----------------------------------------------------------------

   10   -2691.7314927778      6.84e-07  Convergence criterion met
 Total energy in the final basis set =    -2691.7314927778

                    Orbital Energies (a.u.)
 --------------------------------------------------------------

 Alpha MOs
 -- Occupied --
******* -62.533 -56.350 -56.349 -56.349 -10.238 -10.187 -10.179
 -8.742  -6.579  -6.556  -6.556  -2.683  -2.665  -2.665  -2.648
 -2.648  -1.026  -0.763  -0.637  -0.593  -0.536  -0.485  -0.455
 -0.431  -0.387  -0.363  -0.346  -0.224  -0.219

 Beta MOs
 -- Occupied --
******* -62.533 -56.350 -56.349 -56.349 -10.238 -10.187 -10.179
 -8.742  -6.579  -6.556  -6.556  -2.683  -2.665  -2.665  -2.648
 -2.648  -1.026  -0.763  -0.637  -0.593  -0.536  -0.485  -0.455
 -0.431  -0.387  -0.363  -0.346  -0.224  -0.219

          Ground-State Mulliken Net Atomic Charges

     Atom                 Charge (a.u.)    Spin (a.u.)
  --------------------------------------------------------
      1 Br                    0.195828      -0.000000
      2 C                    -0.235282      -0.000000
      3 C                    -0.291206       0.000000
      4 C                    -0.323738      -0.000000
      5 H                     0.101500       0.000000
      6 H                     0.101267       0.000000
      7 H                     0.062226      -0.000000
      8 H                     0.062217      -0.000000
      9 H                     0.110082       0.000000
     10 H                     0.108588       0.000000
     11 H                     0.108518       0.000000
  --------------------------------------------------------
  Sum of atomic charges =     0.000000

                    Cartesian Multipole Moments
 -----------------------------------------------------------------
    Charge (ESU x 10^10)
                -0.0000
    Dipole Moment (Debye)
         X      -1.0705      Y      -0.3607      Z      -0.0021
       Tot       1.1297
    Quadrupole Moments (Debye-Ang)
        XX     -40.8794     XY      -0.6540     YY     -38.2872
        XZ      -0.0147     YZ      -0.0061     ZZ     -37.9854

 Final energy is   -2691.73149277780
 **  OPTIMIZATION CONVERGED  **
 Total job time:  68.57s(wall), 794.98s(cpu)
        *  Thank you very much for using Q-Chem.  Have a nice day.  *
