 Q-Chem 5.1, Q-Chem, Inc., Pleasanton, CA (2018)
 Q-Chem 5.1.1 for Intel X86 EM64T Linux

User input:
--------------------------------------------------------------

$comment
potential surface scanner
$end

$rem
JOBTYPE  PES_SCAN
UNRESTRICTED TRUE
SYM_IGNORE  TRUE
GEOM_OPT_MAX_CYCLES 400
SCF_MAX_CYCLES 400
METHOD   B3LYP
BASIS   6-31G**
PDB_PRINT 2
SCF_CONVERGENCE 6
THRESH 14
SCF_PRINT 1
$end
$molecule
0 3
Br 4.448890 -0.062817 0.012626
C -0.934980 0.487481 0.007922
C 0.172524 -0.512971 0.005083
C -2.341805 -0.157239 -0.009055
H -0.856533 1.129032 0.895157
H -0.844585 1.147220 -0.864937
H 0.517748 -0.956967 -0.923852
H 0.522316 -0.958668 0.931432
H -3.122701 0.611237 -0.007037
H -2.477524 -0.777733 -0.900557
H -2.490562 -0.795974 0.867317
$end
$scan
stre 1 3 4.200000 4.201000 0.100000
$end
--------------------------------------------------------------

   28   -2692.3215065291      2.83e-07  Convergence criterion met
 Total energy in the final basis set =    -2692.3215065291
   24   -2692.3213863512      4.56e-07  Convergence criterion met
 Total energy in the final basis set =    -2692.3213863512
   24   -2692.3214774352      9.26e-07  Convergence criterion met
 Total energy in the final basis set =    -2692.3214774352
   26   -2692.3215543700      8.61e-07  Convergence criterion met
 Total energy in the final basis set =    -2692.3215543700
   26   -2692.3215585356      9.51e-07  Convergence criterion met
 Total energy in the final basis set =    -2692.3215585356

             Standard Nuclear Orientation (Angstroms)
    I     Atom           X                Y                Z
 ----------------------------------------------------------------
    1      Br      4.3500562899    -0.0213433996     0.0124596269
    2      C      -0.9181996753     0.4842498505     0.0078912464
    3      C       0.1804808965    -0.5259105527     0.0051045413
    4      C      -2.3296843390    -0.1502609678    -0.0089934845
    5      H      -0.8343685083     1.1249418045     0.8951857641
    6      H      -0.8223188287     1.1428532528    -0.8651628938
    7      H       0.5103264861    -0.9829059874    -0.9232996253
    8      H       0.5145465672    -0.9849033195     0.9309397326
    9      H      -3.1052477436     0.6235925850    -0.0068907920
   10      H      -2.4698765430    -0.7697536803    -0.9005159127
   11      H      -2.4829266018    -0.7879585854     0.8673807969
 ----------------------------------------------------------------

   26   -2692.3215593755      9.50e-07  Convergence criterion met
 Total energy in the final basis set =    -2692.3215593755

                    Orbital Energies (a.u.)
 --------------------------------------------------------------

 Alpha MOs
 -- Occupied --
******* -62.554 -56.379 -56.371 -56.371 -10.189 -10.187 -10.178
 -8.741  -6.578  -6.556  -6.556  -2.669  -2.663  -2.663  -2.647
 -2.647  -0.794  -0.781  -0.674  -0.581  -0.463  -0.428  -0.394
 -0.380  -0.368  -0.350  -0.334  -0.320  -0.320  -0.202

 Beta MOs
 -- Occupied --
******* -62.553 -56.373 -56.370 -56.370 -10.188 -10.176 -10.175
 -8.737  -6.567  -6.554  -6.554  -2.661  -2.657  -2.657  -2.646
 -2.646  -0.770  -0.750  -0.656  -0.567  -0.459  -0.423  -0.389
 -0.368  -0.345  -0.331  -0.306  -0.306

          Ground-State Mulliken Net Atomic Charges

     Atom                 Charge (a.u.)    Spin (a.u.)
  --------------------------------------------------------
      1 Br                   -0.004105       1.002031
      2 C                    -0.189989      -0.073007
      3 C                    -0.227888       1.076652
      4 C                    -0.307397       0.050160
      5 H                     0.103732       0.012256
      6 H                     0.103941       0.013401
      7 H                     0.103438      -0.046980
      8 H                     0.103636      -0.047021
      9 H                     0.102124       0.013661
     10 H                     0.106206      -0.000619
     11 H                     0.106303      -0.000533
  --------------------------------------------------------
  Sum of atomic charges =    -0.000000

                    Cartesian Multipole Moments
 -----------------------------------------------------------------
    Charge (ESU x 10^10)
                -0.0000
    Dipole Moment (Debye)
         X      -0.3962      Y       0.0242      Z       0.0003
       Tot       0.3969
    Quadrupole Moments (Debye-Ang)
        XX     -37.5983     XY      -0.4747     YY     -39.6818
        XZ       0.0079     YZ      -0.0031     ZZ     -38.8199

 Final energy is   -2692.32155937555
 **  OPTIMIZATION CONVERGED  **
 Total job time:  39.43s(wall), 459.67s(cpu)
        *  Thank you very much for using Q-Chem.  Have a nice day.  *
