 Q-Chem 5.1, Q-Chem, Inc., Pleasanton, CA (2018)
 Q-Chem 5.1.1 for Intel X86 EM64T Linux

User input:
--------------------------------------------------------------

$comment
potential surface scanner
$end

$rem
JOBTYPE  PES_SCAN
UNRESTRICTED TRUE
SYM_IGNORE  TRUE
GEOM_OPT_MAX_CYCLES 400
SCF_MAX_CYCLES 400
METHOD   B3LYP
BASIS   6-31G**
PDB_PRINT 2
SCF_CONVERGENCE 6
THRESH 14
SCF_PRINT 1
$end
$molecule
0 3
Br 4.865641 -0.634880 -0.008217
C -1.062787 0.573660 0.014255
C 0.181478 -0.250088 0.015300
C -2.359431 -0.270467 -0.016115
H -1.087359 1.216529 0.903705
H -1.066693 1.244172 -0.855664
H 0.581814 -0.650015 -0.911049
H 0.602516 -0.622658 0.943640
H -3.245015 0.374827 -0.018096
H -2.396878 -0.900458 -0.910642
H -2.420493 -0.928022 0.856982
$end
$scan
stre 1 3 4.600000 4.601000 0.100000
$end
--------------------------------------------------------------

   10   -2692.3207260770      9.11e-07  Convergence criterion met
 Total energy in the final basis set =    -2692.3207260770
   12   -2692.3202105573      9.87e-07  Convergence criterion met
 Total energy in the final basis set =    -2692.3202105573
   26   -2692.3204850386      9.18e-08  Convergence criterion met
 Total energy in the final basis set =    -2692.3204850386
   33   -2692.3206581898      7.76e-07  Convergence criterion met
 Total energy in the final basis set =    -2692.3206581898
   42   -2692.3206844083      3.01e-07  Convergence criterion met
 Total energy in the final basis set =    -2692.3206844083
   40   -2692.3210065953      1.19e-07  Convergence criterion met
 Total energy in the final basis set =    -2692.3210065953
   35   -2692.3210089097      8.07e-07  Convergence criterion met
 Total energy in the final basis set =    -2692.3210089097
   34   -2692.3210122034      7.26e-07  Convergence criterion met
   23   -2692.3212670496      4.80e-07  Convergence criterion met
 Total energy in the final basis set =    -2692.3212670496
   23   -2692.3212820650      5.48e-07  Convergence criterion met
 Total energy in the final basis set =    -2692.3212820650
   23   -2692.3212948020      5.65e-07  Convergence criterion met
 Total energy in the final basis set =    -2692.3212948020
   23   -2692.3213130817      4.34e-07  Convergence criterion met
 Total energy in the final basis set =    -2692.3213130817
   22   -2692.3213294642      9.78e-07  Convergence criterion met
 Total energy in the final basis set =    -2692.3213294642
   25   -2692.3213378912      9.25e-07  Convergence criterion met
 Total energy in the final basis set =    -2692.3213378912

             Standard Nuclear Orientation (Angstroms)
    I     Atom           X                Y                Z
 ----------------------------------------------------------------
    1      Br      4.7212921463    -0.0429089333     0.0234145695
    2      C      -0.9605156284     0.4857657944     0.0060222254
    3      C       0.1457505951    -0.5160995324     0.0007598411
    4      C      -2.3684111143    -0.1566152783    -0.0072517102
    5      H      -0.8788295432     1.1277435197     0.8926443659
    6      H      -0.8714346162     1.1450230188    -0.8673884316
    7      H       0.4815143950    -0.9675062621    -0.9280726801
    8      H       0.4950704910    -0.9642035103     0.9261023679
    9      H      -3.1480052790     0.6132206661    -0.0035430724
   10      H      -2.5074597852    -0.7770420139    -0.8982896307
   11      H      -2.5161786611    -0.7947774686     0.8697011550
 ----------------------------------------------------------------

   25   -2692.3213381436      2.18e-07  Convergence criterion met
 Total energy in the final basis set =    -2692.3213381436

                    Orbital Energies (a.u.)
 --------------------------------------------------------------

 Alpha MOs
 -- Occupied --
******* -62.555 -56.380 -56.372 -56.372 -10.188 -10.187 -10.177
 -8.743  -6.579  -6.557  -6.557  -2.670  -2.665  -2.665  -2.648
 -2.648  -0.795  -0.780  -0.674  -0.580  -0.462  -0.428  -0.393
 -0.379  -0.369  -0.349  -0.333  -0.321  -0.321  -0.201

 Beta MOs
 -- Occupied --
******* -62.554 -56.374 -56.371 -56.371 -10.187 -10.176 -10.174
 -8.739  -6.569  -6.555  -6.555  -2.662  -2.659  -2.659  -2.647
 -2.647  -0.769  -0.752  -0.655  -0.566  -0.458  -0.422  -0.388
 -0.367  -0.344  -0.331  -0.307  -0.307

          Ground-State Mulliken Net Atomic Charges

     Atom                 Charge (a.u.)    Spin (a.u.)
  --------------------------------------------------------
      1 Br                   -0.001609       1.000872
      2 C                    -0.189387      -0.073711
      3 C                    -0.226118       1.079181
      4 C                    -0.307107       0.050013
      5 H                     0.103045       0.012233
      6 H                     0.103275       0.013698
      7 H                     0.102001      -0.047355
      8 H                     0.102330      -0.047399
      9 H                     0.101617       0.013586
     10 H                     0.105908      -0.000614
     11 H                     0.106047      -0.000504
  --------------------------------------------------------
  Sum of atomic charges =    -0.000000

                    Cartesian Multipole Moments
 -----------------------------------------------------------------
    Charge (ESU x 10^10)
                 0.0000
    Dipole Moment (Debye)
         X      -0.3273      Y       0.0307      Z       0.0018
       Tot       0.3288
    Quadrupole Moments (Debye-Ang)
        XX     -37.4175     XY      -0.5255     YY     -39.7228
        XZ       0.0640     YZ       0.0019     ZZ     -38.8258

 Final energy is   -2692.32133814365
 **  OPTIMIZATION CONVERGED  **
 Total job time:  110.05s(wall), 1286.35s(cpu)
        *  Thank you very much for using Q-Chem.  Have a nice day.  *
