 Q-Chem 5.1, Q-Chem, Inc., Pleasanton, CA (2018)
 Q-Chem 5.1.1 for Intel X86 EM64T Linux

User input:
--------------------------------------------------------------

$comment
potential surface scanner
$end

$rem
JOBTYPE  PES_SCAN
UNRESTRICTED TRUE
SYM_IGNORE  TRUE
GEOM_OPT_MAX_CYCLES 400
SCF_MAX_CYCLES 400
METHOD   B3LYP
BASIS   6-31G**
PDB_PRINT 2
SCF_CONVERGENCE 6
THRESH 14
SCF_PRINT 1
$end
$molecule
0 3
Br 3.111207 0.639200 0.036332
C -0.718834 0.377420 -0.000735
C 0.237976 -0.768956 -0.004201
C -2.203084 -0.059163 -0.000551
H -0.544126 1.008103 0.881461
H -0.543307 1.013338 -0.878355
H 0.516123 -1.253144 -0.935144
H 0.473285 -1.293645 0.916618
H -2.866777 0.812905 0.004536
H -2.436183 -0.657695 -0.887076
H -2.433495 -0.665762 0.881219
$end
$scan
stre 1 3 3.100000 3.101000 0.100000
$end
--------------------------------------------------------------

   21   -2692.3174533986      4.75e-07  Convergence criterion met
 Total energy in the final basis set =    -2692.3174533986
   27   -2692.3160423756      8.86e-07  Convergence criterion met
 Total energy in the final basis set =    -2692.3160423756
   23   -2692.3162099076      4.81e-07  Convergence criterion met
 Total energy in the final basis set =    -2692.3162099076
   24   -2692.3162459487      8.23e-07  Convergence criterion met
 Total energy in the final basis set =    -2692.3162459487
   27   -2692.3162528724      5.83e-07  Convergence criterion met
 Total energy in the final basis set =    -2692.3162528724
   10   -2692.3162439760      9.92e-07  Convergence criterion met
 Total energy in the final basis set =    -2692.3162439760
   14   -2692.3162520926      9.61e-07  Convergence criterion met
 Total energy in the final basis set =    -2692.3162520926
   11   -2692.3162654514      9.26e-07  Convergence criterion met
 Total energy in the final basis set =    -2692.3162654514
   11   -2692.3162666779      9.28e-07  Convergence criterion met
 Total energy in the final basis set =    -2692.3162666779

             Standard Nuclear Orientation (Angstroms)
    I     Atom           X                Y                Z
 ----------------------------------------------------------------
    1      Br      3.1098355786     0.5089809675    -0.0043148886
    2      C      -0.7280359161     0.4052297294     0.0104449989
    3      C       0.2612042703    -0.7137737186     0.0088220996
    4      C      -2.1983914722    -0.0752874763    -0.0084516011
    5      H      -0.5800667538     1.0344081844     0.8981809733
    6      H      -0.5616339791     1.0536300207    -0.8597915310
    7      H       0.5162552026    -1.2186063016    -0.9192963629
    8      H       0.4865714153    -1.2486734427     0.9274866215
    9      H      -2.8885258221     0.7760671711    -0.0038468692
   10      H      -2.4047516720    -0.6740634480    -0.9015314801
   11      H      -2.4196758517    -0.6953106858     0.8664020395
 ----------------------------------------------------------------

   11   -2692.3162670354      9.26e-07  Convergence criterion met
 Total energy in the final basis set =    -2692.3162670354

                    Orbital Energies (a.u.)
 --------------------------------------------------------------

 Alpha MOs
 -- Occupied --
******* -62.552 -56.376 -56.369 -56.368 -10.183 -10.181 -10.174
 -8.739  -6.576  -6.554  -6.553  -2.666  -2.661  -2.661  -2.645
 -2.645  -0.793  -0.775  -0.669  -0.577  -0.458  -0.424  -0.389
 -0.377  -0.367  -0.346  -0.329  -0.320  -0.318  -0.188

 Beta MOs
 -- Occupied --
******* -62.550 -56.370 -56.367 -56.367 -10.183 -10.173 -10.167
 -8.735  -6.565  -6.552  -6.551  -2.658  -2.655  -2.655  -2.643
 -2.643  -0.766  -0.748  -0.651  -0.563  -0.454  -0.418  -0.383
 -0.365  -0.341  -0.327  -0.304  -0.302

          Ground-State Mulliken Net Atomic Charges

     Atom                 Charge (a.u.)    Spin (a.u.)
  --------------------------------------------------------
      1 Br                    0.005433       1.024321
      2 C                    -0.183837      -0.071099
      3 C                    -0.214880       1.049298
      4 C                    -0.308211       0.047507
      5 H                     0.099153       0.012937
      6 H                     0.100891       0.012241
      7 H                     0.096066      -0.044270
      8 H                     0.098353      -0.044400
      9 H                     0.099226       0.014712
     10 H                     0.103927      -0.000594
     11 H                     0.103880      -0.000654
  --------------------------------------------------------
  Sum of atomic charges =    -0.000000

                    Cartesian Multipole Moments
 -----------------------------------------------------------------
    Charge (ESU x 10^10)
                 0.0000
    Dipole Moment (Debye)
         X      -0.2677      Y      -0.0050      Z      -0.0007
       Tot       0.2678
    Quadrupole Moments (Debye-Ang)
        XX     -40.8860     XY      -0.6355     YY     -39.5337
        XZ      -0.1586     YZ       0.5500     ZZ     -36.2590

 Final energy is   -2692.31626703544
 **  OPTIMIZATION CONVERGED  **
 Total job time:  54.02s(wall), 620.48s(cpu)
        *  Thank you very much for using Q-Chem.  Have a nice day.  *
