 Q-Chem 5.1, Q-Chem, Inc., Pleasanton, CA (2018)
 Q-Chem 5.1.1 for Intel X86 EM64T Linux

User input:
--------------------------------------------------------------

$comment
potential surface scanner
$end

$rem
JOBTYPE  PES_SCAN
UNRESTRICTED TRUE
SYM_IGNORE  TRUE
GEOM_OPT_MAX_CYCLES 400
SCF_MAX_CYCLES 400
METHOD   B3LYP
BASIS   6-31G**
PDB_PRINT 2
SCF_CONVERGENCE 6
THRESH 14
SCF_PRINT 1
$end
$molecule
0 3
Br 4.953221 -0.700420 -0.010022
C -1.080220 0.585401 0.014707
C 0.177645 -0.217501 0.015777
C -2.361852 -0.281282 -0.016378
H -1.115763 1.227286 0.904412
H -1.095036 1.255794 -0.855098
H 0.577081 -0.619944 -0.910170
H 0.596352 -0.593712 0.944016
H -3.258529 0.348495 -0.019053
H -2.387834 -0.911865 -0.910905
H -2.412270 -0.939652 0.856812
$end
$scan
stre 1 3 4.700000 4.701000 0.100000
$end
--------------------------------------------------------------

   10   -2692.3207581871      8.43e-07  Convergence criterion met
 Total energy in the final basis set =    -2692.3207581871
   10   -2692.3201931157      9.04e-07  Convergence criterion met
 Total energy in the final basis set =    -2692.3201931157
   10   -2692.3205020321      8.46e-07  Convergence criterion met
 Total energy in the final basis set =    -2692.3205020321
   10   -2692.3206791718      7.62e-07  Convergence criterion met
 Total energy in the final basis set =    -2692.3206791718
   10   -2692.3207073011      7.60e-07  Convergence criterion met
 Total energy in the final basis set =    -2692.3207073011
   10   -2692.3207140568      7.77e-07  Convergence criterion met
 Total energy in the final basis set =    -2692.3207140568
   10   -2692.3207153614      7.84e-07  Convergence criterion met
 Total energy in the final basis set =    -2692.3207153614
   10   -2692.3207175538      8.02e-07  Convergence criterion met
 Total energy in the final basis set =    -2692.3207175538
   10   -2692.3207210754      8.43e-07  Convergence criterion met
 Total energy in the final basis set =    -2692.3207210754
   10   -2692.3207248030      8.94e-07  Convergence criterion met
 Total energy in the final basis set =    -2692.3207248030

             Standard Nuclear Orientation (Angstroms)
    I     Atom           X                Y                Z
 ----------------------------------------------------------------
    1      Br      4.8656412315    -0.6348802583    -0.0082165619
    2      C      -1.0627865811     0.5736599547     0.0142545584
    3      C       0.1814780636    -0.2500875147     0.0153001054
    4      C      -2.3594308304    -0.2704666459    -0.0161147902
    5      H      -1.0873587008     1.2165290560     0.9037047189
    6      H      -1.0666925699     1.2441720022    -0.8556641767
    7      H       0.5818142447    -0.6500152222    -0.9110493526
    8      H       0.6025157371    -0.6226584533     0.9436395463
    9      H      -3.2450148051     0.3748271579    -0.0180957592
   10      H      -2.3968780183    -0.9004576020    -0.9106418550
   11      H      -2.4204927714    -0.9280224744     0.8569815666
 ----------------------------------------------------------------

   10   -2692.3207260773      9.11e-07  Convergence criterion met
 Total energy in the final basis set =    -2692.3207260773

                    Orbital Energies (a.u.)
 --------------------------------------------------------------

 Alpha MOs
 -- Occupied --
******* -62.557 -56.381 -56.373 -56.373 -10.184 -10.184 -10.175
 -8.744  -6.581  -6.558  -6.558  -2.671  -2.666  -2.666  -2.649
 -2.649  -0.796  -0.777  -0.671  -0.577  -0.460  -0.425  -0.391
 -0.376  -0.371  -0.347  -0.330  -0.322  -0.322  -0.197

 Beta MOs
 -- Occupied --
******* -62.555 -56.375 -56.372 -56.372 -10.185 -10.174 -10.170
 -8.740  -6.570  -6.557  -6.557  -2.663  -2.660  -2.660  -2.648
 -2.648  -0.767  -0.753  -0.652  -0.563  -0.455  -0.420  -0.385
 -0.365  -0.342  -0.328  -0.308  -0.308

          Ground-State Mulliken Net Atomic Charges

     Atom                 Charge (a.u.)    Spin (a.u.)
  --------------------------------------------------------
      1 Br                   -0.000364       1.000460
      2 C                    -0.189313      -0.073964
      3 C                    -0.219892       1.080218
      4 C                    -0.307136       0.049777
      5 H                     0.101609       0.011460
      6 H                     0.102259       0.014876
      7 H                     0.100925      -0.047664
      8 H                     0.101437      -0.047781
      9 H                     0.100337       0.013662
     10 H                     0.104939      -0.000651
     11 H                     0.105199      -0.000393
  --------------------------------------------------------
  Sum of atomic charges =     0.000000

                    Cartesian Multipole Moments
 -----------------------------------------------------------------
    Charge (ESU x 10^10)
                 0.0000
    Dipole Moment (Debye)
         X      -0.2320      Y       0.0040      Z       0.0022
       Tot       0.2320
    Quadrupole Moments (Debye-Ang)
        XX     -39.6479     XY       0.2260     YY     -37.4389
        XZ      -0.0141     YZ      -0.0519     ZZ     -38.8356

 Final energy is   -2692.32072607725
 **  OPTIMIZATION CONVERGED  **
 Total job time:  36.63s(wall), 417.94s(cpu)
        *  Thank you very much for using Q-Chem.  Have a nice day.  *
