 Q-Chem 5.1, Q-Chem, Inc., Pleasanton, CA (2018)
 Q-Chem 5.1.1 for Intel X86 EM64T Linux

User input:
--------------------------------------------------------------

$comment
potential surface scanner
$end

$rem
JOBTYPE  PES_SCAN
UNRESTRICTED TRUE
SYM_IGNORE  TRUE
GEOM_OPT_MAX_CYCLES 400
SCF_MAX_CYCLES 400
METHOD   B3LYP
BASIS   6-31G**
PDB_PRINT 2
SCF_CONVERGENCE 6
THRESH 14
SCF_PRINT 1
$end
$molecule
0 3
Br 3.810385 -0.062998 0.009313
C -0.868694 0.490119 0.007455
C 0.238420 -0.511388 0.006225
C -2.275288 -0.155087 -0.008521
H -0.790683 1.133011 0.893962
H -0.778226 1.149003 -0.866078
H 0.578112 -0.959985 -0.921909
H 0.570493 -0.971477 0.931456
H -3.057949 0.611808 -0.006746
H -2.410726 -0.776771 -0.899364
H -2.423059 -0.793635 0.868307
$end
$scan
stre 1 3 3.500000 3.501000 0.100000
$end
--------------------------------------------------------------

   25   -2692.3201075065      4.21e-08  Convergence criterion met
 Total energy in the final basis set =    -2692.3201075065
   25   -2692.3195285436      7.83e-07  Convergence criterion met
 Total energy in the final basis set =    -2692.3195285436
   24   -2692.3195864878      7.12e-07  Convergence criterion met
 Total energy in the final basis set =    -2692.3195864878
   25   -2692.3196433231      1.72e-07  Convergence criterion met
 Total energy in the final basis set =    -2692.3196433231
   23   -2692.3196444954      5.01e-07  Convergence criterion met
 Total energy in the final basis set =    -2692.3196444954

             Standard Nuclear Orientation (Angstroms)
    I     Atom           X                Y                Z
 ----------------------------------------------------------------
    1      Br      3.7101688206    -0.0207681286     0.0099168096
    2      C      -0.8524909870     0.4860131803     0.0073105519
    3      C       0.2465769107    -0.5242723266     0.0060005776
    4      C      -2.2636540735    -0.1492730379    -0.0083482087
    5      H      -0.7695177868     1.1283137832     0.8938111708
    6      H      -0.7571556203     1.1440918559    -0.8663151601
    7      H       0.5732266821    -0.9828470077    -0.9219193950
    8      H       0.5657885457    -0.9944736238     0.9306565450
    9      H      -3.0412643814     0.6227530846    -0.0065652966
   10      H      -2.4033696513    -0.7702276442    -0.8990559332
   11      H      -2.4155234588    -0.7867101354     0.8686083388
 ----------------------------------------------------------------

   24   -2692.3196453120      3.85e-07  Convergence criterion met
 Total energy in the final basis set =    -2692.3196453120

                    Orbital Energies (a.u.)
 --------------------------------------------------------------

 Alpha MOs
 -- Occupied --
******* -62.553 -56.377 -56.369 -56.369 -10.184 -10.182 -10.175
 -8.740  -6.577  -6.554  -6.554  -2.667  -2.662  -2.662  -2.646
 -2.646  -0.793  -0.777  -0.670  -0.577  -0.459  -0.425  -0.390
 -0.376  -0.368  -0.347  -0.330  -0.319  -0.318  -0.194

 Beta MOs
 -- Occupied --
******* -62.551 -56.371 -56.368 -56.368 -10.185 -10.174 -10.169
 -8.736  -6.566  -6.553  -6.552  -2.660  -2.656  -2.656  -2.644
 -2.644  -0.767  -0.749  -0.652  -0.563  -0.455  -0.419  -0.385
 -0.365  -0.342  -0.328  -0.305  -0.303

          Ground-State Mulliken Net Atomic Charges

     Atom                 Charge (a.u.)    Spin (a.u.)
  --------------------------------------------------------
      1 Br                   -0.003373       1.011012
      2 C                    -0.192628      -0.072257
      3 C                    -0.210676       1.065831
      4 C                    -0.307285       0.050104
      5 H                     0.101202       0.012484
      6 H                     0.101517       0.012828
      7 H                     0.100344      -0.046630
      8 H                     0.101035      -0.046597
      9 H                     0.099987       0.014430
     10 H                     0.104923      -0.000616
     11 H                     0.104955      -0.000589
  --------------------------------------------------------
  Sum of atomic charges =     0.000000

                    Cartesian Multipole Moments
 -----------------------------------------------------------------
    Charge (ESU x 10^10)
                 0.0000
    Dipole Moment (Debye)
         X      -0.3100      Y       0.0001      Z      -0.0004
       Tot       0.3100
    Quadrupole Moments (Debye-Ang)
        XX     -40.6422     XY      -0.8712     YY     -36.9695
        XZ      -0.0364     YZ       0.2177     ZZ     -38.8440

 Final energy is   -2692.31964531200
 **  OPTIMIZATION CONVERGED  **
 Total job time:  40.77s(wall), 456.06s(cpu)
        *  Thank you very much for using Q-Chem.  Have a nice day.  *
