 Q-Chem 5.1, Q-Chem, Inc., Pleasanton, CA (2018)
 Q-Chem 5.1.1 for Intel X86 EM64T Linux

User input:
--------------------------------------------------------------

$comment
potential surface scanner
$end

$rem
JOBTYPE  PES_SCAN
UNRESTRICTED TRUE
SYM_IGNORE  TRUE
GEOM_OPT_MAX_CYCLES 400
SCF_MAX_CYCLES 400
METHOD   B3LYP
BASIS   6-31G**
PDB_PRINT 2
SCF_CONVERGENCE 6
THRESH 14
SCF_PRINT 1
$end
$molecule
0 3
Br 5.462850 -0.988935 -0.004066
C -1.169291 0.622850 0.014251
C 0.136729 -0.098880 0.011579
C -2.393942 -0.323098 -0.014136
H -1.243338 1.260609 0.904531
H -1.228921 1.291191 -0.855032
H 0.563074 -0.468406 -0.916195
H 0.576908 -0.455740 0.937676
H -3.328021 0.249725 -0.015033
H -2.381903 -0.953777 -0.908802
H -2.401348 -0.982940 0.859322
$end
$scan
stre 1 3 5.300000 5.301000 0.100000
$end
--------------------------------------------------------------

   11   -2692.3208038957      6.94e-07  Convergence criterion met
 Total energy in the final basis set =    -2692.3208038957
   11   -2692.3201124843      7.79e-07  Convergence criterion met
 Total energy in the final basis set =    -2692.3201124843
   11   -2692.3205328655      7.84e-07  Convergence criterion met
 Total energy in the final basis set =    -2692.3205328655
   11   -2692.3207530967      7.68e-07  Convergence criterion met
 Total energy in the final basis set =    -2692.3207530967
   11   -2692.3207873305      7.50e-07  Convergence criterion met
 Total energy in the final basis set =    -2692.3207873305
   11   -2692.3207946108      7.36e-07  Convergence criterion met
 Total energy in the final basis set =    -2692.3207946108

             Standard Nuclear Orientation (Angstroms)
    I     Atom           X                Y                Z
 ----------------------------------------------------------------
    1      Br      5.3796142907    -0.9410025098    -0.0043676323
    2      C      -1.1546235861     0.6169012609     0.0142110309
    3      C       0.1439003435    -0.1181778234     0.0118529235
    4      C      -2.3889838818    -0.3162271723    -0.0142577257
    5      H      -1.2221385365     1.2555515062     0.9043782879
    6      H      -1.2070927601     1.2857513861    -0.8551663805
    7      H       0.5660020614    -0.4934351750    -0.9155721091
    8      H       0.5801107824    -0.4799419265     0.9379407194
    9      H      -3.3170857303     0.2662310691    -0.0153456150
   10      H      -2.3834727276    -0.9471519742    -0.9088315589
   11      H      -2.4034332556    -0.9758996411     0.8592530599
 ----------------------------------------------------------------

   11   -2692.3207953755      7.31e-07  Convergence criterion met
 Total energy in the final basis set =    -2692.3207953755

                    Orbital Energies (a.u.)
 --------------------------------------------------------------

 Alpha MOs
 -- Occupied --
******* -62.557 -56.381 -56.374 -56.374 -10.186 -10.185 -10.177
 -8.744  -6.581  -6.559  -6.559  -2.672  -2.666  -2.666  -2.650
 -2.650  -0.797  -0.779  -0.672  -0.579  -0.461  -0.426  -0.392
 -0.378  -0.371  -0.348  -0.332  -0.323  -0.322  -0.199

 Beta MOs
 -- Occupied --
******* -62.556 -56.376 -56.373 -56.373 -10.186 -10.175 -10.172
 -8.740  -6.570  -6.557  -6.557  -2.664  -2.660  -2.660  -2.649
 -2.649  -0.768  -0.753  -0.654  -0.565  -0.457  -0.421  -0.387
 -0.366  -0.343  -0.329  -0.309  -0.308

          Ground-State Mulliken Net Atomic Charges

     Atom                 Charge (a.u.)    Spin (a.u.)
  --------------------------------------------------------
      1 Br                   -0.000108       0.999977
      2 C                    -0.188975      -0.073828
      3 C                    -0.220359       1.080109
      4 C                    -0.307524       0.050141
      5 H                     0.102444       0.011660
      6 H                     0.102985       0.014289
      7 H                     0.099694      -0.047415
      8 H                     0.099929      -0.047504
      9 H                     0.101127       0.013711
     10 H                     0.105299      -0.000670
     11 H                     0.105488      -0.000470
  --------------------------------------------------------
  Sum of atomic charges =     0.000000

                    Cartesian Multipole Moments
 -----------------------------------------------------------------
    Charge (ESU x 10^10)
                 0.0000
    Dipole Moment (Debye)
         X      -0.2723      Y      -0.0166      Z       0.0011
       Tot       0.2729
    Quadrupole Moments (Debye-Ang)
        XX     -37.2910     XY       0.2423     YY     -39.7004
        XZ      -0.0725     YZ      -0.0239     ZZ     -38.8386

 Final energy is   -2692.32079537550
 **  OPTIMIZATION CONVERGED  **
 Total job time:  23.40s(wall), 269.86s(cpu)
        *  Thank you very much for using Q-Chem.  Have a nice day.  *
