 Q-Chem 5.1, Q-Chem, Inc., Pleasanton, CA (2018)
 Q-Chem 5.1.1 for Intel X86 EM64T Linux

User input:
--------------------------------------------------------------

$comment
potential surface scanner
$end

$rem
JOBTYPE  PES_SCAN
UNRESTRICTED TRUE
SYM_IGNORE  TRUE
GEOM_OPT_MAX_CYCLES 400
SCF_MAX_CYCLES 400
METHOD   B3LYP
BASIS   6-31G**
PDB_PRINT 2
SCF_CONVERGENCE 6
THRESH 14
SCF_PRINT 1
$end
$molecule
0 1
Br 2.210600 0.183000 -0.010500
C -0.617000 0.498300 0.014000
C 0.429200 -0.601700 0.010200
C -2.022700 -0.079700 -0.013600
H -0.503100 1.127200 0.905100
H -0.483600 1.153700 -0.855200
H 0.357400 -1.232600 -0.880100
H 0.371000 -1.225900 0.906000
H -2.764000 0.725600 -0.009200
H -2.181500 -0.682500 -0.913600
H -2.203500 -0.712800 0.861000
$end
$scan
stre 1 3 1.600000 1.601000 0.100000
$end
--------------------------------------------------------------

    9   -2692.4353936127      6.13e-07  Convergence criterion met
 Total energy in the final basis set =    -2692.4353936127
    9   -2692.4224819729      5.81e-07  Convergence criterion met
 Total energy in the final basis set =    -2692.4224819729
    9   -2692.3828958847      5.83e-07  Convergence criterion met
 Total energy in the final basis set =    -2692.3828958847
    9   -2692.3631375082      6.20e-07  Convergence criterion met
 Total energy in the final basis set =    -2692.3631375082
    9   -2692.3638661604      6.61e-07  Convergence criterion met
 Total energy in the final basis set =    -2692.3638661604
    9   -2692.3642181193      7.04e-07  Convergence criterion met
 Total energy in the final basis set =    -2692.3642181193
    9   -2692.3642450192      7.08e-07  Convergence criterion met
 Total energy in the final basis set =    -2692.3642450192

             Standard Nuclear Orientation (Angstroms)
    I     Atom           X                Y                Z
 ----------------------------------------------------------------
    1      Br      2.0322468106     0.0297790807    -0.0026737428
    2      C      -0.6015163151     0.5333765000     0.0120678398
    3      C       0.5333196004    -0.5297807738     0.0078135321
    4      C      -1.9947921225    -0.0963448972    -0.0123214463
    5      H      -0.4834818925     1.1655560693     0.9011156144
    6      H      -0.4654739428     1.1916723207    -0.8551118080
    7      H       0.3165135719    -1.1837437573    -0.8509694051
    8      H       0.3260442242    -1.1806961828     0.8711750450
    9      H      -2.7735982911     0.6720658735    -0.0067940533
   10      H      -2.1391494150    -0.7089072426    -0.9094868641
   11      H      -2.1573122281    -0.7403769904     0.8592852883
 ----------------------------------------------------------------

    9   -2692.3642570546      7.11e-07  Convergence criterion met
 Total energy in the final basis set =    -2692.3642570546

                    Orbital Energies (a.u.)
 --------------------------------------------------------------

 Alpha MOs
 -- Occupied --
******* -62.513 -56.333 -56.330 -56.330 -10.219 -10.193 -10.183
 -8.704  -6.534  -6.521  -6.521  -2.630  -2.624  -2.624  -2.614
 -2.614  -0.897  -0.767  -0.651  -0.595  -0.487  -0.450  -0.434
 -0.416  -0.374  -0.358  -0.345  -0.263  -0.262

 Beta MOs
 -- Occupied --
******* -62.513 -56.333 -56.330 -56.330 -10.219 -10.193 -10.183
 -8.704  -6.534  -6.521  -6.521  -2.630  -2.624  -2.624  -2.614
 -2.614  -0.897  -0.767  -0.651  -0.595  -0.487  -0.450  -0.434
 -0.416  -0.374  -0.358  -0.345  -0.263  -0.262

          Ground-State Mulliken Net Atomic Charges

     Atom                 Charge (a.u.)    Spin (a.u.)
  --------------------------------------------------------
      1 Br                   -0.059266       0.000000
      2 C                    -0.196166       0.000000
      3 C                    -0.212915      -0.000000
      4 C                    -0.325814      -0.000000
      5 H                     0.110939       0.000000
      6 H                     0.111200      -0.000000
      7 H                     0.123211       0.000000
      8 H                     0.123563       0.000000
      9 H                     0.110994      -0.000000
     10 H                     0.107209      -0.000000
     11 H                     0.107044       0.000000
  --------------------------------------------------------
  Sum of atomic charges =    -0.000000

                    Cartesian Multipole Moments
 -----------------------------------------------------------------
    Charge (ESU x 10^10)
                 0.0000
    Dipole Moment (Debye)
         X      -1.5350      Y      -0.4366      Z       0.0087
       Tot       1.5959
    Quadrupole Moments (Debye-Ang)
        XX     -41.2202     XY      -0.2042     YY     -38.2927
        XZ      -0.0042     YZ      -0.0118     ZZ     -38.3823

 Final energy is   -2692.36425705461
 **  OPTIMIZATION CONVERGED  **
 Total job time:  35.54s(wall), 336.94s(cpu)
        *  Thank you very much for using Q-Chem.  Have a nice day.  *
