 Q-Chem 5.1, Q-Chem, Inc., Pleasanton, CA (2018)
 Q-Chem 5.1.1 for Intel X86 EM64T Linux

User input:
--------------------------------------------------------------

$comment
potential surface scanner
$end

$rem
JOBTYPE  PES_SCAN
UNRESTRICTED TRUE
SYM_IGNORE  TRUE
GEOM_OPT_MAX_CYCLES 400
SCF_MAX_CYCLES 400
METHOD   B3LYP
BASIS   6-31G**
PDB_PRINT 2
SCF_CONVERGENCE 6
THRESH 14
SCF_PRINT 1
$end
$molecule
0 3
Br 3.909442 -0.106527 0.009242
C -0.885037 0.493740 0.007466
C 0.230273 -0.498582 0.006261
C -2.287146 -0.161006 -0.008585
H -0.811900 1.137221 0.893972
H -0.799515 1.153326 -0.866049
H 0.584211 -0.935473 -0.922096
H 0.576429 -0.947148 0.931949
H -3.074590 0.600967 -0.006765
H -2.418563 -0.783413 -0.899496
H -2.430819 -0.800505 0.868202
$end
$scan
stre 1 3 3.600000 3.601000 0.100000
$end
--------------------------------------------------------------

   24   -2692.3204289349      4.47e-08  Convergence criterion met
 Total energy in the final basis set =    -2692.3204289349
   24   -2692.3199598539      2.39e-07  Convergence criterion met
 Total energy in the final basis set =    -2692.3199598539
   23   -2692.3200365937      8.47e-07  Convergence criterion met
 Total energy in the final basis set =    -2692.3200365937
   26   -2692.3201047443      4.23e-07  Convergence criterion met
 Total energy in the final basis set =    -2692.3201047443
   25   -2692.3201070669      2.37e-07  Convergence criterion met
 Total energy in the final basis set =    -2692.3201070669

             Standard Nuclear Orientation (Angstroms)
    I     Atom           X                Y                Z
 ----------------------------------------------------------------
    1      Br      3.8103854519    -0.0629980019     0.0093131965
    2      C      -0.8686939506     0.4901187456     0.0074547899
    3      C       0.2384198800    -0.5113877234     0.0062251700
    4      C      -2.2752883167    -0.1550871868    -0.0085213778
    5      H      -0.7906833843     1.1330106303     0.8939618526
    6      H      -0.7782255240     1.1490029464    -0.8660776637
    7      H       0.5781115367    -0.9599847414    -0.9219094788
    8      H       0.5704932893    -0.9714765523     0.9314564921
    9      H      -3.0579491070     0.6118082614    -0.0067455621
   10      H      -2.4107261343    -0.7767713978    -0.8993638440
   11      H      -2.4230587411    -0.7936349800     0.8683074253
 ----------------------------------------------------------------

   25   -2692.3201075085      4.21e-08  Convergence criterion met
 Total energy in the final basis set =    -2692.3201075085

                    Orbital Energies (a.u.)
 --------------------------------------------------------------

 Alpha MOs
 -- Occupied --
******* -62.553 -56.378 -56.370 -56.370 -10.184 -10.183 -10.175
 -8.740  -6.577  -6.555  -6.555  -2.668  -2.662  -2.662  -2.646
 -2.646  -0.794  -0.777  -0.670  -0.577  -0.459  -0.425  -0.390
 -0.376  -0.368  -0.347  -0.330  -0.319  -0.319  -0.194

 Beta MOs
 -- Occupied --
******* -62.552 -56.372 -56.369 -56.369 -10.185 -10.174 -10.169
 -8.736  -6.566  -6.553  -6.553  -2.660  -2.656  -2.656  -2.645
 -2.645  -0.767  -0.750  -0.652  -0.563  -0.455  -0.419  -0.385
 -0.365  -0.342  -0.328  -0.305  -0.304

          Ground-State Mulliken Net Atomic Charges

     Atom                 Charge (a.u.)    Spin (a.u.)
  --------------------------------------------------------
      1 Br                   -0.003624       1.009046
      2 C                    -0.192248      -0.072711
      3 C                    -0.211936       1.069002
      4 C                    -0.307229       0.049945
      5 H                     0.101444       0.012633
      6 H                     0.101632       0.012994
      7 H                     0.100789      -0.047005
      8 H                     0.101169      -0.046990
      9 H                     0.100019       0.014223
     10 H                     0.104976      -0.000582
     11 H                     0.105007      -0.000555
  --------------------------------------------------------
  Sum of atomic charges =     0.000000

                    Cartesian Multipole Moments
 -----------------------------------------------------------------
    Charge (ESU x 10^10)
                 0.0000
    Dipole Moment (Debye)
         X      -0.2975      Y       0.0103      Z      -0.0004
       Tot       0.2977
    Quadrupole Moments (Debye-Ang)
        XX     -40.5823     XY      -0.7570     YY     -36.9573
        XZ      -0.0209     YZ       0.1280     ZZ     -38.8485

 Final energy is   -2692.32010750854
 **  OPTIMIZATION CONVERGED  **
 Total job time:  39.64s(wall), 456.41s(cpu)
        *  Thank you very much for using Q-Chem.  Have a nice day.  *
