 Q-Chem 5.1, Q-Chem, Inc., Pleasanton, CA (2018)
 Q-Chem 5.1.1 for Intel X86 EM64T Linux

User input:
--------------------------------------------------------------

$comment
potential surface scanner
$end

$rem
JOBTYPE  PES_SCAN
UNRESTRICTED TRUE
SYM_IGNORE  TRUE
GEOM_OPT_MAX_CYCLES 400
SCF_MAX_CYCLES 400
METHOD   B3LYP
BASIS   6-31G**
PDB_PRINT 2
SCF_CONVERGENCE 6
THRESH 14
SCF_PRINT 1
$end
$molecule
0 3
Br 5.039604 -0.748375 -0.009942
C -1.095259 0.591007 0.014873
C 0.170537 -0.199252 0.015571
C -2.368383 -0.288149 -0.016248
H -1.137057 1.232408 0.904646
H -1.116874 1.261307 -0.854852
H 0.576659 -0.594318 -0.910631
H 0.595350 -0.569203 0.943559
H -3.271046 0.333012 -0.018959
H -2.388208 -0.918850 -0.910841
H -2.412527 -0.946986 0.856923
$end
$scan
stre 1 3 4.800000 4.801000 0.100000
$end
--------------------------------------------------------------

   10   -2692.3207940788      8.93e-07  Convergence criterion met
 Total energy in the final basis set =    -2692.3207940788
   10   -2692.3202120918      9.96e-07  Convergence criterion met
 Total energy in the final basis set =    -2692.3202120918
   10   -2692.3205430888      9.65e-07  Convergence criterion met
 Total energy in the final basis set =    -2692.3205430888
   10   -2692.3207248138      8.95e-07  Convergence criterion met
 Total energy in the final basis set =    -2692.3207248138
   10   -2692.3207520768      8.61e-07  Convergence criterion met
 Total energy in the final basis set =    -2692.3207520768
   10   -2692.3207575607      8.45e-07  Convergence criterion met
 Total energy in the final basis set =    -2692.3207575607

             Standard Nuclear Orientation (Angstroms)
    I     Atom           X                Y                Z
 ----------------------------------------------------------------
    1      Br      4.9532211975    -0.7004203830    -0.0100215189
    2      C      -1.0802199175     0.5854007038     0.0147070827
    3      C       0.1776451799    -0.2175007224     0.0157766034
    4      C      -2.3618515747    -0.2812816282    -0.0163775312
    5      H      -1.1157633019     1.2272862374     0.9044118156
    6      H      -1.0950355130     1.2557941570    -0.8550980211
    7      H       0.5770810135    -0.6199435915    -0.9101696121
    8      H       0.5963519287    -0.5937124172     0.9440162514
    9      H      -3.2585286665     0.3484954369    -0.0190527395
   10      H      -2.3878339788    -0.9118650303    -0.9109054057
   11      H      -2.4122703673    -0.9396517625     0.8568120755
 ----------------------------------------------------------------

   10   -2692.3207581870      8.43e-07  Convergence criterion met
 Total energy in the final basis set =    -2692.3207581870

                    Orbital Energies (a.u.)
 --------------------------------------------------------------

 Alpha MOs
 -- Occupied --
******* -62.557 -56.381 -56.373 -56.373 -10.185 -10.184 -10.176
 -8.744  -6.581  -6.558  -6.558  -2.671  -2.666  -2.666  -2.649
 -2.649  -0.796  -0.778  -0.671  -0.578  -0.460  -0.426  -0.391
 -0.377  -0.371  -0.348  -0.331  -0.322  -0.322  -0.198

 Beta MOs
 -- Occupied --
******* -62.555 -56.375 -56.372 -56.372 -10.185 -10.174 -10.171
 -8.740  -6.570  -6.557  -6.556  -2.663  -2.660  -2.660  -2.648
 -2.648  -0.767  -0.753  -0.653  -0.564  -0.456  -0.420  -0.386
 -0.365  -0.342  -0.329  -0.308  -0.308

          Ground-State Mulliken Net Atomic Charges

     Atom                 Charge (a.u.)    Spin (a.u.)
  --------------------------------------------------------
      1 Br                   -0.000368       1.000230
      2 C                    -0.189350      -0.073689
      3 C                    -0.219405       1.079849
      4 C                    -0.307389       0.049920
      5 H                     0.102067       0.011319
      6 H                     0.102746       0.014666
      7 H                     0.100172      -0.047414
      8 H                     0.100533      -0.047527
      9 H                     0.100746       0.013755
     10 H                     0.105005      -0.000682
     11 H                     0.105243      -0.000428
  --------------------------------------------------------
  Sum of atomic charges =    -0.000000

                    Cartesian Multipole Moments
 -----------------------------------------------------------------
    Charge (ESU x 10^10)
                 0.0000
    Dipole Moment (Debye)
         X      -0.2587      Y      -0.0018      Z       0.0018
       Tot       0.2587
    Quadrupole Moments (Debye-Ang)
        XX     -38.8934     XY       0.7150     YY     -38.1786
        XZ      -0.0578     YZ      -0.0746     ZZ     -38.8360

 Final energy is   -2692.32075818700
 **  OPTIMIZATION CONVERGED  **
 Total job time:  24.49s(wall), 273.29s(cpu)
        *  Thank you very much for using Q-Chem.  Have a nice day.  *
