 Q-Chem 5.1, Q-Chem, Inc., Pleasanton, CA (2018)
 Q-Chem 5.1.1 for Intel X86 EM64T Linux

User input:
--------------------------------------------------------------

$comment
potential surface scanner
$end

$rem
JOBTYPE  PES_SCAN
UNRESTRICTED TRUE
SYM_IGNORE  TRUE
GEOM_OPT_MAX_CYCLES 400
SCF_MAX_CYCLES 400
METHOD   B3LYP
BASIS   6-31G**
PDB_PRINT 2
SCF_CONVERGENCE 6
THRESH 14
SCF_PRINT 1
$end
$molecule
0 3
Br 2.944927 0.468274 0.011831
C -0.710387 0.416568 0.007659
C 0.288626 -0.695341 0.003497
C -2.176017 -0.076190 -0.006319
H -0.563488 1.048724 0.893451
H -0.552078 1.065624 -0.863710
H 0.511081 -1.222113 -0.921550
H 0.494025 -1.245220 0.918881
H -2.875047 0.768081 -0.001782
H -2.379097 -0.678737 -0.897760
H -2.389761 -0.697066 0.869904
$end
$scan
stre 1 3 2.800000 2.801000 0.100000
$end
--------------------------------------------------------------

   10   -2692.3125979957      8.20e-07  Convergence criterion met
 Total energy in the final basis set =    -2692.3125979957
   10   -2692.3093897658      7.10e-07  Convergence criterion met
 Total energy in the final basis set =    -2692.3093897658
   10   -2692.3095389670      7.15e-07  Convergence criterion met
 Total energy in the final basis set =    -2692.3095389670
   10   -2692.3095675132      7.13e-07  Convergence criterion met
 Total energy in the final basis set =    -2692.3095675132

             Standard Nuclear Orientation (Angstroms)
    I     Atom           X                Y                Z
 ----------------------------------------------------------------
    1      Br      2.8368847417     0.4888981298     0.0127744009
    2      C      -0.6952650556     0.4135308059     0.0074828786
    3      C       0.3024010710    -0.7011870895     0.0031854214
    4      C      -2.1627805880    -0.0719210974    -0.0061801769
    5      H      -0.5453172480     1.0455715558     0.8929602177
    6      H      -0.5341660745     1.0623430163    -0.8636959827
    7      H       0.5068593543    -1.2368170939    -0.9213309405
    8      H       0.4908004943    -1.2589557375     0.9178398361
    9      H      -2.8574864507     0.7760188225    -0.0014995347
   10      H      -2.3693982691    -0.6733311417    -0.8975949420
   11      H      -2.3797479755    -0.6915461704     0.8701608221
 ----------------------------------------------------------------

   10   -2692.3095680246      7.08e-07  Convergence criterion met
 Total energy in the final basis set =    -2692.3095680246

                    Orbital Energies (a.u.)
 --------------------------------------------------------------

 Alpha MOs
 -- Occupied --
******* -62.552 -56.376 -56.369 -56.369 -10.181 -10.177 -10.173
 -8.739  -6.576  -6.554  -6.554  -2.667  -2.661  -2.661  -2.645
 -2.645  -0.796  -0.773  -0.668  -0.576  -0.457  -0.422  -0.389
 -0.379  -0.366  -0.345  -0.328  -0.323  -0.318  -0.178

 Beta MOs
 -- Occupied --
******* -62.550 -56.370 -56.367 -56.367 -10.182 -10.172 -10.163
 -8.735  -6.565  -6.552  -6.552  -2.658  -2.655  -2.655  -2.644
 -2.644  -0.766  -0.748  -0.650  -0.563  -0.452  -0.416  -0.382
 -0.367  -0.339  -0.326  -0.303  -0.302

          Ground-State Mulliken Net Atomic Charges

     Atom                 Charge (a.u.)    Spin (a.u.)
  --------------------------------------------------------
      1 Br                    0.025486       1.044510
      2 C                    -0.175032      -0.067717
      3 C                    -0.236411       1.021547
      4 C                    -0.308084       0.043238
      5 H                     0.097431       0.012152
      6 H                     0.097719       0.011870
      7 H                     0.097222      -0.039691
      8 H                     0.097692      -0.039890
      9 H                     0.098056       0.015201
     10 H                     0.102957      -0.000600
     11 H                     0.102964      -0.000622
  --------------------------------------------------------
  Sum of atomic charges =     0.000000

                    Cartesian Multipole Moments
 -----------------------------------------------------------------
    Charge (ESU x 10^10)
                 0.0000
    Dipole Moment (Debye)
         X      -0.1985      Y      -0.0119      Z      -0.0004
       Tot       0.1989
    Quadrupole Moments (Debye-Ang)
        XX     -40.9803     XY      -0.6268     YY     -39.6894
        XZ      -0.0331     YZ       0.0722     ZZ     -36.2030

 Final energy is   -2692.30956802465
 **  OPTIMIZATION CONVERGED  **
 Total job time:  18.47s(wall), 211.64s(cpu)
        *  Thank you very much for using Q-Chem.  Have a nice day.  *
