 Q-Chem 5.1, Q-Chem, Inc., Pleasanton, CA (2018)
 Q-Chem 5.1.1 for Intel X86 EM64T Linux

User input:
--------------------------------------------------------------

$comment
potential surface scanner
$end

$rem
JOBTYPE  PES_SCAN
UNRESTRICTED TRUE
SYM_IGNORE  TRUE
GEOM_OPT_MAX_CYCLES 400
SCF_MAX_CYCLES 400
METHOD   B3LYP
BASIS   6-31G**
PDB_PRINT 2
SCF_CONVERGENCE 6
THRESH 14
SCF_PRINT 1
$end
$molecule
0 3
Br 2.482337 -0.138383 -0.861404
C -0.720161 0.512088 0.201375
C 0.407148 -0.460489 0.300422
C -2.094852 -0.118226 -0.118986
H -0.790481 1.042037 1.162046
H -0.486041 1.266898 -0.560369
H 0.661506 -0.986087 -0.655531
H 0.462606 -1.138151 1.152569
H -2.871762 0.652401 -0.163051
H -2.074445 -0.630651 -1.086307
H -2.383070 -0.848830 0.643343
$end
$scan
stre 1 3 2.300000 2.301000 0.100000
$end
--------------------------------------------------------------

   11   -2692.2932452976      9.86e-07  Convergence criterion met
 Total energy in the final basis set =    -2692.2932452976
   11   -2692.2833926960      7.03e-07  Convergence criterion met
 Total energy in the final basis set =    -2692.2833926960
   11   -2692.2832829398      7.20e-07  Convergence criterion met
 Total energy in the final basis set =    -2692.2832829398
   11   -2692.2834627521      8.52e-07  Convergence criterion met
 Total energy in the final basis set =    -2692.2834627521
   11   -2692.2834899709      8.64e-07  Convergence criterion met
 Total energy in the final basis set =    -2692.2834899709
   11   -2692.2835100473      9.29e-07  Convergence criterion met
 Total energy in the final basis set =    -2692.2835100473
   11   -2692.2835127073      9.46e-07  Convergence criterion met
 Total energy in the final basis set =    -2692.2835127073

             Standard Nuclear Orientation (Angstroms)
    I     Atom           X                Y                Z
 ----------------------------------------------------------------
    1      Br      2.4293164020    -0.1024968870    -0.7922681284
    2      C      -0.7069612656     0.5126207363     0.1903125969
    3      C       0.4265655864    -0.4577528934     0.2814091552
    4      C      -2.0840719457    -0.1181778087    -0.1160646537
    5      H      -0.7687446009     1.0436914293     1.1510182166
    6      H      -0.4818210379     1.2683914029    -0.5737983385
    7      H       0.6168979907    -1.0235235272    -0.6713326112
    8      H       0.4614207559    -1.1404400914     1.1326760101
    9      H      -2.8629503617     0.6509729449    -0.1555653520
   10      H      -2.0718992808    -0.6330135771    -1.0824614830
   11      H      -2.3649672422    -0.8476647287     0.6501815880
 ----------------------------------------------------------------

   11   -2692.2835138383      9.54e-07  Convergence criterion met
 Total energy in the final basis set =    -2692.2835138383

                    Orbital Energies (a.u.)
 --------------------------------------------------------------

 Alpha MOs
 -- Occupied --
******* -62.524 -56.347 -56.342 -56.341 -10.209 -10.198 -10.187
 -8.712  -6.546  -6.529  -6.527  -2.638  -2.634  -2.633  -2.621
 -2.620  -0.813  -0.774  -0.687  -0.601  -0.486  -0.442  -0.418
 -0.402  -0.366  -0.350  -0.327  -0.302  -0.299  -0.169

 Beta MOs
 -- Occupied --
******* -62.522 -56.342 -56.340 -56.340 -10.198 -10.192 -10.186
 -8.708  -6.536  -6.526  -6.525  -2.630  -2.628  -2.627  -2.618
 -2.618  -0.790  -0.745  -0.664  -0.583  -0.472  -0.431  -0.404
 -0.386  -0.356  -0.345  -0.295  -0.285

          Ground-State Mulliken Net Atomic Charges

     Atom                 Charge (a.u.)    Spin (a.u.)
  --------------------------------------------------------
      1 Br                   -0.057218       0.941033
      2 C                    -0.188206      -0.039882
      3 C                    -0.256605       0.996480
      4 C                    -0.314708       0.043571
      5 H                     0.120809       0.021654
      6 H                     0.115774       0.014805
      7 H                     0.130479       0.031143
      8 H                     0.122462      -0.021185
      9 H                     0.109247       0.013266
     10 H                     0.108900      -0.000155
     11 H                     0.109065      -0.000731
  --------------------------------------------------------
  Sum of atomic charges =    -0.000000

                    Cartesian Multipole Moments
 -----------------------------------------------------------------
    Charge (ESU x 10^10)
                 0.0000
    Dipole Moment (Debye)
         X      -1.8082      Y      -0.1762      Z       0.5910
       Tot       1.9104
    Quadrupole Moments (Debye-Ang)
        XX     -42.4681     XY       0.4540     YY     -38.3621
        XZ       1.5143     YZ       0.1326     ZZ     -39.3526

 Final energy is   -2692.28351383829
 **  OPTIMIZATION CONVERGED  **
 Total job time:  32.88s(wall), 370.96s(cpu)
        *  Thank you very much for using Q-Chem.  Have a nice day.  *
