 Q-Chem 5.1, Q-Chem, Inc., Pleasanton, CA (2018)
 Q-Chem 5.1.1 for Intel X86 EM64T Linux

User input:
--------------------------------------------------------------

$comment
potential surface scanner
$end

$rem
JOBTYPE  PES_SCAN
UNRESTRICTED TRUE
SYM_IGNORE  TRUE
GEOM_OPT_MAX_CYCLES 400
SCF_MAX_CYCLES 400
METHOD   B3LYP
BASIS   6-31G**
PDB_PRINT 2
SCF_CONVERGENCE 6
THRESH 14
SCF_PRINT 1
$end
$molecule
0 1
Br 2.762602 0.330625 0.014376
C -0.667629 0.468311 0.010032
C 0.261029 -0.685276 0.005747
C -2.124593 -0.072386 -0.010820
H -0.515320 1.078076 0.904089
H -0.498361 1.097716 -0.867245
H 0.426355 -1.234733 -0.915425
H 0.424097 -1.244737 0.921269
H -2.818520 0.773043 -0.005973
H -2.319903 -0.667039 -0.907942
H -2.336960 -0.690999 0.865993
$end
$scan
stre 1 3 2.800000 2.801000 0.100000
$end
--------------------------------------------------------------

   11   -2692.3904526523      4.97e-07  Convergence criterion met
 Total energy in the final basis set =    -2692.3904526523
   11   -2692.3826243407      8.06e-07  Convergence criterion met
 Total energy in the final basis set =    -2692.3826243407
   11   -2692.3826746811      8.26e-07  Convergence criterion met
 Total energy in the final basis set =    -2692.3826746811
   11   -2692.3828854433      8.64e-07  Convergence criterion met
 Total energy in the final basis set =    -2692.3828854433
   11   -2692.3828963379      8.71e-07  Convergence criterion met
 Total energy in the final basis set =    -2692.3828963379
   11   -2692.3829092804      8.81e-07  Convergence criterion met
 Total energy in the final basis set =    -2692.3829092804
   11   -2692.3829117225      8.80e-07  Convergence criterion met
 Total energy in the final basis set =    -2692.3829117225
   11   -2692.3829127629      8.78e-07  Convergence criterion met
 Total energy in the final basis set =    -2692.3829127629

             Standard Nuclear Orientation (Angstroms)
    I     Atom           X                Y                Z
 ----------------------------------------------------------------
    1      Br      2.8340351235     0.3617404396     0.0213213030
    2      C      -0.6733107703     0.4592762332     0.0081772829
    3      C       0.2430472814    -0.6996113036     0.0035877423
    4      C      -2.1370283510    -0.0700889240    -0.0095245277
    5      H      -0.5168539361     1.0675804231     0.9024241291
    6      H      -0.5025355064     1.0854457982    -0.8710188175
    7      H       0.4325762064    -1.2372834550    -0.9195840792
    8      H       0.4259584046    -1.2506798405     0.9201919627
    9      H      -2.8201088499     0.7840511715    -0.0047223975
   10      H      -2.3394445802    -0.6633565603    -0.9057114534
   11      H      -2.3535380219    -0.6844729821     0.8689598554
 ----------------------------------------------------------------

   11   -2692.3829131427      8.76e-07  Convergence criterion met
 Total energy in the final basis set =    -2692.3829131427

                    Orbital Energies (a.u.)
 --------------------------------------------------------------

 Alpha MOs
 -- Occupied --
******* -62.468 -56.289 -56.286 -56.285 -10.293 -10.230 -10.220
 -8.653  -6.482  -6.471  -6.471  -2.575  -2.572  -2.572  -2.564
 -2.564  -0.833  -0.721  -0.693  -0.627  -0.516  -0.475  -0.441
 -0.420  -0.397  -0.378  -0.275  -0.245  -0.245

 Beta MOs
 -- Occupied --
******* -62.468 -56.289 -56.286 -56.285 -10.293 -10.230 -10.220
 -8.653  -6.482  -6.471  -6.471  -2.575  -2.572  -2.572  -2.564
 -2.564  -0.833  -0.721  -0.693  -0.627  -0.516  -0.475  -0.441
 -0.420  -0.397  -0.378  -0.275  -0.245  -0.245

          Ground-State Mulliken Net Atomic Charges

     Atom                 Charge (a.u.)    Spin (a.u.)
  --------------------------------------------------------
      1 Br                   -0.398774      -0.000000
      2 C                    -0.206684       0.000000
      3 C                    -0.115666       0.000000
      4 C                    -0.340658       0.000000
      5 H                     0.153762       0.000000
      6 H                     0.154281      -0.000000
      7 H                     0.181812       0.000000
      8 H                     0.181919       0.000000
      9 H                     0.138729       0.000000
     10 H                     0.125681      -0.000000
     11 H                     0.125599      -0.000000
  --------------------------------------------------------
  Sum of atomic charges =    -0.000000

                    Cartesian Multipole Moments
 -----------------------------------------------------------------
    Charge (ESU x 10^10)
                -0.0000
    Dipole Moment (Debye)
         X      -5.8175      Y      -1.4248      Z      -0.0359
       Tot       5.9896
    Quadrupole Moments (Debye-Ang)
        XX     -51.1514     XY      -1.9876     YY     -37.8326
        XZ      -0.1040     YZ      -0.0172     ZZ     -38.5034

 Final energy is   -2692.38291314267
 **  OPTIMIZATION CONVERGED  **
 Total job time:  40.04s(wall), 402.26s(cpu)
        *  Thank you very much for using Q-Chem.  Have a nice day.  *
