 Q-Chem 5.1, Q-Chem, Inc., Pleasanton, CA (2018)
 Q-Chem 5.1.1 for Intel X86 EM64T Linux

User input:
--------------------------------------------------------------

$comment
potential surface scanner
$end

$rem
JOBTYPE  PES_SCAN
UNRESTRICTED TRUE
SYM_IGNORE  TRUE
GEOM_OPT_MAX_CYCLES 400
SCF_MAX_CYCLES 400
METHOD   B3LYP
BASIS   6-31G**
PDB_PRINT 2
SCF_CONVERGENCE 6
THRESH 14
SCF_PRINT 1
$end
$molecule
0 3
Br 3.046422 0.461838 0.009895
C -0.722908 0.416872 0.007864
C 0.277652 -0.693100 0.004217
C -2.187743 -0.079757 -0.006218
H -0.578224 1.049218 0.893846
H -0.566313 1.065609 -0.863944
H 0.512389 -1.209900 -0.923174
H 0.488943 -1.237947 0.921019
H -2.888105 0.763290 -0.002446
H -2.389072 -0.683172 -0.897410
H -2.400258 -0.700348 0.870455
$end
$scan
stre 1 3 2.900000 2.901000 0.100000
$end
--------------------------------------------------------------

   10   -2692.3148302782      9.87e-07  Convergence criterion met
 Total energy in the final basis set =    -2692.3148302782
   10   -2692.3124307200      9.17e-07  Convergence criterion met
 Total energy in the final basis set =    -2692.3124307200
   10   -2692.3125733745      9.08e-07  Convergence criterion met
 Total energy in the final basis set =    -2692.3125733745
   10   -2692.3125909880      8.99e-07  Convergence criterion met
 Total energy in the final basis set =    -2692.3125909880
   10   -2692.3125921087      8.94e-07  Convergence criterion met
 Total energy in the final basis set =    -2692.3125921087
   10   -2692.3125969986      8.39e-07  Convergence criterion met
 Total energy in the final basis set =    -2692.3125969986

             Standard Nuclear Orientation (Angstroms)
    I     Atom           X                Y                Z
 ----------------------------------------------------------------
    1      Br      2.9449268918     0.4682736525     0.0118307924
    2      C      -0.7103869010     0.4165679738     0.0076594424
    3      C       0.2886262562    -0.6953409740     0.0034969738
    4      C      -2.1760167003    -0.0761895848    -0.0063185778
    5      H      -0.5634875294     1.0487238080     0.8934505437
    6      H      -0.5520782995     1.0656238155    -0.8637101910
    7      H       0.5110805946    -1.2221130398    -0.9215496024
    8      H       0.4940247111    -1.2452203030     0.9188813321
    9      H      -2.8750472735     0.7680805952    -0.0017816338
   10      H      -2.3790974489    -0.6787370908    -0.8977595364
   11      H      -2.3897613011    -0.6970658528     0.8699044570
 ----------------------------------------------------------------

   10   -2692.3125979827      8.20e-07  Convergence criterion met
 Total energy in the final basis set =    -2692.3125979827

                    Orbital Energies (a.u.)
 --------------------------------------------------------------

 Alpha MOs
 -- Occupied --
******* -62.551 -56.376 -56.368 -56.368 -10.182 -10.179 -10.174
 -8.739  -6.575  -6.554  -6.553  -2.666  -2.661  -2.661  -2.645
 -2.645  -0.795  -0.774  -0.669  -0.576  -0.457  -0.423  -0.389
 -0.378  -0.366  -0.346  -0.328  -0.322  -0.318  -0.182

 Beta MOs
 -- Occupied --
******* -62.550 -56.370 -56.367 -56.367 -10.183 -10.172 -10.165
 -8.735  -6.564  -6.551  -6.551  -2.658  -2.655  -2.654  -2.643
 -2.643  -0.766  -0.748  -0.650  -0.563  -0.453  -0.417  -0.382
 -0.366  -0.340  -0.326  -0.303  -0.302

          Ground-State Mulliken Net Atomic Charges

     Atom                 Charge (a.u.)    Spin (a.u.)
  --------------------------------------------------------
      1 Br                    0.016551       1.035814
      2 C                    -0.179018      -0.069100
      3 C                    -0.226263       1.032914
      4 C                    -0.308094       0.045266
      5 H                     0.098542       0.012354
      6 H                     0.098831       0.012011
      7 H                     0.096811      -0.041496
      8 H                     0.097424      -0.041657
      9 H                     0.098514       0.015176
     10 H                     0.103347      -0.000627
     11 H                     0.103357      -0.000654
  --------------------------------------------------------
  Sum of atomic charges =     0.000000

                    Cartesian Multipole Moments
 -----------------------------------------------------------------
    Charge (ESU x 10^10)
                 0.0000
    Dipole Moment (Debye)
         X      -0.2338      Y      -0.0138      Z      -0.0001
       Tot       0.2343
    Quadrupole Moments (Debye-Ang)
        XX     -40.9621     XY      -0.6217     YY     -39.6613
        XZ      -0.0304     YZ       0.0959     ZZ     -36.1825

 Final energy is   -2692.31259798265
 **  OPTIMIZATION CONVERGED  **
 Total job time:  25.80s(wall), 293.69s(cpu)
        *  Thank you very much for using Q-Chem.  Have a nice day.  *
