 Q-Chem 5.1, Q-Chem, Inc., Pleasanton, CA (2018)
 Q-Chem 5.1.1 for Intel X86 EM64T Linux

User input:
--------------------------------------------------------------

$comment
potential surface scanner
$end

$rem
JOBTYPE  PES_SCAN
UNRESTRICTED TRUE
SYM_IGNORE  TRUE
GEOM_OPT_MAX_CYCLES 400
SCF_MAX_CYCLES 400
METHOD   B3LYP
BASIS   6-31G**
PDB_PRINT 2
SCF_CONVERGENCE 6
THRESH 14
SCF_PRINT 1
$end
$molecule
0 3
F 0.224339 1.230336 1.554219
F 0.798321 -0.938255 -1.791365
C -0.319297 0.689883 -0.400870
C 0.647875 -0.381143 -0.547108
C -1.766222 0.424664 -0.119238
H -0.061746 1.680425 -0.782344
H 1.562867 -0.455184 0.036226
H 0.425947 1.403547 2.451955
H -2.323600 0.184212 -1.038680
H -1.885562 -0.427049 0.558418
H -2.249223 1.298967 0.330488
$end
$scan
stre 1 3 2.000000 2.001000 0.100000
$end
--------------------------------------------------------------

   10    -317.4561006616      8.86e-07  Convergence criterion met
 Total energy in the final basis set =     -317.4561006616
   11    -317.4480391707      2.46e-07  Convergence criterion met
 Total energy in the final basis set =     -317.4480391707
   11    -317.4479029041      2.56e-07  Convergence criterion met
 Total energy in the final basis set =     -317.4479029041
   11    -317.4479460771      2.67e-07  Convergence criterion met
 Total energy in the final basis set =     -317.4479460771
   11    -317.4479699707      2.70e-07  Convergence criterion met
 Total energy in the final basis set =     -317.4479699707
   11    -317.4479798601      2.66e-07  Convergence criterion met
 Total energy in the final basis set =     -317.4479798601
   11    -317.4479815558      2.63e-07  Convergence criterion met
 Total energy in the final basis set =     -317.4479815558

             Standard Nuclear Orientation (Angstroms)
    I     Atom           X                Y                Z
 ----------------------------------------------------------------
    1      F       0.2078194748     1.2212781431     1.5081773420
    2      F       0.7670977147    -0.9198339321    -1.7897025054
    3      C      -0.3053839179     0.6983144836    -0.3527717667
    4      C       0.6497079326    -0.3791287982    -0.5341172520
    5      C      -1.7590863120     0.4251831058    -0.1094423439
    6      H      -0.0534648450     1.6812618421    -0.7576595823
    7      H       1.5774591443    -0.4693513950     0.0265290382
    8      H       0.4094885954     1.4021178646     2.4099323522
    9      H      -2.2895905908     0.1777254604    -1.0424507060
   10      H      -1.8910702106    -0.4248404886     0.5683090543
   11      H      -2.2592779853     1.2976767143     0.3248973697
 ----------------------------------------------------------------

   11    -317.4479823103      2.61e-07  Convergence criterion met
 Total energy in the final basis set =     -317.4479823103

                    Orbital Energies (a.u.)
 --------------------------------------------------------------

 Alpha MOs
 -- Occupied --
-24.694 -24.676 -10.241 -10.186 -10.173  -1.197  -1.182  -0.776
 -0.673  -0.585  -0.544  -0.479  -0.470  -0.436  -0.418  -0.404
 -0.392  -0.388  -0.364  -0.332  -0.180  -0.170

 Beta MOs
 -- Occupied --
-24.692 -24.670 -10.227 -10.173 -10.173  -1.194  -1.168  -0.748
 -0.652  -0.567  -0.527  -0.464  -0.455  -0.418  -0.402  -0.400
 -0.381  -0.379  -0.353  -0.321

          Ground-State Mulliken Net Atomic Charges

     Atom                 Charge (a.u.)    Spin (a.u.)
  --------------------------------------------------------
      1 F                    -0.287527      -0.013945
      2 F                    -0.278174       0.113031
      3 C                    -0.078426       0.888174
      4 C                     0.141091       0.917366
      5 C                    -0.317318      -0.045611
      6 H                     0.093609       0.013301
      7 H                     0.078094      -0.022312
      8 H                     0.326199       0.069301
      9 H                     0.114169       0.048666
     10 H                     0.107164       0.014515
     11 H                     0.101119       0.017513
  --------------------------------------------------------
  Sum of atomic charges =    -0.000000

                    Cartesian Multipole Moments
 -----------------------------------------------------------------
    Charge (ESU x 10^10)
                 0.0000
    Dipole Moment (Debye)
         X       0.0739      Y       1.5658      Z       3.0741
       Tot       3.4507
    Quadrupole Moments (Debye-Ang)
        XX     -28.2880     XY       0.8759     YY     -28.7073
        XZ       2.5676     YZ       1.4942     ZZ     -24.9856

 Final energy is   -317.447982310267
 **  OPTIMIZATION CONVERGED  **
 Total job time:  26.73s(wall), 303.36s(cpu)
        *  Thank you very much for using Q-Chem.  Have a nice day.  *
