 Q-Chem 5.1, Q-Chem, Inc., Pleasanton, CA (2018)
 Q-Chem 5.1.1 for Intel X86 EM64T Linux

User input:
--------------------------------------------------------------

$comment
potential surface scanner
$end

$rem
JOBTYPE  PES_SCAN
UNRESTRICTED TRUE
SYM_IGNORE  TRUE
GEOM_OPT_MAX_CYCLES 400
SCF_MAX_CYCLES 400
METHOD   B3LYP
BASIS   6-31G**
PDB_PRINT 2
SCF_CONVERGENCE 6
THRESH 14
SCF_PRINT 1
$end
$molecule
0 3
F 0.282182 1.350136 1.743214
F 0.808392 -1.160421 -1.387417
C -0.341639 0.766010 -0.499473
C 0.711852 -0.230315 -0.392315
C -1.753044 0.533110 -0.058254
H -0.159770 1.638459 -1.131753
H 1.684892 -0.019172 0.048427
H 0.227677 0.423425 1.778595
H -2.381195 0.187654 -0.893977
H -1.819464 -0.233289 0.721543
H -2.206186 1.454805 0.323111
$end
$scan
stre 1 3 2.300000 2.301000 0.100000
$end
--------------------------------------------------------------

   10    -317.4700961743      8.03e-07  Convergence criterion met
 Total energy in the final basis set =     -317.4700961743
   10    -317.4657987661      8.20e-07  Convergence criterion met
 Total energy in the final basis set =     -317.4657987661
   10    -317.4661495828      8.22e-07  Convergence criterion met
 Total energy in the final basis set =     -317.4661495828
   10    -317.4662219135      8.24e-07  Convergence criterion met
 Total energy in the final basis set =     -317.4662219135
   10    -317.4662333682      8.24e-07  Convergence criterion met
 Total energy in the final basis set =     -317.4662333682
   10    -317.4662540811      8.22e-07  Convergence criterion met
 Total energy in the final basis set =     -317.4662540811
   10    -317.4662677074      8.21e-07  Convergence criterion met
 Total energy in the final basis set =     -317.4662677074
   10    -317.4662815495      8.20e-07  Convergence criterion met
   10    -317.4664521165      8.05e-07  Convergence criterion met
 Total energy in the final basis set =     -317.4664521165
   10    -317.4664588185      8.05e-07  Convergence criterion met
 Total energy in the final basis set =     -317.4664588185
   10    -317.4664679688      8.05e-07  Convergence criterion met
 Total energy in the final basis set =     -317.4664679688
   10    -317.4664765175      8.06e-07  Convergence criterion met
 Total energy in the final basis set =     -317.4664765175
   10    -317.4664811619      8.05e-07  Convergence criterion met
 Total energy in the final basis set =     -317.4664811619
   10    -317.4664830513      8.06e-07  Convergence criterion met
 Total energy in the final basis set =     -317.4664830513

             Standard Nuclear Orientation (Angstroms)
    I     Atom           X                Y                Z
 ----------------------------------------------------------------
    1      F       0.3343888031     1.5022993273     1.5964749650
    2      F       0.8303318984    -1.0896392686    -1.5599005008
    3      C      -0.3270230407     0.7253995626    -0.4648259856
    4      C       0.6920053859    -0.3074625205    -0.4455049081
    5      C      -1.7482987700     0.4886284366    -0.0545953204
    6      H      -0.1102314093     1.6621333556    -0.9822095688
    7      H       1.6396869960    -0.2025354018     0.0806303082
    8      H       0.1439559754     0.6619911100     1.9401232205
    9      H      -2.3808076091     0.2172320678    -0.9142778298
   10      H      -1.8326828372    -0.3355558084     0.6635362995
   11      H      -2.1876283923     1.3879111393     0.3922503203
 ----------------------------------------------------------------

   10    -317.4664837400      8.05e-07  Convergence criterion met
 Total energy in the final basis set =     -317.4664837400

                    Orbital Energies (a.u.)
 --------------------------------------------------------------

 Alpha MOs
 -- Occupied --
-24.690 -24.688 -10.256 -10.198 -10.187  -1.196  -1.195  -0.786
 -0.687  -0.580  -0.543  -0.499  -0.479  -0.451  -0.429  -0.409
 -0.403  -0.391  -0.379  -0.344  -0.199  -0.186

 Beta MOs
 -- Occupied --
-24.688 -24.682 -10.242 -10.187 -10.184  -1.192  -1.180  -0.757
 -0.664  -0.557  -0.540  -0.481  -0.464  -0.424  -0.413  -0.400
 -0.393  -0.384  -0.369  -0.333

          Ground-State Mulliken Net Atomic Charges

     Atom                 Charge (a.u.)    Spin (a.u.)
  --------------------------------------------------------
      1 F                    -0.307557       0.029110
      2 F                    -0.270248       0.117314
      3 C                    -0.096647       0.916115
      4 C                     0.116066       0.901143
      5 C                    -0.335083      -0.051082
      6 H                     0.104440       0.009359
      7 H                     0.089149      -0.016496
      8 H                     0.361464       0.007123
      9 H                     0.124767       0.050891
     10 H                     0.093392       0.011525
     11 H                     0.120257       0.024999
  --------------------------------------------------------
  Sum of atomic charges =    -0.000000

                    Cartesian Multipole Moments
 -----------------------------------------------------------------
    Charge (ESU x 10^10)
                 0.0000
    Dipole Moment (Debye)
         X      -0.7106      Y       0.0140      Z       1.7353
       Tot       1.8752
    Quadrupole Moments (Debye-Ang)
        XX     -28.2047     XY      -0.2298     YY     -32.4995
        XZ       0.7416     YZ      -3.6515     ZZ     -28.3948

 Final energy is   -317.466483740033
 **  OPTIMIZATION CONVERGED  **
 Total job time:  125.02s(wall), 1362.58s(cpu)
        *  Thank you very much for using Q-Chem.  Have a nice day.  *
