 Q-Chem 5.1, Q-Chem, Inc., Pleasanton, CA (2018)
 Q-Chem 5.1.1 for Intel X86 EM64T Linux

User input:
--------------------------------------------------------------

$comment
potential surface scanner
$end

$rem
JOBTYPE  PES_SCAN
UNRESTRICTED TRUE
SYM_IGNORE  TRUE
GEOM_OPT_MAX_CYCLES 400
SCF_MAX_CYCLES 400
METHOD   B3LYP
BASIS   6-31G**
PDB_PRINT 2
SCF_CONVERGENCE 6
THRESH 14
SCF_PRINT 1
$end
$molecule
0 1
F -0.528246 -1.484666 0.280919
F 1.935359 0.086573 -0.243448
C -0.432970 0.084605 -0.365851
C 0.790645 0.652398 0.282753
C -1.746807 0.704979 -0.002152
H -0.292514 -0.127622 -1.424767
H 0.823202 1.738434 0.108326
H 0.751163 0.466128 1.360981
H -1.842062 0.815297 1.081105
H -1.839650 1.695493 -0.464114
H -2.564420 0.078784 -0.362052
$end
$scan
stre 1 3 1.800000 1.801000 0.100000
$end
--------------------------------------------------------------

    9    -317.5802867436      8.84e-07  Convergence criterion met
 Total energy in the final basis set =     -317.5802867436
   10    -317.5657061580      1.53e-07  Convergence criterion met
 Total energy in the final basis set =     -317.5657061580
   10    -317.5654515672      1.57e-07  Convergence criterion met
 Total energy in the final basis set =     -317.5654515672
   10    -317.5655909297      1.60e-07  Convergence criterion met
 Total energy in the final basis set =     -317.5655909297
   10    -317.5656005910      1.60e-07  Convergence criterion met
 Total energy in the final basis set =     -317.5656005910
   10    -317.5656037142      1.60e-07  Convergence criterion met
 Total energy in the final basis set =     -317.5656037142
   10    -317.5656056014      1.60e-07  Convergence criterion met
 Total energy in the final basis set =     -317.5656056014
   10    -317.5656086534      1.59e-07  Convergence criterion met
 Total energy in the final basis set =     -317.5656086534
   10    -317.5656105582      1.59e-07  Convergence criterion met
 Total energy in the final basis set =     -317.5656105582

             Standard Nuclear Orientation (Angstroms)
    I     Atom           X                Y                Z
 ----------------------------------------------------------------
    1      F      -0.5372172619    -1.5344063122     0.3197511192
    2      F       1.9356917951     0.1034287065    -0.2633665294
    3      C      -0.4305173929     0.1201096534    -0.3810992327
    4      C       0.7948532768     0.6554790191     0.2817855984
    5      C      -1.7481599534     0.7139522827    -0.0086603571
    6      H      -0.2908281232    -0.1336552369    -1.4296383880
    7      H       0.8313853716     1.7474592466     0.1423664225
    8      H       0.7519162540     0.4355025626     1.3531829495
    9      H      -1.8352483599     0.8327151304     1.0740317847
   10      H      -1.8616102258     1.6993789501    -0.4789958535
   11      H      -2.5565653804     0.0704389978    -0.3576575136
 ----------------------------------------------------------------

   10    -317.5656112338      1.59e-07  Convergence criterion met
 Total energy in the final basis set =     -317.5656112338

                    Orbital Energies (a.u.)
 --------------------------------------------------------------

 Alpha MOs
 -- Occupied --
-24.684 -24.610 -10.286 -10.280 -10.210  -1.193  -1.051  -0.818
 -0.715  -0.613  -0.515  -0.505  -0.481  -0.447  -0.429  -0.402
 -0.366  -0.350  -0.338  -0.305  -0.304

 Beta MOs
 -- Occupied --
-24.684 -24.610 -10.286 -10.280 -10.210  -1.193  -1.051  -0.818
 -0.715  -0.613  -0.515  -0.505  -0.481  -0.447  -0.429  -0.402
 -0.366  -0.350  -0.338  -0.305  -0.304

          Ground-State Mulliken Net Atomic Charges

     Atom                 Charge (a.u.)    Spin (a.u.)
  --------------------------------------------------------
      1 F                    -0.392627       0.000000
      2 F                    -0.305099       0.000000
      3 C                     0.110802      -0.000000
      4 C                     0.141450       0.000000
      5 C                    -0.343590      -0.000000
      6 H                     0.147756      -0.000000
      7 H                     0.097417      -0.000000
      8 H                     0.131355      -0.000000
      9 H                     0.137087       0.000000
     10 H                     0.120084      -0.000000
     11 H                     0.155364       0.000000
  --------------------------------------------------------
  Sum of atomic charges =    -0.000000

                    Cartesian Multipole Moments
 -----------------------------------------------------------------
    Charge (ESU x 10^10)
                 0.0000
    Dipole Moment (Debye)
         X      -1.4364      Y       3.6274      Z      -0.4374
       Tot       3.9259
    Quadrupole Moments (Debye-Ang)
        XX     -30.3114     XY      -1.3039     YY     -31.4645
        XZ       1.5790     YZ       1.1365     ZZ     -27.0893

 Final energy is   -317.565611233802
 **  OPTIMIZATION CONVERGED  **
 Total job time:  32.04s(wall), 362.96s(cpu)
        *  Thank you very much for using Q-Chem.  Have a nice day.  *
