 Q-Chem 5.1, Q-Chem, Inc., Pleasanton, CA (2018)
 Q-Chem 5.1.1 for Intel X86 EM64T Linux

User input:
--------------------------------------------------------------

$comment
potential surface scanner
$end

$rem
JOBTYPE  PES_SCAN
UNRESTRICTED TRUE
SYM_IGNORE  TRUE
GEOM_OPT_MAX_CYCLES 400
SCF_MAX_CYCLES 400
METHOD   B3LYP
BASIS   6-31G**
PDB_PRINT 2
SCF_CONVERGENCE 6
THRESH 14
SCF_PRINT 1
$end
$molecule
0 3
F 0.240430 0.940415 2.013537
F 0.750366 -1.137663 -1.263211
C -0.358379 0.862204 -0.515359
C 0.715420 -0.113614 -0.365106
C -1.764673 0.613763 -0.071306
H -0.203090 1.648100 -1.259908
H 1.716661 0.162506 -0.035864
H 0.374937 0.097928 1.632557
H -2.261426 -0.121963 -0.723911
H -1.801392 0.225313 0.950011
H -2.355157 1.533412 -0.109737
$end
$scan
stre 1 3 2.500000 2.501000 0.100000
$end
--------------------------------------------------------------

   10    -317.4753523373      7.80e-07  Convergence criterion met
 Total energy in the final basis set =     -317.4753523373
   10    -317.4725652117      7.87e-07  Convergence criterion met
 Total energy in the final basis set =     -317.4725652117
   10    -317.4727485707      7.88e-07  Convergence criterion met
 Total energy in the final basis set =     -317.4727485707
   10    -317.4728200032      7.88e-07  Convergence criterion met
 Total energy in the final basis set =     -317.4728200032
   10    -317.4728387428      7.88e-07  Convergence criterion met
 Total energy in the final basis set =     -317.4728387428
   10    -317.4728595429      7.87e-07  Convergence criterion met
 Total energy in the final basis set =     -317.4728595429
   10    -317.4728735993      7.87e-07  Convergence criterion met
 Total energy in the final basis set =     -317.4728735993
   10    -317.4728870687      7.87e-07  Convergence criterion met
   10    -317.4730053481      7.90e-07  Convergence criterion met
 Total energy in the final basis set =     -317.4730053481
   10    -317.4730171216      7.89e-07  Convergence criterion met
 Total energy in the final basis set =     -317.4730171216
   10    -317.4730221236      7.88e-07  Convergence criterion met
 Total energy in the final basis set =     -317.4730221236
   10    -317.4730245776      7.88e-07  Convergence criterion met
 Total energy in the final basis set =     -317.4730245776
   10    -317.4730259453      7.88e-07  Convergence criterion met
 Total energy in the final basis set =     -317.4730259453
   10    -317.4730270177      7.89e-07  Convergence criterion met
 Total energy in the final basis set =     -317.4730270177

             Standard Nuclear Orientation (Angstroms)
    I     Atom           X                Y                Z
 ----------------------------------------------------------------
    1      F       0.2334129892     1.1902293436     1.8734532914
    2      F       0.7953167167    -1.1877398669    -1.2695396898
    3      C      -0.3526840651     0.7968716857    -0.5248298983
    4      C       0.7231220128    -0.1710669048    -0.3639182690
    5      C      -1.7572605061     0.5678151083    -0.0637973389
    6      H      -0.1958224091     1.6081279081    -1.2407716677
    7      H       1.7100079109     0.1004941340     0.0084913484
    8      H       0.3088781036     0.2810015687     1.6857255111
    9      H      -2.3732794149     0.1398387655    -0.8699498654
   10      H      -1.8069216583    -0.1242698696     0.7816342900
   11      H      -2.2310726797     1.5090991275     0.2352052881
 ----------------------------------------------------------------

   10    -317.4730276382      7.89e-07  Convergence criterion met
 Total energy in the final basis set =     -317.4730276382

                    Orbital Energies (a.u.)
 --------------------------------------------------------------

 Alpha MOs
 -- Occupied --
-24.705 -24.673 -10.274 -10.211 -10.191  -1.213  -1.178  -0.796
 -0.697  -0.591  -0.534  -0.511  -0.487  -0.464  -0.429  -0.416
 -0.393  -0.383  -0.380  -0.356  -0.222  -0.202

 Beta MOs
 -- Occupied --
-24.699 -24.671 -10.261 -10.197 -10.191  -1.198  -1.174  -0.766
 -0.676  -0.567  -0.528  -0.496  -0.472  -0.433  -0.414  -0.405
 -0.386  -0.376  -0.374  -0.345

          Ground-State Mulliken Net Atomic Charges

     Atom                 Charge (a.u.)    Spin (a.u.)
  --------------------------------------------------------
      1 F                    -0.331392       0.032001
      2 F                    -0.258684       0.120022
      3 C                    -0.091322       0.939368
      4 C                     0.081598       0.860733
      5 C                    -0.322718      -0.051900
      6 H                     0.109805       0.007019
      7 H                     0.112730      -0.016885
      8 H                     0.347583       0.025593
      9 H                     0.122237       0.050472
     10 H                     0.100990       0.008859
     11 H                     0.129174       0.024720
  --------------------------------------------------------
  Sum of atomic charges =     0.000000

                    Cartesian Multipole Moments
 -----------------------------------------------------------------
    Charge (ESU x 10^10)
                -0.0000
    Dipole Moment (Debye)
         X      -0.3321      Y      -0.1729      Z      -0.0191
       Tot       0.3749
    Quadrupole Moments (Debye-Ang)
        XX     -27.2716     XY      -0.0485     YY     -31.8707
        XZ       0.8382     YZ      -4.7334     ZZ     -31.4492

 Final energy is   -317.473027638172
 **  OPTIMIZATION CONVERGED  **
 Total job time:  77.56s(wall), 891.74s(cpu)
        *  Thank you very much for using Q-Chem.  Have a nice day.  *
