 Q-Chem 5.1, Q-Chem, Inc., Pleasanton, CA (2018)
 Q-Chem 5.1.1 for Intel X86 EM64T Linux

User input:
--------------------------------------------------------------

$comment
potential surface scanner
$end

$rem
JOBTYPE  PES_SCAN
UNRESTRICTED TRUE
SYM_IGNORE  TRUE
GEOM_OPT_MAX_CYCLES 400
SCF_MAX_CYCLES 400
METHOD   B3LYP
BASIS   6-31G**
PDB_PRINT 2
SCF_CONVERGENCE 6
THRESH 14
SCF_PRINT 1
$end
$molecule
0 3
F 0.233413 1.190229 1.873453
F 0.795317 -1.187740 -1.269540
C -0.352684 0.796872 -0.524830
C 0.723122 -0.171067 -0.363918
C -1.757261 0.567815 -0.063797
H -0.195822 1.608128 -1.240772
H 1.710008 0.100494 0.008491
H 0.308878 0.281002 1.685726
H -2.373279 0.139839 -0.869950
H -1.806922 -0.124270 0.781634
H -2.231073 1.509099 0.235205
$end
$scan
stre 1 3 2.400000 2.401000 0.100000
$end
--------------------------------------------------------------

   10    -317.4730276305      7.89e-07  Convergence criterion met
 Total energy in the final basis set =     -317.4730276305
   10    -317.4696860658      8.02e-07  Convergence criterion met
 Total energy in the final basis set =     -317.4696860658
   10    -317.4698891960      8.03e-07  Convergence criterion met
 Total energy in the final basis set =     -317.4698891960
   10    -317.4699492539      8.03e-07  Convergence criterion met
 Total energy in the final basis set =     -317.4699492539
   10    -317.4699665829      8.02e-07  Convergence criterion met
 Total energy in the final basis set =     -317.4699665829
   10    -317.4699867886      8.01e-07  Convergence criterion met
 Total energy in the final basis set =     -317.4699867886
   10    -317.4700024652      8.00e-07  Convergence criterion met
 Total energy in the final basis set =     -317.4700024652
   10    -317.4700168123      8.00e-07  Convergence criterion met
   10    -317.4700786286      8.03e-07  Convergence criterion met
 Total energy in the final basis set =     -317.4700786286
   10    -317.4700814435      8.03e-07  Convergence criterion met
 Total energy in the final basis set =     -317.4700814435
   10    -317.4700852317      8.03e-07  Convergence criterion met
 Total energy in the final basis set =     -317.4700852317
   10    -317.4700897664      8.03e-07  Convergence criterion met
 Total energy in the final basis set =     -317.4700897664
   10    -317.4700934617      8.03e-07  Convergence criterion met
 Total energy in the final basis set =     -317.4700934617
   10    -317.4700953044      8.03e-07  Convergence criterion met
 Total energy in the final basis set =     -317.4700953044

             Standard Nuclear Orientation (Angstroms)
    I     Atom           X                Y                Z
 ----------------------------------------------------------------
    1      F       0.2821818474     1.3501364874     1.7432143868
    2      F       0.8083916958    -1.1604211890    -1.3874171649
    3      C      -0.3416392145     0.7660095412    -0.4994726523
    4      C       0.7118524419    -0.2303153703    -0.3923145943
    5      C      -1.7530435836     0.5331096104    -0.0582539129
    6      H      -0.1597701782     1.6384591151    -1.1317529302
    7      H       1.6848920277    -0.0191715314     0.0484272937
    8      H       0.2276768871     0.4234249551     1.7785949105
    9      H      -2.3811951794     0.1876536155    -0.8939770462
   10      H      -1.8194640985    -0.2332893774     0.7215431939
   11      H      -2.2061856459     1.4548051436     0.3231105159
 ----------------------------------------------------------------

   10    -317.4700961836      8.03e-07  Convergence criterion met
 Total energy in the final basis set =     -317.4700961836

                    Orbital Energies (a.u.)
 --------------------------------------------------------------

 Alpha MOs
 -- Occupied --
-24.697 -24.682 -10.266 -10.205 -10.190  -1.205  -1.187  -0.791
 -0.693  -0.586  -0.538  -0.506  -0.485  -0.458  -0.429  -0.413
 -0.397  -0.387  -0.383  -0.350  -0.213  -0.194

 Beta MOs
 -- Occupied --
-24.691 -24.680 -10.253 -10.191 -10.190  -1.190  -1.183  -0.762
 -0.671  -0.562  -0.534  -0.490  -0.469  -0.428  -0.414  -0.402
 -0.391  -0.381  -0.373  -0.340

          Ground-State Mulliken Net Atomic Charges

     Atom                 Charge (a.u.)    Spin (a.u.)
  --------------------------------------------------------
      1 F                    -0.319062       0.029792
      2 F                    -0.264496       0.118729
      3 C                    -0.097311       0.930829
      4 C                     0.096999       0.881391
      5 C                    -0.326624      -0.051407
      6 H                     0.107168       0.007479
      7 H                     0.102416      -0.017069
      8 H                     0.355925       0.015025
      9 H                     0.123519       0.049634
     10 H                     0.094077       0.009816
     11 H                     0.127388       0.025781
  --------------------------------------------------------
  Sum of atomic charges =    -0.000000

                    Cartesian Multipole Moments
 -----------------------------------------------------------------
    Charge (ESU x 10^10)
                -0.0000
    Dipole Moment (Debye)
         X      -0.5161      Y      -0.1554      Z       0.7384
       Tot       0.9142
    Quadrupole Moments (Debye-Ang)
        XX     -27.6940     XY      -0.1166     YY     -32.2848
        XZ       0.7850     YZ      -4.4962     ZZ     -30.1543

 Final energy is   -317.470096183586
 **  OPTIMIZATION CONVERGED  **
 Total job time:  86.00s(wall), 974.46s(cpu)
        *  Thank you very much for using Q-Chem.  Have a nice day.  *
