 Q-Chem 5.1, Q-Chem, Inc., Pleasanton, CA (2018)
 Q-Chem 5.1.1 for Intel X86 EM64T Linux

User input:
--------------------------------------------------------------

$comment
potential surface scanner
$end

$rem
JOBTYPE  PES_SCAN
UNRESTRICTED TRUE
SYM_IGNORE  TRUE
GEOM_OPT_MAX_CYCLES 400
SCF_MAX_CYCLES 400
METHOD   B3LYP
BASIS   6-31G**
PDB_PRINT 2
SCF_CONVERGENCE 6
THRESH 14
SCF_PRINT 1
$end
$molecule
0 3
F 0.201894 0.700227 2.155986
F 0.788676 -1.136302 -1.178548
C -0.373809 0.880136 -0.578279
C 0.727993 -0.050343 -0.357814
C -1.762477 0.660090 -0.070404
H -0.245359 1.593960 -1.396845
H 1.723848 0.282729 -0.065152
H 0.379839 -0.012806 1.573886
H -2.252966 -0.166269 -0.609988
H -1.756223 0.406442 0.992404
H -2.377718 1.552538 -0.213543
$end
$scan
stre 1 3 2.700000 2.701000 0.100000
$end
--------------------------------------------------------------

   10    -317.4789863604      7.68e-07  Convergence criterion met
 Total energy in the final basis set =     -317.4789863604
   10    -317.4770579881      7.72e-07  Convergence criterion met
 Total energy in the final basis set =     -317.4770579881
   10    -317.4772413775      7.71e-07  Convergence criterion met
 Total energy in the final basis set =     -317.4772413775
   10    -317.4773000718      7.72e-07  Convergence criterion met
 Total energy in the final basis set =     -317.4773000718
   10    -317.4773174741      7.72e-07  Convergence criterion met
 Total energy in the final basis set =     -317.4773174741
   10    -317.4773319006      7.72e-07  Convergence criterion met
 Total energy in the final basis set =     -317.4773319006
   10    -317.4773380651      7.72e-07  Convergence criterion met
 Total energy in the final basis set =     -317.4773380651
   10    -317.4773426898      7.72e-07  Convergence criterion met
 Total energy in the final basis set =     -317.4773426898
   10    -317.4773453500      7.72e-07  Convergence criterion met
 Total energy in the final basis set =     -317.4773453500
   10    -317.4773472918      7.72e-07  Convergence criterion met
 Total energy in the final basis set =     -317.4773472918
   10    -317.4773487135      7.73e-07  Convergence criterion met
 Total energy in the final basis set =     -317.4773487135

             Standard Nuclear Orientation (Angstroms)
    I     Atom           X                Y                Z
 ----------------------------------------------------------------
    1      F       0.2213968214     0.8143304473     2.0905095604
    2      F       0.7657229023    -1.1353425224    -1.2217574406
    3      C      -0.3657485624     0.8745459910    -0.5441890973
    4      C       0.7219881272    -0.0804606439    -0.3606768186
    5      C      -1.7641595582     0.6379642255    -0.0707287714
    6      H      -0.2239206371     1.6240988831    -1.3280209864
    7      H       1.7219498002     0.2238546697    -0.0521804498
    8      H       0.3802831710     0.0344039875     1.5976299032
    9      H      -2.2518874379    -0.1545441791    -0.6608464878
   10      H      -1.7814341191     0.3297573743     0.9776973715
   11      H      -2.3704925073     1.5417937671    -0.1757337833
 ----------------------------------------------------------------

   10    -317.4773495863      7.73e-07  Convergence criterion met
 Total energy in the final basis set =     -317.4773495863

                    Orbital Energies (a.u.)
 --------------------------------------------------------------

 Alpha MOs
 -- Occupied --
-24.713 -24.663 -10.282 -10.218 -10.191  -1.221  -1.168  -0.801
 -0.702  -0.596  -0.533  -0.516  -0.489  -0.470  -0.431  -0.418
 -0.394  -0.378  -0.370  -0.360  -0.232  -0.214

 Beta MOs
 -- Occupied --
-24.707 -24.662 -10.270 -10.204 -10.191  -1.207  -1.164  -0.771
 -0.682  -0.572  -0.522  -0.501  -0.475  -0.439  -0.417  -0.408
 -0.385  -0.372  -0.367  -0.350

          Ground-State Mulliken Net Atomic Charges

     Atom                 Charge (a.u.)    Spin (a.u.)
  --------------------------------------------------------
      1 F                    -0.344685       0.035379
      2 F                    -0.252724       0.122218
      3 C                    -0.085308       0.947394
      4 C                     0.068482       0.832405
      5 C                    -0.338991      -0.054497
      6 H                     0.115518       0.007657
      7 H                     0.123815      -0.015680
      8 H                     0.338841       0.037415
      9 H                     0.125676       0.056500
     10 H                     0.128117       0.022418
     11 H                     0.121260       0.008789
  --------------------------------------------------------
  Sum of atomic charges =     0.000000

                    Cartesian Multipole Moments
 -----------------------------------------------------------------
    Charge (ESU x 10^10)
                -0.0000
    Dipole Moment (Debye)
         X      -0.1880      Y      -0.0294      Z      -0.8786
       Tot       0.8989
    Quadrupole Moments (Debye-Ang)
        XX     -26.9058     XY       0.0013     YY     -30.7611
        XZ       0.6712     YZ      -4.4772     ZZ     -33.4464

 Final energy is   -317.477349586284
 **  OPTIMIZATION CONVERGED  **
 Total job time:  38.26s(wall), 432.59s(cpu)
        *  Thank you very much for using Q-Chem.  Have a nice day.  *
