 Q-Chem 5.1, Q-Chem, Inc., Pleasanton, CA (2018)
 Q-Chem 5.1.1 for Intel X86 EM64T Linux

User input:
--------------------------------------------------------------

$comment
potential surface scanner
$end

$rem
JOBTYPE  PES_SCAN
UNRESTRICTED TRUE
SYM_IGNORE  TRUE
GEOM_OPT_MAX_CYCLES 400
SCF_MAX_CYCLES 400
METHOD   B3LYP
BASIS   6-31G**
PDB_PRINT 2
SCF_CONVERGENCE 6
THRESH 14
SCF_PRINT 1
$end
$molecule
0 1
F -0.486400 -1.298900 0.159500
F 1.889200 0.001700 -0.126500
C -0.435600 -0.028600 -0.332400
C 0.768200 0.660400 0.276200
C -1.735300 0.665500 0.023300
H -0.320900 -0.108600 -1.417700
H 0.851700 1.700600 -0.050500
H 0.742100 0.621000 1.368800
H -1.880200 0.688200 1.108400
H -1.756200 1.691300 -0.356400
H -2.582900 0.117800 -0.401000
$end
$scan
stre 1 3 1.200000 1.201000 0.100000
$end
--------------------------------------------------------------

    8    -317.6070310312      9.75e-07  Convergence criterion met
 Total energy in the final basis set =     -317.6070310312
    9    -317.5855806240      2.10e-07  Convergence criterion met
 Total energy in the final basis set =     -317.5855806240
    9    -317.5736550606      1.97e-07  Convergence criterion met
 Total energy in the final basis set =     -317.5736550606
    9    -317.5742835903      2.15e-07  Convergence criterion met
 Total energy in the final basis set =     -317.5742835903
    9    -317.5753796758      2.86e-07  Convergence criterion met
 Total energy in the final basis set =     -317.5753796758
    9    -317.5754229672      2.89e-07  Convergence criterion met
 Total energy in the final basis set =     -317.5754229672
    9    -317.5754851053      2.89e-07  Convergence criterion met
 Total energy in the final basis set =     -317.5754851053
    9    -317.5754888647      2.88e-07  Convergence criterion met
    9    -317.5755024165      2.88e-07  Convergence criterion met
 Total energy in the final basis set =     -317.5755024165
    9    -317.5755073878      2.88e-07  Convergence criterion met
 Total energy in the final basis set =     -317.5755073878
    9    -317.5755146725      2.88e-07  Convergence criterion met
 Total energy in the final basis set =     -317.5755146725
    9    -317.5755208915      2.87e-07  Convergence criterion met
 Total energy in the final basis set =     -317.5755208915
    9    -317.5755243895      2.86e-07  Convergence criterion met
 Total energy in the final basis set =     -317.5755243895
    9    -317.5755259419      2.86e-07  Convergence criterion met
 Total energy in the final basis set =     -317.5755259419

             Standard Nuclear Orientation (Angstroms)
    I     Atom           X                Y                Z
 ----------------------------------------------------------------
    1      F      -0.4832367536    -1.2429610031     0.0970865050
    2      F       1.9378613716     0.0116398383    -0.1341997656
    3      C      -0.4410845744    -0.1105954509    -0.2978457368
    4      C       0.7674800819     0.6388390634     0.2831867021
    5      C      -1.7370761384     0.6608256059     0.0324910048
    6      H      -0.3076299587    -0.0691802839    -1.4018036697
    7      H       0.7823320594     1.6809958907    -0.0538946370
    8      H       0.7364418053     0.6121909507     1.3812385376
    9      H      -1.8748733760     0.7416933773     1.1170456019
   10      H      -1.7298282669     1.6663724920    -0.3959097201
   11      H      -2.5966862502     0.1205795196    -0.3756948222
 ----------------------------------------------------------------

    9    -317.5755268214      2.87e-07  Convergence criterion met
 Total energy in the final basis set =     -317.5755268214

                    Orbital Energies (a.u.)
 --------------------------------------------------------------

 Alpha MOs
 -- Occupied --
-24.707 -24.669 -10.266 -10.254 -10.185  -1.292  -1.174  -0.780
 -0.695  -0.627  -0.555  -0.526  -0.507  -0.470  -0.462  -0.410
 -0.401  -0.385  -0.335  -0.318  -0.298

 Beta MOs
 -- Occupied --
-24.707 -24.669 -10.266 -10.254 -10.185  -1.292  -1.174  -0.780
 -0.695  -0.627  -0.555  -0.526  -0.507  -0.470  -0.462  -0.410
 -0.401  -0.385  -0.335  -0.318  -0.298

          Ground-State Mulliken Net Atomic Charges

     Atom                 Charge (a.u.)    Spin (a.u.)
  --------------------------------------------------------
      1 F                    -0.180368       0.000000
      2 F                    -0.322955      -0.000000
      3 C                     0.207079       0.000000
      4 C                     0.107459      -0.000000
      5 C                    -0.375817      -0.000000
      6 H                     0.054100       0.000000
      7 H                     0.085586       0.000000
      8 H                     0.089262       0.000000
      9 H                     0.109863       0.000000
     10 H                     0.107506       0.000000
     11 H                     0.118284       0.000000
  --------------------------------------------------------
  Sum of atomic charges =    -0.000000

                    Cartesian Multipole Moments
 -----------------------------------------------------------------
    Charge (ESU x 10^10)
                -0.0000
    Dipole Moment (Debye)
         X      -1.5614      Y       1.3711      Z       0.2035
       Tot       2.0879
    Quadrupole Moments (Debye-Ang)
        XX     -32.1590     XY       0.2689     YY     -29.1811
        XZ       0.7879     YZ       0.2598     ZZ     -28.2308

 Final energy is   -317.575526821396
 **  OPTIMIZATION CONVERGED  **
 Total job time:  50.31s(wall), 575.40s(cpu)
        *  Thank you very much for using Q-Chem.  Have a nice day.  *
