 Q-Chem 5.1, Q-Chem, Inc., Pleasanton, CA (2018)
 Q-Chem 5.1.1 for Intel X86 EM64T Linux

User input:
--------------------------------------------------------------

$comment
potential surface scanner
$end

$rem
JOBTYPE  PES_SCAN
UNRESTRICTED TRUE
SYM_IGNORE  TRUE
GEOM_OPT_MAX_CYCLES 400
SCF_MAX_CYCLES 400
METHOD   B3LYP
BASIS   6-31G**
PDB_PRINT 2
SCF_CONVERGENCE 6
THRESH 14
SCF_PRINT 1
$end
$molecule
0 3
F 0.132015 0.389434 2.319577
F 0.885988 -1.136972 -1.041355
C -0.405820 0.861945 -0.696624
C 0.743016 0.032427 -0.355747
C -1.756861 0.718727 -0.074329
H -0.321014 1.462601 -1.605897
H 1.714258 0.458328 -0.099118
H 0.402914 -0.098037 1.562990
H -2.307207 -0.127824 -0.517262
H -1.671305 0.534856 0.998751
H -2.362284 1.614916 -0.239284
$end
$scan
stre 1 3 3.000000 3.001000 0.100000
$end
--------------------------------------------------------------

   10    -317.4820980996      7.60e-07  Convergence criterion met
 Total energy in the final basis set =     -317.4820980996
   10    -317.4809452907      7.65e-07  Convergence criterion met
 Total energy in the final basis set =     -317.4809452907
   10    -317.4812036047      7.62e-07  Convergence criterion met
 Total energy in the final basis set =     -317.4812036047
   10    -317.4812762189      7.61e-07  Convergence criterion met
 Total energy in the final basis set =     -317.4812762189
   10    -317.4812905463      7.61e-07  Convergence criterion met
 Total energy in the final basis set =     -317.4812905463
   10    -317.4813015381      7.61e-07  Convergence criterion met
 Total energy in the final basis set =     -317.4813015381
   10    -317.4813057265      7.61e-07  Convergence criterion met
 Total energy in the final basis set =     -317.4813057265
   10    -317.4813101698      7.62e-07  Convergence criterion met
   10    -317.4813159426      7.62e-07  Convergence criterion met
 Total energy in the final basis set =     -317.4813159426
   10    -317.4813181112      7.63e-07  Convergence criterion met
 Total energy in the final basis set =     -317.4813181112
   10    -317.4813206292      7.63e-07  Convergence criterion met
 Total energy in the final basis set =     -317.4813206292
   10    -317.4813231521      7.62e-07  Convergence criterion met
 Total energy in the final basis set =     -317.4813231521
   10    -317.4813249974      7.62e-07  Convergence criterion met
 Total energy in the final basis set =     -317.4813249974
   10    -317.4813260104      7.62e-07  Convergence criterion met
 Total energy in the final basis set =     -317.4813260104

             Standard Nuclear Orientation (Angstroms)
    I     Atom           X                Y                Z
 ----------------------------------------------------------------
    1      F       0.1599333998     0.4921498023     2.2664387793
    2      F       0.8519781179    -1.1343169258    -1.1000410351
    3      C      -0.3952370465     0.8732233999    -0.6570128058
    4      C       0.7350933384     0.0027699712    -0.3579251069
    5      C      -1.7600808878     0.7010451654    -0.0731550038
    6      H      -0.2916778709     1.5204648568    -1.5318486769
    7      H       1.7143458049     0.3930427890    -0.0775083166
    8      H       0.3972601130    -0.0835471986     1.5631952816
    9      H      -2.2785588571    -0.1581577794    -0.5295964117
   10      H      -1.7004890203     0.5192117840     1.0023897173
   11      H      -2.3788670914     1.5845151353    -0.2532344214
 ----------------------------------------------------------------

   10    -317.4813266257      7.62e-07  Convergence criterion met
 Total energy in the final basis set =     -317.4813266257

                    Orbital Energies (a.u.)
 --------------------------------------------------------------

 Alpha MOs
 -- Occupied --
-24.717 -24.658 -10.287 -10.223 -10.192  -1.225  -1.161  -0.804
 -0.705  -0.600  -0.532  -0.518  -0.492  -0.472  -0.431  -0.421
 -0.396  -0.373  -0.369  -0.360  -0.234  -0.223

 Beta MOs
 -- Occupied --
-24.710 -24.656 -10.274 -10.210 -10.192  -1.210  -1.157  -0.774
 -0.685  -0.576  -0.518  -0.502  -0.479  -0.442  -0.417  -0.410
 -0.386  -0.370  -0.363  -0.353

          Ground-State Mulliken Net Atomic Charges

     Atom                 Charge (a.u.)    Spin (a.u.)
  --------------------------------------------------------
      1 F                    -0.356222       0.037231
      2 F                    -0.248431       0.125569
      3 C                    -0.086426       0.947514
      4 C                     0.065777       0.817465
      5 C                    -0.353916      -0.054265
      6 H                     0.120005       0.006789
      7 H                     0.127715      -0.011650
      8 H                     0.338209       0.040433
      9 H                     0.129029       0.060708
     10 H                     0.143317       0.020395
     11 H                     0.120940       0.009811
  --------------------------------------------------------
  Sum of atomic charges =    -0.000000

                    Cartesian Multipole Moments
 -----------------------------------------------------------------
    Charge (ESU x 10^10)
                 0.0000
    Dipole Moment (Debye)
         X      -0.1369      Y       0.3718      Z      -1.4844
       Tot       1.5363
    Quadrupole Moments (Debye-Ang)
        XX     -26.7920     XY       0.2654     YY     -30.1462
        XZ       0.7875     YZ      -3.6850     ZZ     -34.7017

 Final energy is   -317.481326625658
 **  OPTIMIZATION CONVERGED  **
 Total job time:  58.72s(wall), 599.09s(cpu)
        *  Thank you very much for using Q-Chem.  Have a nice day.  *
