 Q-Chem 5.1, Q-Chem, Inc., Pleasanton, CA (2018)
 Q-Chem 5.1.1 for Intel X86 EM64T Linux

User input:
--------------------------------------------------------------

$comment
potential surface scanner
$end

$rem
JOBTYPE  PES_SCAN
UNRESTRICTED TRUE
SYM_IGNORE  TRUE
GEOM_OPT_MAX_CYCLES 400
SCF_MAX_CYCLES 400
METHOD   B3LYP
BASIS   6-31G**
PDB_PRINT 2
SCF_CONVERGENCE 6
THRESH 14
SCF_PRINT 1
$end
$molecule
0 3
F 0.159933 0.492150 2.266439
F 0.851978 -1.134317 -1.100041
C -0.395237 0.873223 -0.657013
C 0.735093 0.002770 -0.357925
C -1.760081 0.701045 -0.073155
H -0.291678 1.520465 -1.531849
H 1.714346 0.393043 -0.077508
H 0.397260 -0.083547 1.563195
H -2.278559 -0.158158 -0.529596
H -1.700489 0.519212 1.002390
H -2.378867 1.584515 -0.253234
$end
$scan
stre 1 3 2.900000 2.901000 0.100000
$end
--------------------------------------------------------------

   10    -317.4813266278      7.62e-07  Convergence criterion met
 Total energy in the final basis set =     -317.4813266278
   10    -317.4799576709      7.66e-07  Convergence criterion met
 Total energy in the final basis set =     -317.4799576709
   10    -317.4801935377      7.64e-07  Convergence criterion met
 Total energy in the final basis set =     -317.4801935377
   10    -317.4802637373      7.64e-07  Convergence criterion met
 Total energy in the final basis set =     -317.4802637373
   10    -317.4802804409      7.64e-07  Convergence criterion met
 Total energy in the final basis set =     -317.4802804409
   10    -317.4802928322      7.64e-07  Convergence criterion met
 Total energy in the final basis set =     -317.4802928322
   10    -317.4802969892      7.64e-07  Convergence criterion met
 Total energy in the final basis set =     -317.4802969892
   10    -317.4803001519      7.65e-07  Convergence criterion met
 Total energy in the final basis set =     -317.4803001519
   10    -317.4803018923      7.65e-07  Convergence criterion met
 Total energy in the final basis set =     -317.4803018923
   10    -317.4803032513      7.65e-07  Convergence criterion met
 Total energy in the final basis set =     -317.4803032513
   10    -317.4803044975      7.65e-07  Convergence criterion met
 Total energy in the final basis set =     -317.4803044975
   10    -317.4803059629      7.65e-07  Convergence criterion met
 Total energy in the final basis set =     -317.4803059629
   10    -317.4803072238      7.65e-07  Convergence criterion met
 Total energy in the final basis set =     -317.4803072238

             Standard Nuclear Orientation (Angstroms)
    I     Atom           X                Y                Z
 ----------------------------------------------------------------
    1      F       0.1885297785     0.6005602785     2.2116477391
    2      F       0.8212357859    -1.1323664455    -1.1480138052
    3      C      -0.3847829452     0.8782063259    -0.6175267383
    4      C       0.7303837842    -0.0250605983    -0.3590209505
    5      C      -1.7622755388     0.6805961663    -0.0721798101
    6      H      -0.2674978821     1.5619615899    -1.4626716712
    7      H       1.7170018455     0.3339098835    -0.0645941535
    8      H       0.3864395953    -0.0556215842     1.5705561395
    9      H      -2.2633148555    -0.1689383751    -0.5643780837
   10      H      -1.7300005097     0.4718830613     0.9998186516
   11      H      -2.3820200581     1.5652706977    -0.2419343177
 ----------------------------------------------------------------

   10    -317.4803079872      7.65e-07  Convergence criterion met
 Total energy in the final basis set =     -317.4803079872

                    Orbital Energies (a.u.)
 --------------------------------------------------------------

 Alpha MOs
 -- Occupied --
-24.716 -24.659 -10.285 -10.222 -10.192  -1.224  -1.163  -0.803
 -0.704  -0.599  -0.532  -0.518  -0.491  -0.472  -0.431  -0.420
 -0.396  -0.374  -0.369  -0.361  -0.234  -0.221

 Beta MOs
 -- Occupied --
-24.709 -24.658 -10.273 -10.208 -10.192  -1.209  -1.159  -0.773
 -0.684  -0.575  -0.519  -0.502  -0.478  -0.441  -0.417  -0.409
 -0.386  -0.371  -0.364  -0.352

          Ground-State Mulliken Net Atomic Charges

     Atom                 Charge (a.u.)    Spin (a.u.)
  --------------------------------------------------------
      1 F                    -0.352907       0.036156
      2 F                    -0.249714       0.124373
      3 C                    -0.085588       0.948184
      4 C                     0.066154       0.821327
      5 C                    -0.349973      -0.054399
      6 H                     0.118914       0.007103
      7 H                     0.127215      -0.013077
      8 H                     0.337528       0.040333
      9 H                     0.127973       0.059244
     10 H                     0.139451       0.021919
     11 H                     0.120947       0.008837
  --------------------------------------------------------
  Sum of atomic charges =    -0.000000

                    Cartesian Multipole Moments
 -----------------------------------------------------------------
    Charge (ESU x 10^10)
                 0.0000
    Dipole Moment (Debye)
         X      -0.1766      Y       0.2129      Z      -1.2986
       Tot       1.3278
    Quadrupole Moments (Debye-Ang)
        XX     -26.8259     XY       0.1646     YY     -30.3136
        XZ       0.6995     YZ      -4.0170     ZZ     -34.3405

 Final energy is   -317.480307987181
 **  OPTIMIZATION CONVERGED  **
 Total job time:  49.51s(wall), 500.82s(cpu)
        *  Thank you very much for using Q-Chem.  Have a nice day.  *
