 Q-Chem 5.1, Q-Chem, Inc., Pleasanton, CA (2018)
 Q-Chem 5.1.1 for Intel X86 EM64T Linux

User input:
--------------------------------------------------------------

$comment
potential surface scanner
$end

$rem
JOBTYPE  PES_SCAN
UNRESTRICTED TRUE
SYM_IGNORE  TRUE
GEOM_OPT_MAX_CYCLES 400
SCF_MAX_CYCLES 400
METHOD   B3LYP
BASIS   6-31G**
PDB_PRINT 2
SCF_CONVERGENCE 6
THRESH 14
SCF_PRINT 1
$end
$molecule
0 3
F 0.039394 -0.099627 2.572382
F 1.020625 -1.100376 -0.807945
C -0.457010 0.801440 -0.877497
C 0.766363 0.174301 -0.394555
C -1.736792 0.794715 -0.103089
H -0.464495 1.194738 -1.896502
H 1.694200 0.728056 -0.241077
H 0.436954 -0.144020 1.725341
H -2.419165 0.011176 -0.470479
H -1.554886 0.604088 0.957294
H -2.271490 1.745908 -0.212171
$end
$scan
stre 1 3 3.500000 3.501000 0.100000
$end
--------------------------------------------------------------

   10    -317.4826724388      7.55e-07  Convergence criterion met
 Total energy in the final basis set =     -317.4826724388
   10    -317.4814021741      7.69e-07  Convergence criterion met
 Total energy in the final basis set =     -317.4814021741
   10    -317.4824321206      7.61e-07  Convergence criterion met
 Total energy in the final basis set =     -317.4824321206
   10    -317.4829378595      7.54e-07  Convergence criterion met
 Total energy in the final basis set =     -317.4829378595
   10    -317.4829582710      7.53e-07  Convergence criterion met
 Total energy in the final basis set =     -317.4829582710
   10    -317.4829618010      7.53e-07  Convergence criterion met
 Total energy in the final basis set =     -317.4829618010
   10    -317.4829634363      7.53e-07  Convergence criterion met
 Total energy in the final basis set =     -317.4829634363
   10    -317.4829649392      7.53e-07  Convergence criterion met
 Total energy in the final basis set =     -317.4829649392
   10    -317.4829668691      7.53e-07  Convergence criterion met
 Total energy in the final basis set =     -317.4829668691
   10    -317.4829689920      7.53e-07  Convergence criterion met
 Total energy in the final basis set =     -317.4829689920
   10    -317.4829711456      7.54e-07  Convergence criterion met
 Total energy in the final basis set =     -317.4829711456
   10    -317.4829730595      7.54e-07  Convergence criterion met
 Total energy in the final basis set =     -317.4829730595
   10    -317.4829744044      7.54e-07  Convergence criterion met
 Total energy in the final basis set =     -317.4829744044

             Standard Nuclear Orientation (Angstroms)
    I     Atom           X                Y                Z
 ----------------------------------------------------------------
    1      F       0.0315128189    -0.0429386731     2.5147916818
    2      F       0.9984117015    -1.1129433733    -0.8339047380
    3      C      -0.4466357658     0.8130313933    -0.8450733121
    4      C       0.7662373574     0.1520231580    -0.3807492913
    5      C      -1.7380615875     0.7844638187    -0.0917572869
    6      H      -0.4401777943     1.2349429746    -1.8527746679
    7      H       1.7037351325     0.6872546769    -0.2189905123
    8      H       0.4339896910    -0.1145370418     1.6704704586
    9      H      -2.3972815260    -0.0155694875    -0.4666382441
   10      H      -1.5685254918     0.6009862593     0.9715327066
   11      H      -2.2895065359     1.7236852950    -0.2152047944
 ----------------------------------------------------------------

   10    -317.4829750180      7.55e-07  Convergence criterion met
 Total energy in the final basis set =     -317.4829750180

                    Orbital Energies (a.u.)
 --------------------------------------------------------------

 Alpha MOs
 -- Occupied --
-24.717 -24.655 -10.289 -10.226 -10.194  -1.226  -1.158  -0.806
 -0.705  -0.602  -0.526  -0.519  -0.497  -0.474  -0.429  -0.424
 -0.398  -0.372  -0.369  -0.359  -0.232  -0.229

 Beta MOs
 -- Occupied --
-24.711 -24.654 -10.276 -10.212 -10.194  -1.210  -1.154  -0.776
 -0.685  -0.578  -0.511  -0.505  -0.484  -0.443  -0.415  -0.410
 -0.390  -0.368  -0.365  -0.352

          Ground-State Mulliken Net Atomic Charges

     Atom                 Charge (a.u.)    Spin (a.u.)
  --------------------------------------------------------
      1 F                    -0.362918       0.028805
      2 F                    -0.248615       0.128792
      3 C                    -0.091755       0.943977
      4 C                     0.080345       0.829959
      5 C                    -0.360506      -0.053527
      6 H                     0.119893       0.005717
      7 H                     0.120767      -0.009044
      8 H                     0.344621       0.032216
      9 H                     0.134109       0.061730
     10 H                     0.140113       0.006908
     11 H                     0.123948       0.024467
  --------------------------------------------------------
  Sum of atomic charges =    -0.000000

                    Cartesian Multipole Moments
 -----------------------------------------------------------------
    Charge (ESU x 10^10)
                 0.0000
    Dipole Moment (Debye)
         X       0.0120      Y       1.3035      Z      -2.0754
       Tot       2.4509
    Quadrupole Moments (Debye-Ang)
        XX     -26.7765     XY       0.6768     YY     -29.8767
        XZ       1.3786     YZ      -1.4724     ZZ     -35.5974

 Final energy is   -317.482975017954
 **  OPTIMIZATION CONVERGED  **
 Total job time:  43.09s(wall), 492.38s(cpu)
        *  Thank you very much for using Q-Chem.  Have a nice day.  *
