 Q-Chem 5.1, Q-Chem, Inc., Pleasanton, CA (2018)
 Q-Chem 5.1.1 for Intel X86 EM64T Linux

User input:
--------------------------------------------------------------

$comment
potential surface scanner
$end

$rem
JOBTYPE  PES_SCAN
UNRESTRICTED TRUE
SYM_IGNORE  TRUE
GEOM_OPT_MAX_CYCLES 400
SCF_MAX_CYCLES 400
METHOD   B3LYP
BASIS   6-31G**
PDB_PRINT 2
SCF_CONVERGENCE 6
THRESH 14
SCF_PRINT 1
$end
$molecule
0 3
F 0.178292 1.176167 1.432404
F 0.684376 -0.873547 -1.785958
C -0.277625 0.718396 -0.247652
C 0.650169 -0.371553 -0.509362
C -1.744094 0.426190 -0.094372
H -0.041985 1.679834 -0.712931
H 1.608313 -0.489556 -0.007996
H 0.392065 1.407367 2.351551
H -2.202129 0.136895 -1.052355
H -1.907275 -0.402786 0.602860
H -2.286408 1.302996 0.275508
$end
$scan
stre 1 3 1.700000 1.701000 0.100000
$end
--------------------------------------------------------------

   11    -317.4232671541      3.75e-07  Convergence criterion met
 Total energy in the final basis set =     -317.4232671541
   11    -317.4065064596      2.97e-07  Convergence criterion met
 Total energy in the final basis set =     -317.4065064596
   11    -317.4066442806      4.28e-07  Convergence criterion met
 Total energy in the final basis set =     -317.4066442806
   11    -317.4072889262      6.28e-07  Convergence criterion met
 Total energy in the final basis set =     -317.4072889262
   11    -317.4073504764      6.77e-07  Convergence criterion met
 Total energy in the final basis set =     -317.4073504764
   11    -317.4073580568      6.88e-07  Convergence criterion met
 Total energy in the final basis set =     -317.4073580568
   11    -317.4073633242      6.91e-07  Convergence criterion met
 Total energy in the final basis set =     -317.4073633242
   11    -317.4073695366      6.89e-07  Convergence criterion met
 Total energy in the final basis set =     -317.4073695366
   11    -317.4073734000      6.84e-07  Convergence criterion met
 Total energy in the final basis set =     -317.4073734000
   11    -317.4073758004      6.79e-07  Convergence criterion met
 Total energy in the final basis set =     -317.4073758004
   11    -317.4073772909      6.78e-07  Convergence criterion met
 Total energy in the final basis set =     -317.4073772909
   11    -317.4073783556      6.80e-07  Convergence criterion met
 Total energy in the final basis set =     -317.4073783556

             Standard Nuclear Orientation (Angstroms)
    I     Atom           X                Y                Z
 ----------------------------------------------------------------
    1      F       0.1665891903     1.1505782214     1.3953462781
    2      F       0.6157984432    -0.8644906093    -1.7683115484
    3      C      -0.2664776818     0.7269066059    -0.1930353093
    4      C       0.6489388797    -0.3730269520    -0.4906792264
    5      C      -1.7378384131     0.4243415950    -0.0940601290
    6      H      -0.0389542501     1.6708364885    -0.6989281574
    7      H       1.6332347388    -0.4763965611    -0.0401607339
    8      H       0.3995074237     1.4264736426     2.3607903090
    9      H      -2.1503617838     0.1323004706    -1.0705501701
   10      H      -1.9189431523    -0.4053242108     0.5970877346
   11      H      -2.2977943946     1.2982043092     0.2541979527
 ----------------------------------------------------------------

   11    -317.4073792139      6.83e-07  Convergence criterion met
 Total energy in the final basis set =     -317.4073792139

                    Orbital Energies (a.u.)
 --------------------------------------------------------------

 Alpha MOs
 -- Occupied --
-24.708 -24.686 -10.250 -10.212 -10.179  -1.197  -1.192  -0.791
 -0.682  -0.611  -0.546  -0.489  -0.486  -0.447  -0.433  -0.410
 -0.395  -0.391  -0.366  -0.339  -0.190  -0.148

 Beta MOs
 -- Occupied --
-24.705 -24.681 -10.236 -10.200 -10.179  -1.190  -1.179  -0.766
 -0.664  -0.589  -0.528  -0.476  -0.471  -0.435  -0.408  -0.405
 -0.388  -0.384  -0.356  -0.329

          Ground-State Mulliken Net Atomic Charges

     Atom                 Charge (a.u.)    Spin (a.u.)
  --------------------------------------------------------
      1 F                    -0.248581      -0.074418
      2 F                    -0.275428       0.105328
      3 C                    -0.027721       0.679745
      4 C                     0.145701       0.926847
      5 C                    -0.318051      -0.028543
      6 H                     0.101396       0.025016
      7 H                     0.086991      -0.028090
      8 H                     0.199991       0.335446
      9 H                     0.117172       0.036079
     10 H                     0.112906       0.011433
     11 H                     0.105625       0.011157
  --------------------------------------------------------
  Sum of atomic charges =    -0.000000

                    Cartesian Multipole Moments
 -----------------------------------------------------------------
    Charge (ESU x 10^10)
                 0.0000
    Dipole Moment (Debye)
         X      -0.0394      Y       1.2321      Z       1.7951
       Tot       2.1776
    Quadrupole Moments (Debye-Ang)
        XX     -28.0507     XY       0.3127     YY     -29.2235
        XZ       1.5763     YZ       0.0139     ZZ     -28.6083

 Final energy is   -317.407379213909
 **  OPTIMIZATION CONVERGED  **
 Total job time:  43.50s(wall), 499.26s(cpu)
        *  Thank you very much for using Q-Chem.  Have a nice day.  *
