 Q-Chem 5.1, Q-Chem, Inc., Pleasanton, CA (2018)
 Q-Chem 5.1.1 for Intel X86 EM64T Linux

User input:
--------------------------------------------------------------

$comment
potential surface scanner
$end

$rem
JOBTYPE  PES_SCAN
UNRESTRICTED TRUE
SYM_IGNORE  TRUE
GEOM_OPT_MAX_CYCLES 400
SCF_MAX_CYCLES 400
METHOD   B3LYP
BASIS   6-31G**
PDB_PRINT 2
SCF_CONVERGENCE 6
THRESH 14
SCF_PRINT 1
$end
$molecule
0 3
F 0.036419 -0.159872 2.713278
F 1.034506 -1.084323 -0.816579
C -0.466510 0.799273 -0.929126
C 0.768711 0.200102 -0.440750
C -1.727495 0.804177 -0.123752
H -0.498780 1.168954 -1.956092
H 1.689775 0.767577 -0.300211
H 0.425305 -0.184816 1.864589
H -2.429727 0.033522 -0.479610
H -1.523434 0.603904 0.931462
H -2.255074 1.761903 -0.211507
$end
$scan
stre 1 3 3.700000 3.701000 0.100000
$end
--------------------------------------------------------------

   10    -317.4815574695      7.59e-07  Convergence criterion met
 Total energy in the final basis set =     -317.4815574695
   10    -317.4805455423      7.80e-07  Convergence criterion met
 Total energy in the final basis set =     -317.4805455423
   10    -317.4816222628      7.68e-07  Convergence criterion met
 Total energy in the final basis set =     -317.4816222628
   10    -317.4821515091      7.57e-07  Convergence criterion met
 Total energy in the final basis set =     -317.4821515091
   10    -317.4821735928      7.56e-07  Convergence criterion met
 Total energy in the final basis set =     -317.4821735928
   10    -317.4821778131      7.56e-07  Convergence criterion met
 Total energy in the final basis set =     -317.4821778131
   10    -317.4821796477      7.56e-07  Convergence criterion met
 Total energy in the final basis set =     -317.4821796477
   10    -317.4821808376      7.56e-07  Convergence criterion met
 Total energy in the final basis set =     -317.4821808376

             Standard Nuclear Orientation (Angstroms)
    I     Atom           X                Y                Z
 ----------------------------------------------------------------
    1      F       0.0322468728    -0.1374365839     2.6385578793
    2      F       1.0320750838    -1.0895546689    -0.8024914721
    3      C      -0.4627700686     0.7982430825    -0.9067858152
    4      C       0.7682505730     0.1920533020    -0.4163738114
    5      C      -1.7304179097     0.8010210312    -0.1124219235
    6      H      -0.4852508801     1.1705606605    -1.9331528499
    7      H       1.6915186148     0.7556533555    -0.2729976484
    8      H       0.4276805513    -0.1680907756     1.7919818507
    9      H      -2.4276233109     0.0269412063    -0.4718634493
   10      H      -1.5327450228     0.6034984988     0.9439282572
   11      H      -2.2592685037     1.7575118915    -0.2066790175
 ----------------------------------------------------------------

   10    -317.4821817558      7.56e-07  Convergence criterion met
 Total energy in the final basis set =     -317.4821817558

                    Orbital Energies (a.u.)
 --------------------------------------------------------------

 Alpha MOs
 -- Occupied --
-24.715 -24.657 -10.286 -10.225 -10.196  -1.223  -1.159  -0.805
 -0.704  -0.601  -0.523  -0.516  -0.498  -0.473  -0.428  -0.424
 -0.397  -0.372  -0.370  -0.361  -0.229  -0.227

 Beta MOs
 -- Occupied --
-24.709 -24.656 -10.274 -10.212 -10.196  -1.208  -1.157  -0.775
 -0.683  -0.577  -0.510  -0.504  -0.484  -0.442  -0.414  -0.410
 -0.389  -0.369  -0.367  -0.352

          Ground-State Mulliken Net Atomic Charges

     Atom                 Charge (a.u.)    Spin (a.u.)
  --------------------------------------------------------
      1 F                    -0.361242       0.019048
      2 F                    -0.252272       0.127306
      3 C                    -0.093319       0.943280
      4 C                     0.091720       0.847925
      5 C                    -0.358132      -0.053199
      6 H                     0.118786       0.004499
      7 H                     0.116026      -0.010307
      8 H                     0.345035       0.027693
      9 H                     0.134436       0.059589
     10 H                     0.133609       0.004602
     11 H                     0.125354       0.029563
  --------------------------------------------------------
  Sum of atomic charges =    -0.000000

                    Cartesian Multipole Moments
 -----------------------------------------------------------------
    Charge (ESU x 10^10)
                 0.0000
    Dipole Moment (Debye)
         X      -0.0362      Y       1.3948      Z      -2.1010
       Tot       2.5221
    Quadrupole Moments (Debye-Ang)
        XX     -26.8829     XY       0.6810     YY     -29.8492
        XZ       1.5130     YZ      -1.1967     ZZ     -35.8762

 Final energy is   -317.482181755819
 **  OPTIMIZATION CONVERGED  **
 Total job time:  28.38s(wall), 319.86s(cpu)
        *  Thank you very much for using Q-Chem.  Have a nice day.  *
