 Q-Chem 5.1, Q-Chem, Inc., Pleasanton, CA (2018)
 Q-Chem 5.1.1 for Intel X86 EM64T Linux

User input:
--------------------------------------------------------------

$comment
potential surface scanner
$end

$rem
JOBTYPE  PES_SCAN
UNRESTRICTED TRUE
SYM_IGNORE  TRUE
GEOM_OPT_MAX_CYCLES 400
SCF_MAX_CYCLES 400
METHOD   B3LYP
BASIS   6-31G**
PDB_PRINT 2
SCF_CONVERGENCE 6
THRESH 14
SCF_PRINT 1
$end
$molecule
0 1
F -0.486400 -1.298900 0.159500
F 1.889200 0.001700 -0.126500
C -0.435600 -0.028600 -0.332400
C 0.768200 0.660400 0.276200
C -1.735300 0.665500 0.023300
H -0.320900 -0.108600 -1.417700
H 0.851700 1.700600 -0.050500
H 0.742100 0.621000 1.368800
H -1.880200 0.688200 1.108400
H -1.756200 1.691300 -0.356400
H -2.582900 0.117800 -0.401000
$end
$scan
stre 1 3 0.900000 0.901000 0.100000
$end
--------------------------------------------------------------

    8    -317.6070310312      9.75e-07  Convergence criterion met
 Total energy in the final basis set =     -317.6070310312
    9    -317.5855806240      2.10e-07  Convergence criterion met
 Total energy in the final basis set =     -317.5855806240
    9    -317.4922834259      2.29e-07  Convergence criterion met
 Total energy in the final basis set =     -317.4922834259
    9    -317.3756092500      2.45e-07  Convergence criterion met
 Total energy in the final basis set =     -317.3756092500
    9    -317.1724945578      3.43e-07  Convergence criterion met
 Total energy in the final basis set =     -317.1724945578
    9    -317.1454595221      3.63e-07  Convergence criterion met
 Total energy in the final basis set =     -317.1454595221
    9    -317.1319321724      3.96e-07  Convergence criterion met
 Total energy in the final basis set =     -317.1319321724
    9    -317.1334436552      4.57e-07  Convergence criterion met
    9    -317.1342001635      4.97e-07  Convergence criterion met
 Total energy in the final basis set =     -317.1342001635
    9    -317.1342094643      4.94e-07  Convergence criterion met
 Total energy in the final basis set =     -317.1342094643
    9    -317.1342193113      4.93e-07  Convergence criterion met
 Total energy in the final basis set =     -317.1342193113
    9    -317.1342252527      4.95e-07  Convergence criterion met
 Total energy in the final basis set =     -317.1342252527
    9    -317.1342270882      4.97e-07  Convergence criterion met
 Total energy in the final basis set =     -317.1342270882
    9    -317.1342276855      4.97e-07  Convergence criterion met
 Total energy in the final basis set =     -317.1342276855

             Standard Nuclear Orientation (Angstroms)
    I     Atom           X                Y                Z
 ----------------------------------------------------------------
    1      F      -0.4504958535    -1.1042222316    -0.0227402738
    2      F       1.9554263846    -0.0493613826    -0.0439063015
    3      C      -0.4375103393    -0.2415150397    -0.2788025562
    4      C       0.7793737303     0.6410249845     0.2927158540
    5      C      -1.7621938770     0.6343867765     0.0634651159
    6      H      -0.3151780476    -0.0220707646    -1.4256574457
    7      H       0.7989157791     1.6401866229    -0.1509953793
    8      H       0.7464351578     0.7189302259     1.3916907139
    9      H      -1.9251540422     0.7038769801     1.1487701101
   10      H      -1.6932441276     1.6431732372    -0.3487913752
   11      H      -2.6426747645     0.1459905912    -0.3740484622
 ----------------------------------------------------------------

    9    -317.1342283020      4.97e-07  Convergence criterion met
 Total energy in the final basis set =     -317.1342283020

                    Orbital Energies (a.u.)
 --------------------------------------------------------------

 Alpha MOs
 -- Occupied --
-24.810 -24.659 -10.314 -10.230 -10.162  -1.582  -1.161  -0.763
 -0.745  -0.733  -0.700  -0.632  -0.532  -0.464  -0.459  -0.400
 -0.389  -0.378  -0.326  -0.266  -0.253

 Beta MOs
 -- Occupied --
-24.810 -24.659 -10.314 -10.230 -10.162  -1.582  -1.161  -0.763
 -0.745  -0.733  -0.700  -0.632  -0.532  -0.464  -0.459  -0.400
 -0.389  -0.378  -0.326  -0.266  -0.253

          Ground-State Mulliken Net Atomic Charges

     Atom                 Charge (a.u.)    Spin (a.u.)
  --------------------------------------------------------
      1 F                     0.349050       0.000000
      2 F                    -0.340984      -0.000000
      3 C                     0.026471      -0.000000
      4 C                     0.030583      -0.000000
      5 C                    -0.452108       0.000000
      6 H                    -0.064585      -0.000000
      7 H                     0.086782      -0.000000
      8 H                     0.072767      -0.000000
      9 H                     0.090362       0.000000
     10 H                     0.106821      -0.000000
     11 H                     0.094842      -0.000000
  --------------------------------------------------------
  Sum of atomic charges =     0.000000

                    Cartesian Multipole Moments
 -----------------------------------------------------------------
    Charge (ESU x 10^10)
                -0.0000
    Dipole Moment (Debye)
         X      -1.5415      Y      -0.5168      Z       0.6682
       Tot       1.7578
    Quadrupole Moments (Debye-Ang)
        XX     -34.0086     XY       1.5009     YY     -27.3827
        XZ       0.3518     YZ      -0.0020     ZZ     -29.6773

 Final energy is   -317.134228301975
 **  OPTIMIZATION CONVERGED  **
 Total job time:  85.95s(wall), 989.96s(cpu)
        *  Thank you very much for using Q-Chem.  Have a nice day.  *
