 Q-Chem 5.1, Q-Chem, Inc., Pleasanton, CA (2018)
 Q-Chem 5.1.1 for Intel X86 EM64T Linux

User input:
--------------------------------------------------------------

$comment
potential surface scanner
$end

$rem
JOBTYPE  PES_SCAN
UNRESTRICTED TRUE
SYM_IGNORE  TRUE
GEOM_OPT_MAX_CYCLES 400
SCF_MAX_CYCLES 400
METHOD   B3LYP
BASIS   6-31G**
PDB_PRINT 2
SCF_CONVERGENCE 6
THRESH 14
SCF_PRINT 1
$end
$molecule
0 1
F -0.501100 -1.338609 0.171403
F 1.935757 0.044020 -0.183794
C -0.439106 -0.029879 -0.321934
C 0.775717 0.643138 0.283386
C -1.739881 0.678918 0.017200
H -0.300311 -0.099328 -1.408585
H 0.794201 1.706456 0.012969
H 0.744525 0.550212 1.375843
H -1.860624 0.771370 1.101223
H -1.771247 1.679561 -0.424808
H -2.584231 0.104541 -0.371202
$end
$scan
stre 1 3 1.500000 1.501000 0.100000
$end
--------------------------------------------------------------

    9    -317.6092032149      5.13e-07  Convergence criterion met
 Total energy in the final basis set =     -317.6092032149
    9    -317.6040527536      7.48e-07  Convergence criterion met
 Total energy in the final basis set =     -317.6040527536
    9    -317.6043423889      7.56e-07  Convergence criterion met
 Total energy in the final basis set =     -317.6043423889
    9    -317.6044693472      7.60e-07  Convergence criterion met
 Total energy in the final basis set =     -317.6044693472
    9    -317.6044770694      7.61e-07  Convergence criterion met
 Total energy in the final basis set =     -317.6044770694
    9    -317.6044794150      7.60e-07  Convergence criterion met
 Total energy in the final basis set =     -317.6044794150
    9    -317.6044818003      7.59e-07  Convergence criterion met
 Total energy in the final basis set =     -317.6044818003
    9    -317.6044845429      7.57e-07  Convergence criterion met
 Total energy in the final basis set =     -317.6044845429
    9    -317.6044862662      7.56e-07  Convergence criterion met
 Total energy in the final basis set =     -317.6044862662

             Standard Nuclear Orientation (Angstroms)
    I     Atom           X                Y                Z
 ----------------------------------------------------------------
    1      F      -0.5097691356    -1.3869892836     0.2067648401
    2      F       1.9353230626     0.0571709998    -0.2037681668
    3      C      -0.4373905896     0.0094745736    -0.3360511945
    4      C       0.7808472359     0.6461479331     0.2834920344
    5      C      -1.7424905368     0.6874812115     0.0107522528
    6      H      -0.2973317632    -0.1102950752    -1.4140666064
    7      H       0.8041980888     1.7177286099     0.0437920332
    8      H       0.7473588072     0.5231807615     1.3721211638
    9      H      -1.8546702951     0.7849930965     1.0946044427
   10      H      -1.7941291365     1.6854714313    -0.4372582667
   11      H      -2.5782457377     0.0960357416    -0.3686815325
 ----------------------------------------------------------------

    9    -317.6044867439      7.56e-07  Convergence criterion met
 Total energy in the final basis set =     -317.6044867439

                    Orbital Energies (a.u.)
 --------------------------------------------------------------

 Alpha MOs
 -- Occupied --
-24.677 -24.654 -10.273 -10.269 -10.199  -1.185  -1.134  -0.802
 -0.704  -0.609  -0.514  -0.500  -0.480  -0.454  -0.425  -0.408
 -0.394  -0.366  -0.341  -0.333  -0.320

 Beta MOs
 -- Occupied --
-24.677 -24.654 -10.273 -10.269 -10.199  -1.185  -1.134  -0.802
 -0.704  -0.609  -0.514  -0.500  -0.480  -0.454  -0.425  -0.408
 -0.394  -0.366  -0.341  -0.333  -0.320

          Ground-State Mulliken Net Atomic Charges

     Atom                 Charge (a.u.)    Spin (a.u.)
  --------------------------------------------------------
      1 F                    -0.355322       0.000000
      2 F                    -0.312099       0.000000
      3 C                     0.191385       0.000000
      4 C                     0.136061      -0.000000
      5 C                    -0.348539       0.000000
      6 H                     0.114749      -0.000000
      7 H                     0.090046      -0.000000
      8 H                     0.109094      -0.000000
      9 H                     0.124765       0.000000
     10 H                     0.112564      -0.000000
     11 H                     0.137296       0.000000
  --------------------------------------------------------
  Sum of atomic charges =     0.000000

                    Cartesian Multipole Moments
 -----------------------------------------------------------------
    Charge (ESU x 10^10)
                 0.0000
    Dipole Moment (Debye)
         X      -1.5057      Y       2.5807      Z      -0.1208
       Tot       2.9903
    Quadrupole Moments (Debye-Ang)
        XX     -31.1196     XY      -0.5483     YY     -30.3597
        XZ       1.1740     YZ       0.6411     ZZ     -27.5212

 Final energy is   -317.604486743928
 **  OPTIMIZATION CONVERGED  **
 Total job time:  30.54s(wall), 341.34s(cpu)
        *  Thank you very much for using Q-Chem.  Have a nice day.  *
