 Q-Chem 5.1, Q-Chem, Inc., Pleasanton, CA (2018)
 Q-Chem 5.1.1 for Intel X86 EM64T Linux

User input:
--------------------------------------------------------------

$comment
potential surface scanner
$end

$rem
JOBTYPE  PES_SCAN
UNRESTRICTED TRUE
SYM_IGNORE  TRUE
GEOM_OPT_MAX_CYCLES 400
SCF_MAX_CYCLES 400
METHOD   B3LYP
BASIS   6-31G**
PDB_PRINT 2
SCF_CONVERGENCE 6
THRESH 14
SCF_PRINT 1
$end
$molecule
0 3
F 0.221397 0.814330 2.090510
F 0.765723 -1.135343 -1.221757
C -0.365749 0.874546 -0.544189
C 0.721988 -0.080461 -0.360677
C -1.764160 0.637964 -0.070729
H -0.223921 1.624099 -1.328021
H 1.721950 0.223855 -0.052180
H 0.380283 0.034404 1.597630
H -2.251887 -0.154544 -0.660846
H -1.781434 0.329757 0.977697
H -2.370493 1.541794 -0.175734
$end
$scan
stre 1 3 2.600000 2.601000 0.100000
$end
--------------------------------------------------------------

   10    -317.4773495950      7.73e-07  Convergence criterion met
 Total energy in the final basis set =     -317.4773495950
   10    -317.4751037090      7.78e-07  Convergence criterion met
 Total energy in the final basis set =     -317.4751037090
   10    -317.4752465752      7.78e-07  Convergence criterion met
 Total energy in the final basis set =     -317.4752465752
   10    -317.4752946860      7.78e-07  Convergence criterion met
 Total energy in the final basis set =     -317.4752946860
   10    -317.4753121644      7.79e-07  Convergence criterion met
 Total energy in the final basis set =     -317.4753121644
   10    -317.4753270815      7.79e-07  Convergence criterion met
 Total energy in the final basis set =     -317.4753270815
   10    -317.4753342588      7.79e-07  Convergence criterion met
 Total energy in the final basis set =     -317.4753342588
   10    -317.4753397224      7.79e-07  Convergence criterion met
 Total energy in the final basis set =     -317.4753397224
   10    -317.4753436993      7.79e-07  Convergence criterion met
 Total energy in the final basis set =     -317.4753436993
   10    -317.4753471873      7.79e-07  Convergence criterion met
 Total energy in the final basis set =     -317.4753471873
   10    -317.4753500107      7.79e-07  Convergence criterion met
 Total energy in the final basis set =     -317.4753500107
   10    -317.4753516750      7.80e-07  Convergence criterion met
 Total energy in the final basis set =     -317.4753516750

             Standard Nuclear Orientation (Angstroms)
    I     Atom           X                Y                Z
 ----------------------------------------------------------------
    1      F       0.2404301973     0.9404154788     2.0135370118
    2      F       0.7503656967    -1.1376632628    -1.2632111698
    3      C      -0.3583789112     0.8622038056    -0.5153585475
    4      C       0.7154201891    -0.1136138933    -0.3651058894
    5      C      -1.7646734343     0.6137627078    -0.0713060525
    6      H      -0.2030899670     1.6480996381    -1.2599077465
    7      H       1.7166611586     0.1625063589    -0.0358636738
    8      H       0.3749374533     0.0979284024     1.6325569186
    9      H      -2.2614264868    -0.1219626622    -0.7239107344
   10      H      -1.8013921936     0.2253128524     0.9500106964
   11      H      -2.3551567023     1.5334115744    -0.1097368128
 ----------------------------------------------------------------

   10    -317.4753523287      7.80e-07  Convergence criterion met
 Total energy in the final basis set =     -317.4753523287

                    Orbital Energies (a.u.)
 --------------------------------------------------------------

 Alpha MOs
 -- Occupied --
-24.710 -24.667 -10.279 -10.215 -10.190  -1.218  -1.172  -0.798
 -0.700  -0.594  -0.533  -0.514  -0.488  -0.468  -0.430  -0.416
 -0.393  -0.381  -0.373  -0.358  -0.229  -0.209

 Beta MOs
 -- Occupied --
-24.704 -24.665 -10.266 -10.201 -10.190  -1.204  -1.168  -0.769
 -0.680  -0.570  -0.524  -0.499  -0.474  -0.437  -0.416  -0.407
 -0.385  -0.373  -0.369  -0.348

          Ground-State Mulliken Net Atomic Charges

     Atom                 Charge (a.u.)    Spin (a.u.)
  --------------------------------------------------------
      1 F                    -0.338418       0.034540
      2 F                    -0.255284       0.120831
      3 C                    -0.086262       0.944978
      4 C                     0.072185       0.843014
      5 C                    -0.331313      -0.054168
      6 H                     0.113119       0.007593
      7 H                     0.119752      -0.016878
      8 H                     0.341430       0.033528
      9 H                     0.124389       0.055126
     10 H                     0.118786       0.021470
     11 H                     0.121617       0.009964
  --------------------------------------------------------
  Sum of atomic charges =    -0.000000

                    Cartesian Multipole Moments
 -----------------------------------------------------------------
    Charge (ESU x 10^10)
                -0.0000
    Dipole Moment (Debye)
         X      -0.2048      Y      -0.1353      Z      -0.5462
       Tot       0.5988
    Quadrupole Moments (Debye-Ang)
        XX     -27.0269     XY      -0.0721     YY     -31.0706
        XZ       0.7257     YZ      -4.6553     ZZ     -32.7657

 Final energy is   -317.475352328736
 **  OPTIMIZATION CONVERGED  **
 Total job time:  42.41s(wall), 470.77s(cpu)
        *  Thank you very much for using Q-Chem.  Have a nice day.  *
