 Q-Chem 5.1, Q-Chem, Inc., Pleasanton, CA (2018)
 Q-Chem 5.1.1 for Intel X86 EM64T Linux

User input:
--------------------------------------------------------------

$comment
potential surface scanner
$end

$rem
JOBTYPE  PES_SCAN
UNRESTRICTED TRUE
SYM_IGNORE  TRUE
GEOM_OPT_MAX_CYCLES 400
SCF_MAX_CYCLES 400
METHOD   B3LYP
BASIS   6-31G**
PDB_PRINT 2
SCF_CONVERGENCE 6
THRESH 14
SCF_PRINT 1
$end
$molecule
0 1
F -0.492469 -1.290829 0.135136
F 1.936534 0.030868 -0.163226
C -0.440444 -0.070064 -0.308741
C 0.770926 0.640137 0.283724
C -1.737740 0.670453 0.023923
H -0.303283 -0.085803 -1.403737
H 0.785028 1.694633 -0.016239
H 0.741628 0.576159 1.379206
H -1.865954 0.761228 1.107978
H -1.750231 1.672074 -0.415102
H -2.590295 0.111544 -0.371222
$end
$scan
stre 1 3 1.400000 1.401000 0.100000
$end
--------------------------------------------------------------

    9    -317.6026579405      2.97e-07  Convergence criterion met
 Total energy in the final basis set =     -317.6026579405
    9    -317.6084566219      5.99e-07  Convergence criterion met
 Total energy in the final basis set =     -317.6084566219
    9    -317.6090672571      5.36e-07  Convergence criterion met
 Total energy in the final basis set =     -317.6090672571
    9    -317.6091855399      5.12e-07  Convergence criterion met
 Total energy in the final basis set =     -317.6091855399
    9    -317.6091929387      5.08e-07  Convergence criterion met
 Total energy in the final basis set =     -317.6091929387
    9    -317.6091954514      5.10e-07  Convergence criterion met
 Total energy in the final basis set =     -317.6091954514
    9    -317.6091980948      5.12e-07  Convergence criterion met
 Total energy in the final basis set =     -317.6091980948
    9    -317.6092011008      5.14e-07  Convergence criterion met
 Total energy in the final basis set =     -317.6092011008
    9    -317.6092028046      5.14e-07  Convergence criterion met
 Total energy in the final basis set =     -317.6092028046

             Standard Nuclear Orientation (Angstroms)
    I     Atom           X                Y                Z
 ----------------------------------------------------------------
    1      F      -0.5010996251    -1.3386090279     0.1714027820
    2      F       1.9357574984     0.0440201236    -0.1837940694
    3      C      -0.4391064079    -0.0298786062    -0.3219336389
    4      C       0.7757166580     0.6431384924     0.2833859456
    5      C      -1.7398810317     0.6789181576     0.0171998129
    6      H      -0.3003109937    -0.0993283727    -1.4085852994
    7      H       0.7942011952     1.7064555319     0.0129687148
    8      H       0.7445248550     0.5502119802     1.3758430776
    9      H      -1.8606240377     0.7713696445     1.1012227609
   10      H      -1.7712470342     1.6795610606    -0.4248083637
   11      H      -2.5842310762     0.1045410161    -0.3712017224
 ----------------------------------------------------------------

    9    -317.6092032146      5.13e-07  Convergence criterion met
 Total energy in the final basis set =     -317.6092032146

                    Orbital Energies (a.u.)
 --------------------------------------------------------------

 Alpha MOs
 -- Occupied --
-24.674 -24.670 -10.269 -10.264 -10.195  -1.185  -1.172  -0.795
 -0.700  -0.610  -0.520  -0.499  -0.488  -0.457  -0.439  -0.408
 -0.399  -0.376  -0.339  -0.333  -0.316

 Beta MOs
 -- Occupied --
-24.674 -24.670 -10.269 -10.264 -10.195  -1.185  -1.172  -0.795
 -0.700  -0.610  -0.520  -0.499  -0.488  -0.457  -0.439  -0.408
 -0.399  -0.376  -0.339  -0.333  -0.316

          Ground-State Mulliken Net Atomic Charges

     Atom                 Charge (a.u.)    Spin (a.u.)
  --------------------------------------------------------
      1 F                    -0.324846       0.000000
      2 F                    -0.315153      -0.000000
      3 C                     0.212736      -0.000000
      4 C                     0.130085      -0.000000
      5 C                    -0.354059      -0.000000
      6 H                     0.099062      -0.000000
      7 H                     0.088097      -0.000000
      8 H                     0.102284      -0.000000
      9 H                     0.120126       0.000000
     10 H                     0.110525       0.000000
     11 H                     0.131144       0.000000
  --------------------------------------------------------
  Sum of atomic charges =    -0.000000

                    Cartesian Multipole Moments
 -----------------------------------------------------------------
    Charge (ESU x 10^10)
                -0.0000
    Dipole Moment (Debye)
         X      -1.5264      Y       2.2070      Z      -0.0172
       Tot       2.6834
    Quadrupole Moments (Debye-Ang)
        XX     -31.4284     XY      -0.2974     YY     -29.9947
        XZ       1.0504     YZ       0.5057     ZZ     -27.7171

 Final energy is   -317.609203214565
 **  OPTIMIZATION CONVERGED  **
 Total job time:  31.61s(wall), 342.71s(cpu)
        *  Thank you very much for using Q-Chem.  Have a nice day.  *
