 Q-Chem 5.1, Q-Chem, Inc., Pleasanton, CA (2018)
 Q-Chem 5.1.1 for Intel X86 EM64T Linux

User input:
--------------------------------------------------------------

$comment
potential surface scanner
$end

$rem
JOBTYPE  PES_SCAN
UNRESTRICTED TRUE
SYM_IGNORE  TRUE
GEOM_OPT_MAX_CYCLES 400
SCF_MAX_CYCLES 400
METHOD   B3LYP
BASIS   6-31G**
PDB_PRINT 2
SCF_CONVERGENCE 6
THRESH 14
SCF_PRINT 1
$end
$molecule
0 3
F -0.548802 -1.583162 0.369648
F 1.936004 0.127953 -0.296822
C -0.429043 0.152012 -0.395092
C 0.799877 0.659397 0.275368
C -1.749007 0.722111 -0.012530
H -0.292778 -0.143920 -1.432063
H 0.834722 1.756740 0.175192
H 0.760605 0.401875 1.338420
H -1.831914 0.834189 1.070839
H -1.874860 1.710231 -0.476458
H -2.551105 0.072973 -0.364801
$end
$scan
stre 1 3 4.000000 4.001000 0.100000
$end
--------------------------------------------------------------

   17    -317.3832986391      8.33e-07  Convergence criterion met
 Total energy in the final basis set =     -317.3832986391
   46    -317.4007399657      9.12e-07  Convergence criterion met
 Total energy in the final basis set =     -317.4007399657
   24    -317.4116897022      9.60e-07  Convergence criterion met
 Total energy in the final basis set =     -317.4116897022
   25    -317.4185916635      9.65e-07  Convergence criterion met
 Total energy in the final basis set =     -317.4185916635
   33    -317.4227506203      9.67e-07  Convergence criterion met
 Total energy in the final basis set =     -317.4227506203
   95    -317.4251553529      5.07e-07  Convergence criterion met
 Total energy in the final basis set =     -317.4251553529
   14    -317.4264436736      9.84e-07  Convergence criterion met
 Total energy in the final basis set =     -317.4264436736
   13    -317.4270527950      9.25e-07  Convergence criterion met
   16    -317.4356931844      8.07e-07  Convergence criterion met
 Total energy in the final basis set =     -317.4356931844
   16    -317.4357594002      9.34e-07  Convergence criterion met
 Total energy in the final basis set =     -317.4357594002
   16    -317.4357684092      9.03e-07  Convergence criterion met
 Total energy in the final basis set =     -317.4357684092
   16    -317.4357773184      9.10e-07  Convergence criterion met
 Total energy in the final basis set =     -317.4357773184
   16    -317.4357800702      9.16e-07  Convergence criterion met
 Total energy in the final basis set =     -317.4357800702
   16    -317.4357812223      9.18e-07  Convergence criterion met
 Total energy in the final basis set =     -317.4357812223

             Standard Nuclear Orientation (Angstroms)
    I     Atom           X                Y                Z
 ----------------------------------------------------------------
    1      F       1.2080504508    -0.4694182965     2.6952771740
    2      F       0.6016320474    -1.1743154744    -0.4173416598
    3      C      -0.4591953847     0.9397807168    -0.6565056710
    4      C       0.5974401766     0.1439529688     0.0450199222
    5      C      -1.8978393223     0.8482296262    -0.2863482508
    6      H      -0.1811009809     1.3507520091    -1.6248571215
    7      H       1.6023507446     0.5552032087    -0.0996177488
    8      H       0.4422823377     0.0828900341     1.1681817626
    9      H      -2.3556706109    -0.0679989452    -0.6947063735
   10      H      -2.0321570934     0.8079140749     0.8006403332
   11      H      -2.4720933649     1.6934090774    -0.6780413665
 ----------------------------------------------------------------

   16    -317.4357815282      9.19e-07  Convergence criterion met
 Total energy in the final basis set =     -317.4357815282

                    Orbital Energies (a.u.)
 --------------------------------------------------------------

 Alpha MOs
 -- Occupied --
-24.721 -24.687 -10.283 -10.222 -10.199  -1.192  -1.152  -0.803
 -0.710  -0.604  -0.514  -0.505  -0.483  -0.458  -0.428  -0.417
 -0.397  -0.397  -0.393  -0.347  -0.337  -0.227

 Beta MOs
 -- Occupied --
-24.695 -24.684 -10.281 -10.208 -10.199  -1.183  -1.077  -0.781
 -0.703  -0.581  -0.500  -0.488  -0.462  -0.417  -0.410  -0.387
 -0.371  -0.370  -0.341  -0.338

          Ground-State Mulliken Net Atomic Charges

     Atom                 Charge (a.u.)    Spin (a.u.)
  --------------------------------------------------------
      1 F                    -0.123151       0.830220
      2 F                    -0.290343       0.087513
      3 C                    -0.094772       1.007507
      4 C                     0.103168       0.095644
      5 C                    -0.344601      -0.074398
      6 H                     0.118192      -0.030347
      7 H                     0.115991       0.005337
      8 H                     0.125199      -0.014236
      9 H                     0.139744       0.064128
     10 H                     0.126722       0.016263
     11 H                     0.123851       0.012369
  --------------------------------------------------------
  Sum of atomic charges =    -0.000000

                    Cartesian Multipole Moments
 -----------------------------------------------------------------
    Charge (ESU x 10^10)
                 0.0000
    Dipole Moment (Debye)
         X      -1.0821      Y       1.8259      Z      -1.3066
       Tot       2.4924
    Quadrupole Moments (Debye-Ang)
        XX     -27.5757     XY       0.7517     YY     -30.6093
        XZ      -1.1390     YZ      -0.6725     ZZ     -31.7688

 Final energy is   -317.435781528205
 **  OPTIMIZATION CONVERGED  **
 Total job time:  411.48s(wall), 4854.43s(cpu)
        *  Thank you very much for using Q-Chem.  Have a nice day.  *
