 Q-Chem 5.1, Q-Chem, Inc., Pleasanton, CA (2018)
 Q-Chem 5.1.1 for Intel X86 EM64T Linux

User input:
--------------------------------------------------------------

$comment
potential surface scanner
$end

$rem
JOBTYPE  PES_SCAN
UNRESTRICTED TRUE
SYM_IGNORE  TRUE
GEOM_OPT_MAX_CYCLES 400
SCF_MAX_CYCLES 400
METHOD   B3LYP
BASIS   6-31G**
PDB_PRINT 2
SCF_CONVERGENCE 6
THRESH 14
SCF_PRINT 1
$end
$molecule
0 3
F 0.048520 0.059990 2.467218
F 0.964202 -1.121808 -0.896918
C -0.434098 0.834423 -0.808043
C 0.759349 0.120265 -0.372744
C -1.740515 0.772761 -0.084310
H -0.403920 1.309920 -1.791179
H 1.708041 0.624258 -0.179079
H 0.419207 -0.128357 1.625366
H -2.353583 -0.069093 -0.447101
H -1.584878 0.626225 0.986809
H -2.328627 1.681815 -0.248317
$end
$scan
stre 1 3 3.300000 3.301000 0.100000
$end
--------------------------------------------------------------

   10    -317.4830744969      7.57e-07  Convergence criterion met
 Total energy in the final basis set =     -317.4830744969
   10    -317.4819640854      7.67e-07  Convergence criterion met
 Total energy in the final basis set =     -317.4819640854
   10    -317.4826294000      7.62e-07  Convergence criterion met
 Total energy in the final basis set =     -317.4826294000
   10    -317.4828784314      7.59e-07  Convergence criterion met
 Total energy in the final basis set =     -317.4828784314
   10    -317.4828949277      7.58e-07  Convergence criterion met
 Total energy in the final basis set =     -317.4828949277
   10    -317.4829079778      7.57e-07  Convergence criterion met
 Total energy in the final basis set =     -317.4829079778
   10    -317.4829137027      7.57e-07  Convergence criterion met
 Total energy in the final basis set =     -317.4829137027
   10    -317.4829175644      7.57e-07  Convergence criterion met
 Total energy in the final basis set =     -317.4829175644
   10    -317.4829206590      7.57e-07  Convergence criterion met
 Total energy in the final basis set =     -317.4829206590
   10    -317.4829243808      7.58e-07  Convergence criterion met
 Total energy in the final basis set =     -317.4829243808
   10    -317.4829279594      7.58e-07  Convergence criterion met
 Total energy in the final basis set =     -317.4829279594
   10    -317.4829305806      7.59e-07  Convergence criterion met
 Total energy in the final basis set =     -317.4829305806
   10    -317.4829319382      7.58e-07  Convergence criterion met
 Total energy in the final basis set =     -317.4829319382

             Standard Nuclear Orientation (Angstroms)
    I     Atom           X                Y                Z
 ----------------------------------------------------------------
    1      F       0.0571565037     0.1414202041     2.4180070625
    2      F       0.9389564823    -1.1305537802    -0.9300004916
    3      C      -0.4238473627     0.8443701977    -0.7701742437
    4      C       0.7582158373     0.0955758552    -0.3623161659
    5      C      -1.7451645140     0.7581328649    -0.0771716282
    6      H      -0.3794956774     1.3494538318    -1.7382680877
    7      H       1.7162099436     0.5783310502    -0.1604053266
    8      H       0.4215217695    -0.1044814636     1.5868432952
    9      H      -2.3388553336    -0.0861668785    -0.4655761875
   10      H      -1.6127151341     0.6013610244     0.9953570633
   11      H      -2.3382845147     1.6629560940    -0.2445932898
 ----------------------------------------------------------------

   10    -317.4829325715      7.58e-07  Convergence criterion met
 Total energy in the final basis set =     -317.4829325715

                    Orbital Energies (a.u.)
 --------------------------------------------------------------

 Alpha MOs
 -- Occupied --
-24.718 -24.655 -10.290 -10.225 -10.193  -1.227  -1.157  -0.806
 -0.706  -0.602  -0.529  -0.520  -0.495  -0.474  -0.431  -0.423
 -0.398  -0.371  -0.369  -0.358  -0.235  -0.228

 Beta MOs
 -- Occupied --
-24.712 -24.653 -10.277 -10.212 -10.193  -1.212  -1.153  -0.776
 -0.686  -0.578  -0.513  -0.504  -0.482  -0.443  -0.417  -0.410
 -0.389  -0.367  -0.364  -0.352

          Ground-State Mulliken Net Atomic Charges

     Atom                 Charge (a.u.)    Spin (a.u.)
  --------------------------------------------------------
      1 F                    -0.363072       0.036741
      2 F                    -0.246778       0.128736
      3 C                    -0.090381       0.945099
      4 C                     0.070805       0.816754
      5 C                    -0.360806      -0.053797
      6 H                     0.120855       0.006692
      7 H                     0.125255      -0.009096
      8 H                     0.343371       0.036258
      9 H                     0.132617       0.063549
     10 H                     0.146005       0.012352
     11 H                     0.122130       0.016711
  --------------------------------------------------------
  Sum of atomic charges =     0.000000

                    Cartesian Multipole Moments
 -----------------------------------------------------------------
    Charge (ESU x 10^10)
                -0.0000
    Dipole Moment (Debye)
         X       0.0070      Y       0.9750      Z      -1.9512
       Tot       2.1813
    Quadrupole Moments (Debye-Ang)
        XX     -26.7148     XY       0.5640     YY     -29.9074
        XZ       1.1634     YZ      -2.2781     ZZ     -35.4341

 Final energy is   -317.482932571515
 **  OPTIMIZATION CONVERGED  **
 Total job time:  43.11s(wall), 497.35s(cpu)
        *  Thank you very much for using Q-Chem.  Have a nice day.  *
