 Q-Chem 5.1, Q-Chem, Inc., Pleasanton, CA (2018)
 Q-Chem 5.1.1 for Intel X86 EM64T Linux

User input:
--------------------------------------------------------------

$comment
potential surface scanner
$end

$rem
JOBTYPE  PES_SCAN
UNRESTRICTED TRUE
SYM_IGNORE  TRUE
GEOM_OPT_MAX_CYCLES 400
SCF_MAX_CYCLES 400
METHOD   B3LYP
BASIS   6-31G**
PDB_PRINT 2
SCF_CONVERGENCE 6
THRESH 14
SCF_PRINT 1
$end
$molecule
0 3
F 0.057157 0.141420 2.418007
F 0.938956 -1.130554 -0.930000
C -0.423847 0.844370 -0.770174
C 0.758216 0.095576 -0.362316
C -1.745165 0.758133 -0.077172
H -0.379496 1.349454 -1.738268
H 1.716210 0.578331 -0.160405
H 0.421522 -0.104481 1.586843
H -2.338855 -0.086167 -0.465576
H -1.612715 0.601361 0.995357
H -2.338285 1.662956 -0.244593
$end
$scan
stre 1 3 3.200000 3.201000 0.100000
$end
--------------------------------------------------------------

   10    -317.4829325707      7.58e-07  Convergence criterion met
 Total energy in the final basis set =     -317.4829325707
   10    -317.4821149395      7.66e-07  Convergence criterion met
 Total energy in the final basis set =     -317.4821149395
   10    -317.4824164636      7.61e-07  Convergence criterion met
 Total energy in the final basis set =     -317.4824164636
   10    -317.4825086604      7.59e-07  Convergence criterion met
 Total energy in the final basis set =     -317.4825086604
   10    -317.4825265382      7.58e-07  Convergence criterion met
 Total energy in the final basis set =     -317.4825265382
   10    -317.4825389830      7.58e-07  Convergence criterion met
 Total energy in the final basis set =     -317.4825389830
   10    -317.4825435026      7.58e-07  Convergence criterion met
 Total energy in the final basis set =     -317.4825435026
   10    -317.4825495989      7.58e-07  Convergence criterion met
   10    -317.4825878557      7.60e-07  Convergence criterion met
 Total energy in the final basis set =     -317.4825878557
   10    -317.4825983261      7.59e-07  Convergence criterion met
 Total energy in the final basis set =     -317.4825983261
   10    -317.4826089602      7.59e-07  Convergence criterion met
 Total energy in the final basis set =     -317.4826089602
   10    -317.4826176791      7.58e-07  Convergence criterion met
 Total energy in the final basis set =     -317.4826176791
   10    -317.4826222748      7.58e-07  Convergence criterion met
 Total energy in the final basis set =     -317.4826222748
   10    -317.4826242646      7.59e-07  Convergence criterion met
 Total energy in the final basis set =     -317.4826242646

             Standard Nuclear Orientation (Angstroms)
    I     Atom           X                Y                Z
 ----------------------------------------------------------------
    1      F       0.1194745012     0.2995150054     2.3707613884
    2      F       0.9137005745    -1.1295432018    -1.0197522455
    3      C      -0.4158960529     0.8543854818    -0.7349592121
    4      C       0.7433877116     0.0533318398    -0.3644290323
    5      C      -1.7534547524     0.7363019880    -0.0787257770
    6      H      -0.3416256549     1.4330795155    -1.6588912886
    7      H       1.7044620026     0.4993557202    -0.1031670137
    8      H       0.4042157139    -0.1248018207     1.5823523674
    9      H      -2.3142102496    -0.1255736515    -0.4769704744
   10      H      -1.6433940002     0.5883242732     0.9980680874
   11      H      -2.3629617938     1.6260238502    -0.2625837996
 ----------------------------------------------------------------

   10    -317.4826251602      7.59e-07  Convergence criterion met
 Total energy in the final basis set =     -317.4826251602

                    Orbital Energies (a.u.)
 --------------------------------------------------------------

 Alpha MOs
 -- Occupied --
-24.718 -24.656 -10.288 -10.224 -10.193  -1.226  -1.159  -0.806
 -0.705  -0.602  -0.530  -0.519  -0.495  -0.473  -0.430  -0.422
 -0.397  -0.372  -0.369  -0.360  -0.233  -0.227

 Beta MOs
 -- Occupied --
-24.711 -24.654 -10.276 -10.211 -10.193  -1.211  -1.155  -0.775
 -0.686  -0.577  -0.515  -0.503  -0.481  -0.443  -0.417  -0.410
 -0.388  -0.369  -0.364  -0.353

          Ground-State Mulliken Net Atomic Charges

     Atom                 Charge (a.u.)    Spin (a.u.)
  --------------------------------------------------------
      1 F                    -0.360424       0.035777
      2 F                    -0.247596       0.126813
      3 C                    -0.088874       0.946214
      4 C                     0.069295       0.817821
      5 C                    -0.358852      -0.054029
      6 H                     0.121018       0.006257
      7 H                     0.126770      -0.009659
      8 H                     0.340641       0.038548
      9 H                     0.131194       0.062649
     10 H                     0.145294       0.016752
     11 H                     0.121533       0.012856
  --------------------------------------------------------
  Sum of atomic charges =    -0.000000

                    Cartesian Multipole Moments
 -----------------------------------------------------------------
    Charge (ESU x 10^10)
                -0.0000
    Dipole Moment (Debye)
         X      -0.1047      Y       0.6685      Z      -1.7471
       Tot       1.8735
    Quadrupole Moments (Debye-Ang)
        XX     -26.8040     XY       0.4263     YY     -29.9199
        XZ       0.9524     YZ      -3.0352     ZZ     -35.2517

 Final energy is   -317.482625160174
 **  OPTIMIZATION CONVERGED  **
 Total job time:  63.64s(wall), 714.04s(cpu)
        *  Thank you very much for using Q-Chem.  Have a nice day.  *
