 Q-Chem 5.1, Q-Chem, Inc., Pleasanton, CA (2018)
 Q-Chem 5.1.1 for Intel X86 EM64T Linux

User input:
--------------------------------------------------------------

$comment
potential surface scanner
$end

$rem
JOBTYPE  PES_SCAN
UNRESTRICTED TRUE
SYM_IGNORE  TRUE
GEOM_OPT_MAX_CYCLES 400
SCF_MAX_CYCLES 400
METHOD   B3LYP
BASIS   6-31G**
PDB_PRINT 2
SCF_CONVERGENCE 6
THRESH 14
SCF_PRINT 1
$end
$molecule
0 3
F 0.078139 0.897548 1.269326
F 0.261269 -1.557282 -0.735725
C -0.265562 0.736419 -0.284993
C 0.635027 -0.271484 -0.810127
C -1.738616 0.419878 -0.317246
H -0.011923 1.724204 -0.672028
H 1.696055 -0.127591 -0.979154
H 0.716911 1.864523 3.759218
H -2.099670 0.381787 -1.350501
H -1.925927 -0.547813 0.151077
H -2.292003 1.190212 0.221850
$end
$scan
stre 1 3 1.500000 1.501000 0.100000
$end
--------------------------------------------------------------

   11    -317.4335739139      8.59e-07  Convergence criterion met
 Total energy in the final basis set =     -317.4335739139
   11    -317.4397718034      4.26e-07  Convergence criterion met
 Total energy in the final basis set =     -317.4397718034
   11    -317.4404482579      4.20e-07  Convergence criterion met
 Total energy in the final basis set =     -317.4404482579
   11    -317.4406710534      4.15e-07  Convergence criterion met
 Total energy in the final basis set =     -317.4406710534
   11    -317.4406802302      4.14e-07  Convergence criterion met
 Total energy in the final basis set =     -317.4406802302
   11    -317.4406907529      4.14e-07  Convergence criterion met
 Total energy in the final basis set =     -317.4406907529
   11    -317.4406931614      4.13e-07  Convergence criterion met
 Total energy in the final basis set =     -317.4406931614
   11    -317.4406949999      4.13e-07  Convergence criterion met
 Total energy in the final basis set =     -317.4406949999

             Standard Nuclear Orientation (Angstroms)
    I     Atom           X                Y                Z
 ----------------------------------------------------------------
    1      F       0.0660901571     0.8827987978     1.2204175136
    2      F       0.2621063996    -1.5556989197    -0.7211650978
    3      C      -0.2610114443     0.7428125842    -0.2367744453
    4      C       0.6315547807    -0.2667633722    -0.8184059955
    5      C      -1.7379147648     0.4212107482    -0.3128473963
    6      H      -0.0224360544     1.7231703834    -0.6595857833
    7      H       1.6968594911    -0.1254380044    -0.9678953516
    8      H       0.7336114498     1.8636021900     3.7405886653
    9      H      -2.0721766795     0.3898693054    -1.3544931633
   10      H      -1.9343619810    -0.5506998892     0.1438201984
   11      H      -2.3086213544     1.1855371765     0.2180378558
 ----------------------------------------------------------------

   11    -317.4406957573      4.12e-07  Convergence criterion met
 Total energy in the final basis set =     -317.4406957573

                    Orbital Energies (a.u.)
 --------------------------------------------------------------

 Alpha MOs
 -- Occupied --
-24.722 -24.652 -10.280 -10.274 -10.191  -1.233  -1.136  -0.799
 -0.704  -0.605  -0.533  -0.505  -0.495  -0.459  -0.429  -0.411
 -0.389  -0.380  -0.336  -0.332  -0.297  -0.221

 Beta MOs
 -- Occupied --
-24.718 -24.648 -10.275 -10.266 -10.191  -1.223  -1.128  -0.790
 -0.688  -0.597  -0.527  -0.498  -0.475  -0.437  -0.423  -0.406
 -0.387  -0.376  -0.330  -0.329

          Ground-State Mulliken Net Atomic Charges

     Atom                 Charge (a.u.)    Spin (a.u.)
  --------------------------------------------------------
      1 F                    -0.352466       0.077767
      2 F                    -0.247301       0.086642
      3 C                     0.172509      -0.017022
      4 C                     0.173430       0.888899
      5 C                    -0.338955       0.001562
      6 H                     0.106434       0.001770
      7 H                     0.111060      -0.038022
      8 H                    -0.002339       0.997474
      9 H                     0.113893       0.000343
     10 H                     0.136873      -0.000239
     11 H                     0.126863       0.000827
  --------------------------------------------------------
  Sum of atomic charges =    -0.000000

                    Cartesian Multipole Moments
 -----------------------------------------------------------------
    Charge (ESU x 10^10)
                -0.0000
    Dipole Moment (Debye)
         X      -0.2204      Y       0.6992      Z      -1.8508
       Tot       1.9907
    Quadrupole Moments (Debye-Ang)
        XX     -26.8519     XY      -0.3999     YY     -30.7142
        XZ      -0.7722     YZ      -2.5249     ZZ     -31.7645

 Final energy is   -317.440695757343
 **  OPTIMIZATION CONVERGED  **
 Total job time:  29.61s(wall), 338.90s(cpu)
        *  Thank you very much for using Q-Chem.  Have a nice day.  *
