 Q-Chem 5.1, Q-Chem, Inc., Pleasanton, CA (2018)
 Q-Chem 5.1.1 for Intel X86 EM64T Linux

User input:
--------------------------------------------------------------

$comment
potential surface scanner
$end

$rem
JOBTYPE  PES_SCAN
UNRESTRICTED TRUE
SYM_IGNORE  TRUE
GEOM_OPT_MAX_CYCLES 400
SCF_MAX_CYCLES 400
METHOD   B3LYP
BASIS   6-31G**
PDB_PRINT 2
SCF_CONVERGENCE 6
THRESH 14
SCF_PRINT 1
$end
$molecule
0 3
F 0.191864 1.185027 1.475423
F 0.724912 -0.892415 -1.792685
C -0.291362 0.710296 -0.299718
C 0.649482 -0.373596 -0.524293
C -1.751903 0.427164 -0.102130
H -0.045400 1.685667 -0.727136
H 1.593855 -0.478697 0.005318
H 0.402082 1.400997 2.378566
H -2.241696 0.136621 -1.044448
H -1.899309 -0.398610 0.602449
H -2.278826 1.307948 0.280353
$end
$scan
stre 1 3 1.800000 1.801000 0.100000
$end
--------------------------------------------------------------

   11    -317.4371451760      3.18e-07  Convergence criterion met
 Total energy in the final basis set =     -317.4371451760
   11    -317.4232187478      3.46e-07  Convergence criterion met
 Total energy in the final basis set =     -317.4232187478
   11    -317.4230758326      3.63e-07  Convergence criterion met
 Total energy in the final basis set =     -317.4230758326
   11    -317.4232183909      3.78e-07  Convergence criterion met
 Total energy in the final basis set =     -317.4232183909
   11    -317.4232476061      3.80e-07  Convergence criterion met
 Total energy in the final basis set =     -317.4232476061
   11    -317.4232629739      3.78e-07  Convergence criterion met
 Total energy in the final basis set =     -317.4232629739
   11    -317.4232662034      3.76e-07  Convergence criterion met
 Total energy in the final basis set =     -317.4232662034

             Standard Nuclear Orientation (Angstroms)
    I     Atom           X                Y                Z
 ----------------------------------------------------------------
    1      F       0.1782917764     1.1761671766     1.4324039904
    2      F       0.6843760619    -0.8735465356    -1.7859579825
    3      C      -0.2776250891     0.7183961761    -0.2476516838
    4      C       0.6501685648    -0.3715533927    -0.5093615080
    5      C      -1.7440941655     0.4261901391    -0.0943716900
    6      H      -0.0419850033     1.6798342336    -0.7129306650
    7      H       1.6083132965    -0.4895563507    -0.0079955839
    8      H       0.3920654089     1.4073666712     2.3515514958
    9      H      -2.2021289925     0.1368945437    -1.0523547165
   10      H      -1.9072753232    -0.4027864868     0.6028596689
   11      H      -2.2864075349     1.3029958255     0.2755076745
 ----------------------------------------------------------------

   11    -317.4232671024      3.75e-07  Convergence criterion met
 Total energy in the final basis set =     -317.4232671024

                    Orbital Energies (a.u.)
 --------------------------------------------------------------

 Alpha MOs
 -- Occupied --
-24.704 -24.678 -10.243 -10.194 -10.174  -1.203  -1.184  -0.782
 -0.675  -0.604  -0.545  -0.481  -0.476  -0.441  -0.427  -0.410
 -0.391  -0.388  -0.363  -0.333  -0.182  -0.154

 Beta MOs
 -- Occupied --
-24.702 -24.672 -10.229 -10.180 -10.174  -1.198  -1.170  -0.755
 -0.656  -0.582  -0.526  -0.468  -0.461  -0.429  -0.405  -0.402
 -0.382  -0.380  -0.352  -0.323

          Ground-State Mulliken Net Atomic Charges

     Atom                 Charge (a.u.)    Spin (a.u.)
  --------------------------------------------------------
      1 F                    -0.257708      -0.040785
      2 F                    -0.278628       0.110094
      3 C                    -0.061351       0.803672
      4 C                     0.142763       0.924467
      5 C                    -0.315468      -0.037276
      6 H                     0.094290       0.019342
      7 H                     0.078950      -0.025847
      8 H                     0.275253       0.176486
      9 H                     0.114580       0.042295
     10 H                     0.107219       0.013868
     11 H                     0.100099       0.013685
  --------------------------------------------------------
  Sum of atomic charges =     0.000000

                    Cartesian Multipole Moments
 -----------------------------------------------------------------
    Charge (ESU x 10^10)
                 0.0000
    Dipole Moment (Debye)
         X       0.0882      Y       1.4914      Z       2.6795
       Tot       3.0679
    Quadrupole Moments (Debye-Ang)
        XX     -28.3135     XY       0.6599     YY     -28.7938
        XZ       2.1375     YZ       1.0836     ZZ     -26.5052

 Final energy is   -317.423267102403
 **  OPTIMIZATION CONVERGED  **
 Total job time:  27.36s(wall), 308.00s(cpu)
        *  Thank you very much for using Q-Chem.  Have a nice day.  *
