 Q-Chem 5.1, Q-Chem, Inc., Pleasanton, CA (2018)
 Q-Chem 5.1.1 for Intel X86 EM64T Linux

User input:
--------------------------------------------------------------

$comment
potential surface scanner
$end

$rem
JOBTYPE  PES_SCAN
UNRESTRICTED TRUE
SYM_IGNORE  TRUE
GEOM_OPT_MAX_CYCLES 400
SCF_MAX_CYCLES 400
METHOD   B3LYP
BASIS   6-31G**
PDB_PRINT 2
SCF_CONVERGENCE 6
THRESH 14
SCF_PRINT 1
$end
$molecule
0 3
F 0.032247 -0.137437 2.638558
F 1.032075 -1.089555 -0.802491
C -0.462770 0.798243 -0.906786
C 0.768251 0.192053 -0.416374
C -1.730418 0.801021 -0.112422
H -0.485251 1.170561 -1.933153
H 1.691519 0.755653 -0.272998
H 0.427681 -0.168091 1.791982
H -2.427623 0.026941 -0.471863
H -1.532745 0.603498 0.943928
H -2.259269 1.757512 -0.206679
$end
$scan
stre 1 3 3.600000 3.601000 0.100000
$end
--------------------------------------------------------------

   10    -317.4821817538      7.56e-07  Convergence criterion met
 Total energy in the final basis set =     -317.4821817538
   10    -317.4810627795      7.74e-07  Convergence criterion met
 Total energy in the final basis set =     -317.4810627795
   10    -317.4821183902      7.64e-07  Convergence criterion met
 Total energy in the final basis set =     -317.4821183902
   10    -317.4826347493      7.55e-07  Convergence criterion met
 Total energy in the final basis set =     -317.4826347493
   10    -317.4826571167      7.54e-07  Convergence criterion met
 Total energy in the final basis set =     -317.4826571167
   10    -317.4826615416      7.54e-07  Convergence criterion met
 Total energy in the final basis set =     -317.4826615416
   10    -317.4826637495      7.54e-07  Convergence criterion met
 Total energy in the final basis set =     -317.4826637495
   10    -317.4826656283      7.54e-07  Convergence criterion met
 Total energy in the final basis set =     -317.4826656283
   10    -317.4826675118      7.54e-07  Convergence criterion met
 Total energy in the final basis set =     -317.4826675118
   10    -317.4826690597      7.54e-07  Convergence criterion met
 Total energy in the final basis set =     -317.4826690597
   10    -317.4826703304      7.54e-07  Convergence criterion met
 Total energy in the final basis set =     -317.4826703304
   10    -317.4826714623      7.54e-07  Convergence criterion met
 Total energy in the final basis set =     -317.4826714623

             Standard Nuclear Orientation (Angstroms)
    I     Atom           X                Y                Z
 ----------------------------------------------------------------
    1      F       0.0393935782    -0.0996271199     2.5723816161
    2      F       1.0206253569    -1.1003759366    -0.8079449663
    3      C      -0.4570101676     0.8014396795    -0.8774969416
    4      C       0.7663626505     0.1743013480    -0.3945548566
    5      C      -1.7367920810     0.7947150683    -0.1030891392
    6      H      -0.4644948092     1.1947377559    -1.8965018004
    7      H       1.6941995039     0.7280562791    -0.2410771570
    8      H       0.4369538812    -0.1440202581     1.7253413507
    9      H      -2.4191653901     0.0111756107    -0.4704788718
   10      H      -1.5548857117     0.6040882220     0.9572941550
   11      H      -2.2714898112     1.7459083510    -0.2121713889
 ----------------------------------------------------------------

   10    -317.4826724409      7.55e-07  Convergence criterion met
 Total energy in the final basis set =     -317.4826724409

                    Orbital Energies (a.u.)
 --------------------------------------------------------------

 Alpha MOs
 -- Occupied --
-24.716 -24.656 -10.288 -10.225 -10.195  -1.225  -1.158  -0.806
 -0.705  -0.602  -0.524  -0.517  -0.498  -0.473  -0.429  -0.424
 -0.397  -0.372  -0.369  -0.360  -0.230  -0.229

 Beta MOs
 -- Occupied --
-24.710 -24.654 -10.275 -10.212 -10.195  -1.209  -1.155  -0.775
 -0.684  -0.577  -0.510  -0.505  -0.484  -0.442  -0.414  -0.410
 -0.390  -0.368  -0.366  -0.353

          Ground-State Mulliken Net Atomic Charges

     Atom                 Charge (a.u.)    Spin (a.u.)
  --------------------------------------------------------
      1 F                    -0.362826       0.024062
      2 F                    -0.250440       0.128181
      3 C                    -0.092306       0.943621
      4 C                     0.085929       0.838815
      5 C                    -0.359393      -0.053325
      6 H                     0.119344       0.005065
      7 H                     0.118580      -0.009520
      8 H                     0.344977       0.029838
      9 H                     0.134386       0.060387
     10 H                     0.136946       0.005454
     11 H                     0.124803       0.027422
  --------------------------------------------------------
  Sum of atomic charges =    -0.000000

                    Cartesian Multipole Moments
 -----------------------------------------------------------------
    Charge (ESU x 10^10)
                 0.0000
    Dipole Moment (Debye)
         X      -0.0231      Y       1.3683      Z      -2.1031
       Tot       2.5091
    Quadrupole Moments (Debye-Ang)
        XX     -26.8258     XY       0.6830     YY     -29.8518
        XZ       1.4237     YZ      -1.2889     ZZ     -35.7313

 Final energy is   -317.482672440912
 **  OPTIMIZATION CONVERGED  **
 Total job time:  39.55s(wall), 457.38s(cpu)
        *  Thank you very much for using Q-Chem.  Have a nice day.  *
