 Q-Chem 5.1, Q-Chem, Inc., Pleasanton, CA (2018)
 Q-Chem 5.1.1 for Intel X86 EM64T Linux

User input:
--------------------------------------------------------------

$comment
potential surface scanner
$end

$rem
JOBTYPE  PES_SCAN
UNRESTRICTED TRUE
SYM_IGNORE  TRUE
GEOM_OPT_MAX_CYCLES 400
SCF_MAX_CYCLES 400
METHOD   B3LYP
BASIS   6-31G**
PDB_PRINT 2
SCF_CONVERGENCE 6
THRESH 14
SCF_PRINT 1
$end
$molecule
0 1
F -0.486400 -1.298900 0.159500
F 1.889200 0.001700 -0.126500
C -0.435600 -0.028600 -0.332400
C 0.768200 0.660400 0.276200
C -1.735300 0.665500 0.023300
H -0.320900 -0.108600 -1.417700
H 0.851700 1.700600 -0.050500
H 0.742100 0.621000 1.368800
H -1.880200 0.688200 1.108400
H -1.756200 1.691300 -0.356400
H -2.582900 0.117800 -0.401000
$end
$scan
stre 1 3 0.800000 0.801000 0.100000
$end
--------------------------------------------------------------

    8    -317.6070310312      9.75e-07  Convergence criterion met
 Total energy in the final basis set =     -317.6070310312
    9    -317.5855806240      2.10e-07  Convergence criterion met
 Total energy in the final basis set =     -317.5855806240
    9    -317.4922834259      2.29e-07  Convergence criterion met
 Total energy in the final basis set =     -317.4922834259
    9    -317.3756092500      2.45e-07  Convergence criterion met
 Total energy in the final basis set =     -317.3756092500
    9    -317.1306348313      3.64e-07  Convergence criterion met
 Total energy in the final basis set =     -317.1306348313
    9    -316.9540390363      4.55e-07  Convergence criterion met
 Total energy in the final basis set =     -316.9540390363
    9    -316.8133356879      5.24e-07  Convergence criterion met
 Total energy in the final basis set =     -316.8133356879
    9    -316.7041313628      5.70e-07  Convergence criterion met
    9    -316.6716210806      5.63e-07  Convergence criterion met
 Total energy in the final basis set =     -316.6716210806
    9    -316.6716259940      5.61e-07  Convergence criterion met
 Total energy in the final basis set =     -316.6716259940
    9    -316.6716277125      5.60e-07  Convergence criterion met
 Total energy in the final basis set =     -316.6716277125
    9    -316.6716285956      5.60e-07  Convergence criterion met
 Total energy in the final basis set =     -316.6716285956
    9    -316.6716297176      5.59e-07  Convergence criterion met
 Total energy in the final basis set =     -316.6716297176
    9    -316.6716308206      5.57e-07  Convergence criterion met
 Total energy in the final basis set =     -316.6716308206

             Standard Nuclear Orientation (Angstroms)
    I     Atom           X                Y                Z
 ----------------------------------------------------------------
    1      F      -0.4335198326    -1.0544469683    -0.0694962764
    2      F       1.9664491479    -0.0894630403     0.0078143932
    3      C      -0.4343113046    -0.2837668935    -0.2840929495
    4      C       0.8028267366     0.6504309871     0.3025753172
    5      C      -1.7946914471     0.6218009492     0.0806957844
    6      H      -0.3175721051    -0.0073885416    -1.4631376881
    7      H       0.8439029259     1.6241646948    -0.1922246685
    8      H       0.7645247521     0.7786040244     1.3965722029
    9      H      -1.9649485405     0.6834960224     1.1661435870
   10      H      -1.6974466651     1.6317591395    -0.3226671066
   11      H      -2.6815136674     0.1552096262    -0.3704825956
 ----------------------------------------------------------------

    9    -316.6716314884      5.56e-07  Convergence criterion met
 Total energy in the final basis set =     -316.6716314884

                    Orbital Energies (a.u.)
 --------------------------------------------------------------

 Alpha MOs
 -- Occupied --
-24.880 -24.657 -10.378 -10.221 -10.152  -1.702  -1.158  -0.837
 -0.833  -0.797  -0.715  -0.640  -0.530  -0.459  -0.454  -0.393
 -0.382  -0.375  -0.323  -0.245  -0.233

 Beta MOs
 -- Occupied --
-24.880 -24.657 -10.378 -10.221 -10.152  -1.702  -1.158  -0.837
 -0.833  -0.797  -0.715  -0.640  -0.530  -0.459  -0.454  -0.393
 -0.382  -0.375  -0.323  -0.245  -0.233

          Ground-State Mulliken Net Atomic Charges

     Atom                 Charge (a.u.)    Spin (a.u.)
  --------------------------------------------------------
      1 F                     0.638671       0.000000
      2 F                    -0.348688      -0.000000
      3 C                    -0.103770      -0.000000
      4 C                    -0.011059      -0.000000
      5 C                    -0.492113       0.000000
      6 H                    -0.119546       0.000000
      7 H                     0.088863       0.000000
      8 H                     0.070406       0.000000
      9 H                     0.083365      -0.000000
     10 H                     0.107471       0.000000
     11 H                     0.086399       0.000000
  --------------------------------------------------------
  Sum of atomic charges =     0.000000

                    Cartesian Multipole Moments
 -----------------------------------------------------------------
    Charge (ESU x 10^10)
                 0.0000
    Dipole Moment (Debye)
         X      -1.4547      Y      -1.3853      Z       0.8486
       Tot       2.1807
    Quadrupole Moments (Debye-Ang)
        XX     -34.9766     XY       2.1068     YY     -26.5971
        XZ       0.1592     YZ       0.0019     ZZ     -30.4621

 Final energy is   -316.671631488422
 **  OPTIMIZATION CONVERGED  **
 Total job time:  103.53s(wall), 1155.21s(cpu)
        *  Thank you very much for using Q-Chem.  Have a nice day.  *
