 Q-Chem 5.1, Q-Chem, Inc., Pleasanton, CA (2018)
 Q-Chem 5.1.1 for Intel X86 EM64T Linux

User input:
--------------------------------------------------------------

$comment
potential surface scanner
$end

$rem
JOBTYPE  PES_SCAN
UNRESTRICTED TRUE
SYM_IGNORE  TRUE
GEOM_OPT_MAX_CYCLES 400
SCF_MAX_CYCLES 400
METHOD   B3LYP
BASIS   6-31G**
PDB_PRINT 2
SCF_CONVERGENCE 6
THRESH 14
SCF_PRINT 1
$end
$molecule
0 3
F 0.188530 0.600560 2.211648
F 0.821236 -1.132366 -1.148014
C -0.384783 0.878206 -0.617527
C 0.730384 -0.025061 -0.359021
C -1.762276 0.680596 -0.072180
H -0.267498 1.561962 -1.462672
H 1.717002 0.333910 -0.064594
H 0.386440 -0.055622 1.570556
H -2.263315 -0.168938 -0.564378
H -1.730001 0.471883 0.999819
H -2.382020 1.565271 -0.241934
$end
$scan
stre 1 3 2.800000 2.801000 0.100000
$end
--------------------------------------------------------------

   10    -317.4803079935      7.65e-07  Convergence criterion met
 Total energy in the final basis set =     -317.4803079935
   10    -317.4786902263      7.69e-07  Convergence criterion met
 Total energy in the final basis set =     -317.4786902263
   10    -317.4788935748      7.68e-07  Convergence criterion met
 Total energy in the final basis set =     -317.4788935748
   10    -317.4789532810      7.68e-07  Convergence criterion met
 Total energy in the final basis set =     -317.4789532810
   10    -317.4789677866      7.68e-07  Convergence criterion met
 Total energy in the final basis set =     -317.4789677866
   10    -317.4789784830      7.68e-07  Convergence criterion met
 Total energy in the final basis set =     -317.4789784830
   10    -317.4789820413      7.68e-07  Convergence criterion met
 Total energy in the final basis set =     -317.4789820413
   10    -317.4789843675      7.68e-07  Convergence criterion met
 Total energy in the final basis set =     -317.4789843675
   10    -317.4789855180      7.68e-07  Convergence criterion met
 Total energy in the final basis set =     -317.4789855180

             Standard Nuclear Orientation (Angstroms)
    I     Atom           X                Y                Z
 ----------------------------------------------------------------
    1      F       0.2018942143     0.7002270564     2.1559856439
    2      F       0.7886758141    -1.1363021759    -1.1785478093
    3      C      -0.3738094003     0.8801363572    -0.5782785531
    4      C       0.7279933297    -0.0503431422    -0.3578137873
    5      C      -1.7624768997     0.6600895605    -0.0704036313
    6      H      -0.2453594946     1.5939595610    -1.3968451468
    7      H       1.7238483681     0.2827290683    -0.0651520085
    8      H       0.3798392972    -0.0128061934     1.5738858354
    9      H      -2.2529656385    -0.1662689800    -0.6099883063
   10      H      -1.7562228697     0.4064418189     0.9924037345
   11      H      -2.3777177205     1.5525380692    -0.2135429712
 ----------------------------------------------------------------

   10    -317.4789863508      7.68e-07  Convergence criterion met
 Total energy in the final basis set =     -317.4789863508

                    Orbital Energies (a.u.)
 --------------------------------------------------------------

 Alpha MOs
 -- Occupied --
-24.715 -24.661 -10.284 -10.220 -10.191  -1.223  -1.165  -0.802
 -0.703  -0.598  -0.533  -0.517  -0.490  -0.471  -0.431  -0.419
 -0.395  -0.375  -0.369  -0.361  -0.234  -0.218

 Beta MOs
 -- Occupied --
-24.709 -24.659 -10.272 -10.207 -10.191  -1.208  -1.160  -0.772
 -0.683  -0.574  -0.520  -0.502  -0.476  -0.440  -0.418  -0.409
 -0.385  -0.371  -0.365  -0.352

          Ground-State Mulliken Net Atomic Charges

     Atom                 Charge (a.u.)    Spin (a.u.)
  --------------------------------------------------------
      1 F                    -0.349664       0.036443
      2 F                    -0.250731       0.123617
      3 C                    -0.085393       0.948194
      4 C                     0.066472       0.824701
      5 C                    -0.345177      -0.054482
      6 H                     0.117515       0.007518
      7 H                     0.126321      -0.014447
      8 H                     0.337615       0.039641
      9 H                     0.126978       0.057987
     10 H                     0.134881       0.022231
     11 H                     0.121182       0.008597
  --------------------------------------------------------
  Sum of atomic charges =    -0.000000

                    Cartesian Multipole Moments
 -----------------------------------------------------------------
    Charge (ESU x 10^10)
                -0.0000
    Dipole Moment (Debye)
         X      -0.1811      Y       0.0978      Z      -1.1418
       Tot       1.1602
    Quadrupole Moments (Debye-Ang)
        XX     -26.8343     XY       0.0891     YY     -30.5157
        XZ       0.6506     YZ      -4.2427     ZZ     -33.9761

 Final energy is   -317.478986350833
 **  OPTIMIZATION CONVERGED  **
 Total job time:  31.40s(wall), 359.94s(cpu)
        *  Thank you very much for using Q-Chem.  Have a nice day.  *
