 Q-Chem 5.1, Q-Chem, Inc., Pleasanton, CA (2018)
 Q-Chem 5.1.1 for Intel X86 EM64T Linux

User input:
--------------------------------------------------------------

$comment
potential surface scanner
$end

$rem
JOBTYPE  PES_SCAN
UNRESTRICTED TRUE
SYM_IGNORE  TRUE
GEOM_OPT_MAX_CYCLES 400
SCF_MAX_CYCLES 400
METHOD   B3LYP
BASIS   6-31G**
PDB_PRINT 2
SCF_CONVERGENCE 6
THRESH 14
SCF_PRINT 1
$end
$molecule
0 1
F -0.486400 -1.298900 0.159500
F 1.889200 0.001700 -0.126500
C -0.435600 -0.028600 -0.332400
C 0.768200 0.660400 0.276200
C -1.735300 0.665500 0.023300
H -0.320900 -0.108600 -1.417700
H 0.851700 1.700600 -0.050500
H 0.742100 0.621000 1.368800
H -1.880200 0.688200 1.108400
H -1.756200 1.691300 -0.356400
H -2.582900 0.117800 -0.401000
$end
$scan
stre 1 3 1.100000 1.101000 0.100000
$end
--------------------------------------------------------------

    8    -317.6070310312      9.75e-07  Convergence criterion met
 Total energy in the final basis set =     -317.6070310312
    9    -317.5855806240      2.10e-07  Convergence criterion met
 Total energy in the final basis set =     -317.5855806240
    9    -317.5117140934      2.32e-07  Convergence criterion met
 Total energy in the final basis set =     -317.5117140934
    9    -317.5085327986      2.66e-07  Convergence criterion met
 Total energy in the final basis set =     -317.5085327986
    9    -317.5113704901      4.11e-07  Convergence criterion met
 Total energy in the final basis set =     -317.5113704901
    9    -317.5114208216      4.13e-07  Convergence criterion met
 Total energy in the final basis set =     -317.5114208216
    9    -317.5115348296      4.17e-07  Convergence criterion met
 Total energy in the final basis set =     -317.5115348296
    9    -317.5115423070      4.18e-07  Convergence criterion met
    9    -317.5115758160      4.16e-07  Convergence criterion met
 Total energy in the final basis set =     -317.5115758160
    9    -317.5115862533      4.15e-07  Convergence criterion met
 Total energy in the final basis set =     -317.5115862533
    9    -317.5115953556      4.14e-07  Convergence criterion met
 Total energy in the final basis set =     -317.5115953556
    9    -317.5115999005      4.14e-07  Convergence criterion met
 Total energy in the final basis set =     -317.5115999005
    9    -317.5116027957      4.14e-07  Convergence criterion met
 Total energy in the final basis set =     -317.5116027957
    9    -317.5116044399      4.15e-07  Convergence criterion met
 Total energy in the final basis set =     -317.5116044399

             Standard Nuclear Orientation (Angstroms)
    I     Atom           X                Y                Z
 ----------------------------------------------------------------
    1      F      -0.4743612211    -1.1966621453     0.0604061199
    2      F       1.9414440430    -0.0032812738    -0.1092515421
    3      C      -0.4410196193    -0.1537270630    -0.2876956395
    4      C       0.7662946891     0.6378289674     0.2840143483
    5      C      -1.7388024099     0.6525645004     0.0407206412
    6      H      -0.3106751221    -0.0552855109    -1.4017129706
    7      H       0.7778263346     1.6680474687    -0.0858383485
    8      H       0.7352136078     0.6433261396     1.3835936239
    9      H      -1.8863271284     0.7265208998     1.1255954770
   10      H      -1.7100496517     1.6604053629    -0.3798220270
   11      H      -2.6058435220     0.1306626541    -0.3783096826
 ----------------------------------------------------------------

    9    -317.5116051040      4.15e-07  Convergence criterion met
 Total energy in the final basis set =     -317.5116051040

                    Orbital Energies (a.u.)
 --------------------------------------------------------------

 Alpha MOs
 -- Occupied --
-24.731 -24.666 -10.270 -10.247 -10.179  -1.372  -1.170  -0.772
 -0.694  -0.650  -0.587  -0.559  -0.522  -0.472  -0.463  -0.409
 -0.398  -0.384  -0.332  -0.304  -0.286

 Beta MOs
 -- Occupied --
-24.731 -24.666 -10.270 -10.247 -10.179  -1.372  -1.170  -0.772
 -0.694  -0.650  -0.587  -0.559  -0.522  -0.472  -0.463  -0.409
 -0.398  -0.384  -0.332  -0.304  -0.286

          Ground-State Mulliken Net Atomic Charges

     Atom                 Charge (a.u.)    Spin (a.u.)
  --------------------------------------------------------
      1 F                    -0.049055       0.000000
      2 F                    -0.327910      -0.000000
      3 C                     0.170357      -0.000000
      4 C                     0.088553      -0.000000
      5 C                    -0.394473       0.000000
      6 H                     0.022281      -0.000000
      7 H                     0.085187       0.000000
      8 H                     0.083127       0.000000
      9 H                     0.103956       0.000000
     10 H                     0.106782      -0.000000
     11 H                     0.111193       0.000000
  --------------------------------------------------------
  Sum of atomic charges =    -0.000000

                    Cartesian Multipole Moments
 -----------------------------------------------------------------
    Charge (ESU x 10^10)
                 0.0000
    Dipole Moment (Debye)
         X      -1.5720      Y       0.8534      Z       0.3374
       Tot       1.8203
    Quadrupole Moments (Debye-Ang)
        XX     -32.6366     XY       0.6005     YY     -28.6833
        XZ       0.6547     YZ       0.1522     ZZ     -28.5952

 Final energy is   -317.511605104049
 **  OPTIMIZATION CONVERGED  **
 Total job time:  50.68s(wall), 580.93s(cpu)
        *  Thank you very much for using Q-Chem.  Have a nice day.  *
