 Q-Chem 5.1, Q-Chem, Inc., Pleasanton, CA (2018)
 Q-Chem 5.1.1 for Intel X86 EM64T Linux

User input:
--------------------------------------------------------------

$comment
potential surface scanner
$end

$rem
JOBTYPE  PES_SCAN
UNRESTRICTED TRUE
SYM_IGNORE  TRUE
GEOM_OPT_MAX_CYCLES 400
SCF_MAX_CYCLES 400
METHOD   B3LYP
BASIS   6-31G**
PDB_PRINT 2
SCF_CONVERGENCE 6
THRESH 14
SCF_PRINT 1
$end
$molecule
0 1
F -0.509769 -1.386989 0.206765
F 1.935323 0.057171 -0.203768
C -0.437391 0.009475 -0.336051
C 0.780847 0.646148 0.283492
C -1.742491 0.687481 0.010752
H -0.297332 -0.110295 -1.414067
H 0.804198 1.717729 0.043792
H 0.747359 0.523181 1.372121
H -1.854670 0.784993 1.094604
H -1.794129 1.685471 -0.437258
H -2.578246 0.096036 -0.368682
$end
$scan
stre 1 3 1.600000 1.601000 0.100000
$end
--------------------------------------------------------------

    9    -317.6044867361      7.56e-07  Convergence criterion met
 Total energy in the final basis set =     -317.6044867361
    9    -317.5936331711      7.03e-07  Convergence criterion met
 Total energy in the final basis set =     -317.5936331711
    9    -317.5936565192      7.13e-07  Convergence criterion met
 Total energy in the final basis set =     -317.5936565192
    9    -317.5937904670      7.21e-07  Convergence criterion met
 Total energy in the final basis set =     -317.5937904670
    9    -317.5937990470      7.21e-07  Convergence criterion met
 Total energy in the final basis set =     -317.5937990470
    9    -317.5938016004      7.20e-07  Convergence criterion met
 Total energy in the final basis set =     -317.5938016004
    9    -317.5938039957      7.18e-07  Convergence criterion met
 Total energy in the final basis set =     -317.5938039957
    9    -317.5938068895      7.16e-07  Convergence criterion met
 Total energy in the final basis set =     -317.5938068895
    9    -317.5938087098      7.15e-07  Convergence criterion met
 Total energy in the final basis set =     -317.5938087098

             Standard Nuclear Orientation (Angstroms)
    I     Atom           X                Y                Z
 ----------------------------------------------------------------
    1      F      -0.5195704238    -1.4355452958     0.2434858216
    2      F       1.9353479261     0.0717063067    -0.2239820589
    3      C      -0.4352321820     0.0476216074    -0.3507381614
    4      C       0.7859704053     0.6492402009     0.2833424899
    5      C      -1.7448184386     0.6962168325     0.0042221595
    6      H      -0.2945387270    -0.1199902543    -1.4194908898
    7      H       0.8137350829     1.7285036655     0.0758848191
    8      H       0.7499288896     0.4949095005     1.3672275702
    9      H      -1.8484490826     0.7996127701     1.0878434723
   10      H      -1.8171133154     1.6908225539    -0.4504428313
   11      H      -2.5715611346     0.0873031126    -0.3656523912
 ----------------------------------------------------------------

    9    -317.5938092543      7.15e-07  Convergence criterion met
 Total energy in the final basis set =     -317.5938092543

                    Orbital Energies (a.u.)
 --------------------------------------------------------------

 Alpha MOs
 -- Occupied --
-24.679 -24.639 -10.277 -10.273 -10.203  -1.188  -1.101  -0.808
 -0.708  -0.609  -0.513  -0.501  -0.478  -0.450  -0.422  -0.402
 -0.388  -0.356  -0.343  -0.327  -0.320

 Beta MOs
 -- Occupied --
-24.679 -24.639 -10.277 -10.273 -10.203  -1.188  -1.101  -0.808
 -0.708  -0.609  -0.513  -0.501  -0.478  -0.450  -0.422  -0.402
 -0.388  -0.356  -0.343  -0.327  -0.320

          Ground-State Mulliken Net Atomic Charges

     Atom                 Charge (a.u.)    Spin (a.u.)
  --------------------------------------------------------
      1 F                    -0.372342       0.000000
      2 F                    -0.309440       0.000000
      3 C                     0.163963      -0.000000
      4 C                     0.139624       0.000000
      5 C                    -0.345303      -0.000000
      6 H                     0.127605       0.000000
      7 H                     0.092324      -0.000000
      8 H                     0.116229      -0.000000
      9 H                     0.129125       0.000000
     10 H                     0.114845       0.000000
     11 H                     0.143370       0.000000
  --------------------------------------------------------
  Sum of atomic charges =     0.000000

                    Cartesian Multipole Moments
 -----------------------------------------------------------------
    Charge (ESU x 10^10)
                 0.0000
    Dipole Moment (Debye)
         X      -1.4818      Y       2.9383      Z      -0.2239
       Tot       3.2984
    Quadrupole Moments (Debye-Ang)
        XX     -30.8357     XY      -0.7987     YY     -30.7192
        XZ       1.3040     YZ       0.7908     ZZ     -27.3535

 Final energy is   -317.593809254322
 **  OPTIMIZATION CONVERGED  **
 Total job time:  29.42s(wall), 337.57s(cpu)
        *  Thank you very much for using Q-Chem.  Have a nice day.  *
