 Q-Chem 5.1, Q-Chem, Inc., Pleasanton, CA (2018)
 Q-Chem 5.1.1 for Intel X86 EM64T Linux

User input:
--------------------------------------------------------------

$comment
potential surface scanner
$end

$rem
JOBTYPE  PES_SCAN
UNRESTRICTED TRUE
SYM_IGNORE  TRUE
GEOM_OPT_MAX_CYCLES 400
SCF_MAX_CYCLES 400
METHOD   B3LYP
BASIS   6-31G**
PDB_PRINT 2
SCF_CONVERGENCE 6
THRESH 14
SCF_PRINT 1
$end
$molecule
0 1
F -0.486400 -1.298900 0.159500
F 1.889200 0.001700 -0.126500
C -0.435600 -0.028600 -0.332400
C 0.768200 0.660400 0.276200
C -1.735300 0.665500 0.023300
H -0.320900 -0.108600 -1.417700
H 0.851700 1.700600 -0.050500
H 0.742100 0.621000 1.368800
H -1.880200 0.688200 1.108400
H -1.756200 1.691300 -0.356400
H -2.582900 0.117800 -0.401000
$end
$scan
stre 1 3 1.900000 1.901000 0.100000
$end
--------------------------------------------------------------

    8    -317.6070310312      9.75e-07  Convergence criterion met
 Total energy in the final basis set =     -317.6070310312
    9    -317.6029493415      7.34e-07  Convergence criterion met
 Total energy in the final basis set =     -317.6029493415
    9    -317.5848141591      7.37e-07  Convergence criterion met
 Total energy in the final basis set =     -317.5848141591
   10    -317.5624798648      1.48e-07  Convergence criterion met
 Total energy in the final basis set =     -317.5624798648
   10    -317.5472397042      2.42e-07  Convergence criterion met
 Total energy in the final basis set =     -317.5472397042
   10    -317.5484125967      2.50e-07  Convergence criterion met
 Total energy in the final basis set =     -317.5484125967
   10    -317.5495680995      2.59e-07  Convergence criterion met
 Total energy in the final basis set =     -317.5495680995
   10    -317.5500413238      2.63e-07  Convergence criterion met
   10    -317.5507191350      2.35e-07  Convergence criterion met
 Total energy in the final basis set =     -317.5507191350
   10    -317.5507608014      2.34e-07  Convergence criterion met
 Total energy in the final basis set =     -317.5507608014
   10    -317.5507776598      2.34e-07  Convergence criterion met
 Total energy in the final basis set =     -317.5507776598
   10    -317.5507848117      2.35e-07  Convergence criterion met
 Total energy in the final basis set =     -317.5507848117
   10    -317.5507881231      2.35e-07  Convergence criterion met
 Total energy in the final basis set =     -317.5507881231
   10    -317.5507894332      2.35e-07  Convergence criterion met
 Total energy in the final basis set =     -317.5507894332

             Standard Nuclear Orientation (Angstroms)
    I     Atom           X                Y                Z
 ----------------------------------------------------------------
    1      F      -0.5488016549    -1.5831619448     0.3696475510
    2      F       1.9360041613     0.1279525922    -0.2968216207
    3      C      -0.4290429494     0.1520121432    -0.3950923307
    4      C       0.7998768660     0.6593970642     0.2753684861
    5      C      -1.7490069245     0.7221111515    -0.0125304404
    6      H      -0.2927777851    -0.1439197098    -1.4320633816
    7      H       0.8347217575     1.7567397283     0.1751922660
    8      H       0.7606051398     0.4018751883     1.3384199493
    9      H      -1.8319144911     0.8341894442     1.0708386511
   10      H      -1.8748595689     1.7102313075    -0.4764583468
   11      H      -2.5511045505     0.0729730351    -0.3648007835
 ----------------------------------------------------------------

   10    -317.5507901670      2.35e-07  Convergence criterion met
 Total energy in the final basis set =     -317.5507901670

                    Orbital Energies (a.u.)
 --------------------------------------------------------------

 Alpha MOs
 -- Occupied --
-24.687 -24.597 -10.291 -10.283 -10.214  -1.196  -1.032  -0.823
 -0.719  -0.615  -0.518  -0.507  -0.484  -0.447  -0.433  -0.404
 -0.362  -0.353  -0.325  -0.293  -0.293

 Beta MOs
 -- Occupied --
-24.687 -24.597 -10.291 -10.283 -10.214  -1.196  -1.032  -0.823
 -0.719  -0.615  -0.518  -0.507  -0.484  -0.447  -0.433  -0.404
 -0.362  -0.353  -0.325  -0.293  -0.293

          Ground-State Mulliken Net Atomic Charges

     Atom                 Charge (a.u.)    Spin (a.u.)
  --------------------------------------------------------
      1 F                    -0.402287       0.000000
      2 F                    -0.303606      -0.000000
      3 C                     0.089969      -0.000000
      4 C                     0.139921       0.000000
      5 C                    -0.344171       0.000000
      6 H                     0.155946      -0.000000
      7 H                     0.100155      -0.000000
      8 H                     0.139626       0.000000
      9 H                     0.141651       0.000000
     10 H                     0.122509      -0.000000
     11 H                     0.160287       0.000000
  --------------------------------------------------------
  Sum of atomic charges =     0.000000

                    Cartesian Multipole Moments
 -----------------------------------------------------------------
    Charge (ESU x 10^10)
                 0.0000
    Dipole Moment (Debye)
         X      -1.4057      Y       3.9472      Z      -0.5511
       Tot       4.2261
    Quadrupole Moments (Debye-Ang)
        XX     -30.0805     XY      -1.5845     YY     -31.8567
        XZ       1.7619     YZ       1.3734     ZZ     -27.0174

 Final energy is   -317.550790167017
 **  OPTIMIZATION CONVERGED  **
 Total job time:  65.59s(wall), 751.01s(cpu)
        *  Thank you very much for using Q-Chem.  Have a nice day.  *
