 Q-Chem 5.1, Q-Chem, Inc., Pleasanton, CA (2018)
 Q-Chem 5.1.1 for Intel X86 EM64T Linux

User input:
--------------------------------------------------------------

$comment
potential surface scanner
$end

$rem
JOBTYPE  PES_SCAN
UNRESTRICTED TRUE
SYM_IGNORE  TRUE
GEOM_OPT_MAX_CYCLES 400
SCF_MAX_CYCLES 400
METHOD   B3LYP
BASIS   6-31G**
PDB_PRINT 2
SCF_CONVERGENCE 6
THRESH 14
SCF_PRINT 1
$end
$molecule
0 1
F -0.486400 -1.298900 0.159500
F 1.889200 0.001700 -0.126500
C -0.435600 -0.028600 -0.332400
C 0.768200 0.660400 0.276200
C -1.735300 0.665500 0.023300
H -0.320900 -0.108600 -1.417700
H 0.851700 1.700600 -0.050500
H 0.742100 0.621000 1.368800
H -1.880200 0.688200 1.108400
H -1.756200 1.691300 -0.356400
H -2.582900 0.117800 -0.401000
$end
$scan
stre 1 3 1.000000 1.001000 0.100000
$end
--------------------------------------------------------------

    8    -317.6070310312      9.75e-07  Convergence criterion met
 Total energy in the final basis set =     -317.6070310312
    9    -317.5855806240      2.10e-07  Convergence criterion met
 Total energy in the final basis set =     -317.5855806240
    9    -317.4922834259      2.29e-07  Convergence criterion met
 Total energy in the final basis set =     -317.4922834259
    9    -317.4015034242      2.50e-07  Convergence criterion met
 Total energy in the final basis set =     -317.4015034242
    9    -317.3823070820      2.91e-07  Convergence criterion met
 Total energy in the final basis set =     -317.3823070820
    9    -317.3815311930      3.81e-07  Convergence criterion met
 Total energy in the final basis set =     -317.3815311930
    9    -317.3816692390      4.18e-07  Convergence criterion met
 Total energy in the final basis set =     -317.3816692390
    9    -317.3817498960      4.30e-07  Convergence criterion met
    9    -317.3819061362      4.35e-07  Convergence criterion met
 Total energy in the final basis set =     -317.3819061362
    9    -317.3819258899      4.35e-07  Convergence criterion met
 Total energy in the final basis set =     -317.3819258899
    9    -317.3819408712      4.34e-07  Convergence criterion met
 Total energy in the final basis set =     -317.3819408712
    9    -317.3819483839      4.32e-07  Convergence criterion met
 Total energy in the final basis set =     -317.3819483839
    9    -317.3819513435      4.31e-07  Convergence criterion met
 Total energy in the final basis set =     -317.3819513435
    9    -317.3819527618      4.31e-07  Convergence criterion met
 Total energy in the final basis set =     -317.3819527618

             Standard Nuclear Orientation (Angstroms)
    I     Atom           X                Y                Z
 ----------------------------------------------------------------
    1      F      -0.4639564893    -1.1499966195     0.0211694737
    2      F       1.9471600858    -0.0224144175    -0.0809397390
    3      C      -0.4400616608    -0.1969224875    -0.2806231730
    4      C       0.7695662894     0.6379693063     0.2869726309
    5      C      -1.7462012167     0.6440036872     0.0505146900
    6      H      -0.3131097693    -0.0394964677    -1.4081104140
    7      H       0.7818496542     1.6547320289    -0.1167211481
    8      H       0.7383642560     0.6765104924     1.3869994330
    9      H      -1.9019768257     0.7150266140     1.1355699354
   10      H      -1.6980158024     1.6525900964    -0.3655340438
   11      H      -2.6199185212     0.1383977668    -0.3775976450
 ----------------------------------------------------------------

    9    -317.3819534024      4.31e-07  Convergence criterion met
 Total energy in the final basis set =     -317.3819534024

                    Orbital Energies (a.u.)
 --------------------------------------------------------------

 Alpha MOs
 -- Occupied --
-24.764 -24.662 -10.284 -10.239 -10.171  -1.470  -1.166  -0.764
 -0.704  -0.683  -0.638  -0.601  -0.530  -0.469  -0.462  -0.406
 -0.394  -0.382  -0.329  -0.286  -0.271

 Beta MOs
 -- Occupied --
-24.764 -24.662 -10.284 -10.239 -10.171  -1.470  -1.166  -0.764
 -0.704  -0.683  -0.638  -0.601  -0.530  -0.469  -0.462  -0.406
 -0.394  -0.382  -0.329  -0.286  -0.271

          Ground-State Mulliken Net Atomic Charges

     Atom                 Charge (a.u.)    Spin (a.u.)
  --------------------------------------------------------
      1 F                     0.125158       0.000000
      2 F                    -0.333839      -0.000000
      3 C                     0.111926      -0.000000
      4 C                     0.063281       0.000000
      5 C                    -0.419581       0.000000
      6 H                    -0.017258       0.000000
      7 H                     0.085486      -0.000000
      8 H                     0.077415      -0.000000
      9 H                     0.097405      -0.000000
     10 H                     0.106573       0.000000
     11 H                     0.103436      -0.000000
  --------------------------------------------------------
  Sum of atomic charges =    -0.000000

                    Cartesian Multipole Moments
 -----------------------------------------------------------------
    Charge (ESU x 10^10)
                -0.0000
    Dipole Moment (Debye)
         X      -1.5710      Y       0.2328      Z       0.4946
       Tot       1.6634
    Quadrupole Moments (Debye-Ang)
        XX     -33.2330     XY       1.0020     YY     -28.0909
        XZ       0.5132     YZ       0.0589     ZZ     -29.0660

 Final energy is   -317.381953402400
 **  OPTIMIZATION CONVERGED  **
 Total job time:  60.17s(wall), 683.98s(cpu)
        *  Thank you very much for using Q-Chem.  Have a nice day.  *
