 Q-Chem 5.1, Q-Chem, Inc., Pleasanton, CA (2018)
 Q-Chem 5.1.1 for Intel X86 EM64T Linux

User input:
--------------------------------------------------------------

$comment
potential surface scanner
$end

$rem
JOBTYPE  PES_SCAN
UNRESTRICTED TRUE
SYM_IGNORE  TRUE
GEOM_OPT_MAX_CYCLES 400
SCF_MAX_CYCLES 400
METHOD   B3LYP
BASIS   6-31G**
PDB_PRINT 2
SCF_CONVERGENCE 6
THRESH 14
SCF_PRINT 1
$end
$molecule
0 3
F 0.323096 1.522587 1.530586
F 0.811554 -1.058754 -1.598405
C -0.311090 0.728781 -0.420743
C 0.689345 -0.320676 -0.450686
C -1.741460 0.480395 -0.045766
H -0.090368 1.671744 -0.924583
H 1.639977 -0.260912 0.077555
H 0.119075 0.716317 1.941834
H -2.351889 0.203223 -0.919435
H -1.835461 -0.346827 0.668531
H -2.199080 1.374525 0.392812
$end
$scan
stre 1 3 2.100000 2.101000 0.100000
$end
--------------------------------------------------------------

   10    -317.4615967637      8.26e-07  Convergence criterion met
 Total energy in the final basis set =     -317.4615967637
   10    -317.4549111426      8.60e-07  Convergence criterion met
 Total energy in the final basis set =     -317.4549111426
   10    -317.4547959451      8.62e-07  Convergence criterion met
 Total energy in the final basis set =     -317.4547959451
   10    -317.4548251140      8.63e-07  Convergence criterion met
 Total energy in the final basis set =     -317.4548251140
   10    -317.4548544621      8.64e-07  Convergence criterion met
 Total energy in the final basis set =     -317.4548544621
   10    -317.4548738216      8.65e-07  Convergence criterion met
 Total energy in the final basis set =     -317.4548738216
   10    -317.4548797335      8.64e-07  Convergence criterion met
 Total energy in the final basis set =     -317.4548797335
   10    -317.4548827771      8.64e-07  Convergence criterion met
   10    -317.4560510024      8.94e-07  Convergence criterion met
 Total energy in the final basis set =     -317.4560510024
   10    -317.4560645626      8.74e-07  Convergence criterion met
 Total energy in the final basis set =     -317.4560645626
   10    -317.4560922329      8.79e-07  Convergence criterion met
 Total energy in the final basis set =     -317.4560922329
   10    -317.4560943039      8.80e-07  Convergence criterion met
 Total energy in the final basis set =     -317.4560943039
   10    -317.4560979991      8.84e-07  Convergence criterion met
 Total energy in the final basis set =     -317.4560979991
   10    -317.4560996375      8.85e-07  Convergence criterion met
 Total energy in the final basis set =     -317.4560996375

             Standard Nuclear Orientation (Angstroms)
    I     Atom           X                Y                Z
 ----------------------------------------------------------------
    1      F       0.2243388413     1.2303359566     1.5542186049
    2      F       0.7983212544    -0.9382545068    -1.7913645251
    3      C      -0.3192969747     0.6898829230    -0.4008698470
    4      C       0.6478751916    -0.3811434304    -0.5471079198
    5      C      -1.7662216377     0.4246635496    -0.1192383706
    6      H      -0.0617463914     1.6804249024    -0.7823443429
    7      H       1.5628669081    -0.4551842380     0.0362256438
    8      H       0.4259470290     1.4035473847     2.4519546698
    9      H      -2.3236003434     0.1842117274    -1.0386801103
   10      H      -1.8855618394    -0.4270485717     0.5584180733
   11      H      -2.2492230379     1.2989673032     0.3304881240
 ----------------------------------------------------------------

   10    -317.4561006237      8.86e-07  Convergence criterion met
 Total energy in the final basis set =     -317.4561006237

                    Orbital Energies (a.u.)
 --------------------------------------------------------------

 Alpha MOs
 -- Occupied --
-24.690 -24.676 -10.241 -10.187 -10.174  -1.194  -1.182  -0.775
 -0.673  -0.579  -0.544  -0.479  -0.470  -0.436  -0.414  -0.401
 -0.393  -0.388  -0.365  -0.332  -0.181  -0.176

 Beta MOs
 -- Occupied --
-24.689 -24.670 -10.228 -10.174 -10.173  -1.191  -1.168  -0.747
 -0.651  -0.561  -0.528  -0.464  -0.455  -0.414  -0.402  -0.399
 -0.382  -0.380  -0.355  -0.321

          Ground-State Mulliken Net Atomic Charges

     Atom                 Charge (a.u.)    Spin (a.u.)
  --------------------------------------------------------
      1 F                    -0.299443      -0.008611
      2 F                    -0.277466       0.113412
      3 C                    -0.080716       0.907341
      4 C                     0.140206       0.914700
      5 C                    -0.319263      -0.048203
      6 H                     0.094501       0.011285
      7 H                     0.079512      -0.020938
      8 H                     0.336837       0.046780
      9 H                     0.114600       0.050826
     10 H                     0.108387       0.014810
     11 H                     0.102845       0.018597
  --------------------------------------------------------
  Sum of atomic charges =     0.000000

                    Cartesian Multipole Moments
 -----------------------------------------------------------------
    Charge (ESU x 10^10)
                -0.0000
    Dipole Moment (Debye)
         X       0.0448      Y       1.5696      Z       3.1124
       Tot       3.4861
    Quadrupole Moments (Debye-Ang)
        XX     -28.2247     XY       0.9338     YY     -28.6986
        XZ       2.7094     YZ       1.5363     ZZ     -24.6001

 Final energy is   -317.456100623663
 **  OPTIMIZATION CONVERGED  **
 Total job time:  109.96s(wall), 1187.41s(cpu)
        *  Thank you very much for using Q-Chem.  Have a nice day.  *
