 Q-Chem 5.1, Q-Chem, Inc., Pleasanton, CA (2018)
 Q-Chem 5.1.1 for Intel X86 EM64T Linux

User input:
--------------------------------------------------------------

$comment
potential surface scanner
$end

$rem
JOBTYPE  PES_SCAN
UNRESTRICTED TRUE
SYM_IGNORE  TRUE
GEOM_OPT_MAX_CYCLES 400
SCF_MAX_CYCLES 400
METHOD   B3LYP
BASIS   6-31G**
PDB_PRINT 2
SCF_CONVERGENCE 6
THRESH 14
SCF_PRINT 1
$end
$molecule
0 1
F -0.519570 -1.435545 0.243486
F 1.935348 0.071706 -0.223982
C -0.435232 0.047622 -0.350738
C 0.785970 0.649240 0.283342
C -1.744818 0.696217 0.004222
H -0.294539 -0.119990 -1.419491
H 0.813735 1.728504 0.075885
H 0.749929 0.494910 1.367228
H -1.848449 0.799613 1.087843
H -1.817113 1.690823 -0.450443
H -2.571561 0.087303 -0.365652
$end
$scan
stre 1 3 1.700000 1.701000 0.100000
$end
--------------------------------------------------------------

    9    -317.5938092440      7.15e-07  Convergence criterion met
 Total energy in the final basis set =     -317.5938092440
    9    -317.5802840054      8.43e-07  Convergence criterion met
 Total energy in the final basis set =     -317.5802840054
    9    -317.5801304084      8.69e-07  Convergence criterion met
 Total energy in the final basis set =     -317.5801304084
    9    -317.5802678240      8.89e-07  Convergence criterion met
 Total energy in the final basis set =     -317.5802678240
    9    -317.5802769843      8.90e-07  Convergence criterion met
 Total energy in the final basis set =     -317.5802769843
    9    -317.5802796233      8.89e-07  Convergence criterion met
 Total energy in the final basis set =     -317.5802796233
    9    -317.5802816317      8.88e-07  Convergence criterion met
 Total energy in the final basis set =     -317.5802816317
    9    -317.5802844573      8.85e-07  Convergence criterion met
 Total energy in the final basis set =     -317.5802844573
    9    -317.5802862184      8.84e-07  Convergence criterion met
 Total energy in the final basis set =     -317.5802862184

             Standard Nuclear Orientation (Angstroms)
    I     Atom           X                Y                Z
 ----------------------------------------------------------------
    1      F      -0.5282460165    -1.4846656061     0.2809190075
    2      F       1.9353586125     0.0865728655    -0.2434479323
    3      C      -0.4329697987     0.0846048319    -0.3658513439
    4      C       0.7906451221     0.6523978951     0.2827526734
    5      C      -1.7468065107     0.7049789067    -0.0021518709
    6      H      -0.2925135388    -0.1276224761    -1.4247670064
    7      H       0.8232022103     1.7384338929     0.1083257636
    8      H       0.7511631101     0.4661279813     1.3609813989
    9      H      -1.8420622558     0.8152971724     1.0811054457
   10      H      -1.8396504996     1.6954931960    -0.4641142196
   11      H      -2.5644204350     0.0787843405    -0.3620519159
 ----------------------------------------------------------------

    9    -317.5802867970      8.84e-07  Convergence criterion met
 Total energy in the final basis set =     -317.5802867970

                    Orbital Energies (a.u.)
 --------------------------------------------------------------

 Alpha MOs
 -- Occupied --
-24.682 -24.624 -10.282 -10.276 -10.207  -1.191  -1.074  -0.813
 -0.712  -0.611  -0.513  -0.503  -0.478  -0.448  -0.425  -0.400
 -0.376  -0.350  -0.343  -0.316  -0.314

 Beta MOs
 -- Occupied --
-24.682 -24.624 -10.282 -10.276 -10.207  -1.191  -1.074  -0.813
 -0.712  -0.611  -0.513  -0.503  -0.478  -0.448  -0.425  -0.400
 -0.376  -0.350  -0.343  -0.316  -0.314

          Ground-State Mulliken Net Atomic Charges

     Atom                 Charge (a.u.)    Spin (a.u.)
  --------------------------------------------------------
      1 F                    -0.383348      -0.000000
      2 F                    -0.307102      -0.000000
      3 C                     0.135999       0.000000
      4 C                     0.141358      -0.000000
      5 C                    -0.343780      -0.000000
      6 H                     0.138429      -0.000000
      7 H                     0.094789      -0.000000
      8 H                     0.123634      -0.000000
      9 H                     0.133244       0.000000
     10 H                     0.117380       0.000000
     11 H                     0.149396       0.000000
  --------------------------------------------------------
  Sum of atomic charges =     0.000000

                    Cartesian Multipole Moments
 -----------------------------------------------------------------
    Charge (ESU x 10^10)
                 0.0000
    Dipole Moment (Debye)
         X      -1.4594      Y       3.2876      Z      -0.3293
       Tot       3.6120
    Quadrupole Moments (Debye-Ang)
        XX     -30.5651     XY      -1.0482     YY     -31.0850
        XZ       1.4376     YZ       0.9547     ZZ     -27.2095

 Final energy is   -317.580286797000
 **  OPTIMIZATION CONVERGED  **
 Total job time:  30.87s(wall), 344.41s(cpu)
        *  Thank you very much for using Q-Chem.  Have a nice day.  *
