 Q-Chem 5.1, Q-Chem, Inc., Pleasanton, CA (2018)
 Q-Chem 5.1.1 for Intel X86 EM64T Linux

User input:
--------------------------------------------------------------

$comment
potential surface scanner
$end

$rem
JOBTYPE  PES_SCAN
UNRESTRICTED TRUE
SYM_IGNORE  TRUE
GEOM_OPT_MAX_CYCLES 400
SCF_MAX_CYCLES 400
METHOD   B3LYP
BASIS   6-31G**
PDB_PRINT 2
SCF_CONVERGENCE 6
THRESH 14
SCF_PRINT 1
$end
$molecule
0 1
F -0.486400 -1.298900 0.159500
F 1.889200 0.001700 -0.126500
C -0.435600 -0.028600 -0.332400
C 0.768200 0.660400 0.276200
C -1.735300 0.665500 0.023300
H -0.320900 -0.108600 -1.417700
H 0.851700 1.700600 -0.050500
H 0.742100 0.621000 1.368800
H -1.880200 0.688200 1.108400
H -1.756200 1.691300 -0.356400
H -2.582900 0.117800 -0.401000
$end
$scan
stre 1 3 0.700000 0.701000 0.100000
$end
--------------------------------------------------------------

    8    -317.6070310312      9.75e-07  Convergence criterion met
 Total energy in the final basis set =     -317.6070310312
    9    -317.5855806240      2.10e-07  Convergence criterion met
 Total energy in the final basis set =     -317.5855806240
    9    -317.4922834259      2.29e-07  Convergence criterion met
 Total energy in the final basis set =     -317.4922834259
    9    -317.3756092500      2.45e-07  Convergence criterion met
 Total energy in the final basis set =     -317.3756092500
    9    -317.1306348313      3.64e-07  Convergence criterion met
 Total energy in the final basis set =     -317.1306348313
    9    -316.8944560893      4.83e-07  Convergence criterion met
 Total energy in the final basis set =     -316.8944560893
    9    -316.6922100893      5.77e-07  Convergence criterion met
 Total energy in the final basis set =     -316.6922100893
    9    -316.4798251524      6.55e-07  Convergence criterion met
    9    -315.8102610207      8.78e-07  Convergence criterion met
 Total energy in the final basis set =     -315.8102610207
    9    -315.8102620169      8.78e-07  Convergence criterion met
 Total energy in the final basis set =     -315.8102620169
    9    -315.8102631237      8.78e-07  Convergence criterion met
 Total energy in the final basis set =     -315.8102631237
    9    -315.8102647365      8.79e-07  Convergence criterion met
 Total energy in the final basis set =     -315.8102647365
    9    -315.8102664718      8.80e-07  Convergence criterion met
 Total energy in the final basis set =     -315.8102664718
    9    -315.8102676145      8.81e-07  Convergence criterion met
 Total energy in the final basis set =     -315.8102676145

             Standard Nuclear Orientation (Angstroms)
    I     Atom           X                Y                Z
 ----------------------------------------------------------------
    1      F      -0.4002610823    -0.9858394395    -0.1295377742
    2      F       1.9486517034    -0.1917352340     0.1105696803
    3      C      -0.4346217757    -0.3083645850    -0.3023027133
    4      C       0.8516856152     0.6852366576     0.3169044008
    5      C      -1.8604948055     0.5895072592     0.1090840078
    6      H      -0.3316857478     0.0261945456    -1.5356221910
    7      H       0.9848765603     1.5989754525    -0.2680403941
    8      H       0.8080217464     0.9094884503     1.3937641209
    9      H      -2.0441040411     0.6176293981     1.1938276793
   10      H      -1.7207318203     1.6086011994    -0.2579419161
   11      H      -2.7476363524     0.1607062959    -0.3790049004
 ----------------------------------------------------------------

    9    -315.8102681837      8.82e-07  Convergence criterion met
 Total energy in the final basis set =     -315.8102681837

                    Orbital Energies (a.u.)
 --------------------------------------------------------------

 Alpha MOs
 -- Occupied --
-24.992 -24.657 -10.500 -10.211 -10.143  -1.803  -1.156  -0.976
 -0.975  -0.857  -0.702  -0.639  -0.527  -0.454  -0.450  -0.389
 -0.375  -0.374  -0.322  -0.226  -0.213

 Beta MOs
 -- Occupied --
-24.992 -24.657 -10.500 -10.211 -10.143  -1.803  -1.156  -0.976
 -0.975  -0.857  -0.702  -0.639  -0.527  -0.454  -0.450  -0.389
 -0.375  -0.374  -0.322  -0.226  -0.213

          Ground-State Mulliken Net Atomic Charges

     Atom                 Charge (a.u.)    Spin (a.u.)
  --------------------------------------------------------
      1 F                     0.999301       0.000000
      2 F                    -0.361004       0.000000
      3 C                    -0.292204      -0.000000
      4 C                    -0.067784       0.000000
      5 C                    -0.532123       0.000000
      6 H                    -0.181608       0.000000
      7 H                     0.092493      -0.000000
      8 H                     0.073545      -0.000000
      9 H                     0.078336      -0.000000
     10 H                     0.109635      -0.000000
     11 H                     0.081415      -0.000000
  --------------------------------------------------------
  Sum of atomic charges =    -0.000000

                    Cartesian Multipole Moments
 -----------------------------------------------------------------
    Charge (ESU x 10^10)
                 0.0000
    Dipole Moment (Debye)
         X      -1.2727      Y      -2.1826      Z       0.9656
       Tot       2.7048
    Quadrupole Moments (Debye-Ang)
        XX     -35.9180     XY       2.8091     YY     -25.9111
        XZ      -0.1560     YZ       0.2114     ZZ     -31.4337

 Final energy is   -315.810268183662
 **  OPTIMIZATION CONVERGED  **
 Total job time:  142.88s(wall), 1630.52s(cpu)
        *  Thank you very much for using Q-Chem.  Have a nice day.  *
