 Q-Chem 5.1, Q-Chem, Inc., Pleasanton, CA (2018)
 Q-Chem 5.1.1 for Intel X86 EM64T Linux

User input:
--------------------------------------------------------------

$comment
potential surface scanner
$end

$rem
JOBTYPE  PES_SCAN
UNRESTRICTED TRUE
SYM_IGNORE  TRUE
GEOM_OPT_MAX_CYCLES 400
SCF_MAX_CYCLES 400
METHOD   B3LYP
BASIS   6-31G**
PDB_PRINT 2
SCF_CONVERGENCE 6
THRESH 14
SCF_PRINT 1
$end
$molecule
0 3
F 1.145243 -0.446920 2.623334
F 0.619784 -1.168294 -0.426332
C -0.458442 0.937397 -0.651092
C 0.604626 0.141807 0.045932
C -1.895875 0.849528 -0.276216
H -0.180612 1.334317 -1.625662
H 1.607718 0.562264 -0.084915
H 0.463274 0.060764 1.185384
H -2.353922 -0.071259 -0.674237
H -2.027398 0.820331 0.811298
H -2.470699 1.690466 -0.675792
$end
$scan
stre 1 3 3.800000 3.801000 0.100000
$end
--------------------------------------------------------------

   15    -317.4378411249      8.97e-07  Convergence criterion met
 Total energy in the final basis set =     -317.4378411249
   15    -317.4393386601      6.69e-07  Convergence criterion met
 Total energy in the final basis set =     -317.4393386601
   15    -317.4397685848      6.14e-07  Convergence criterion met
 Total energy in the final basis set =     -317.4397685848
   15    -317.4402538198      4.92e-07  Convergence criterion met
 Total energy in the final basis set =     -317.4402538198
   15    -317.4403754101      4.38e-07  Convergence criterion met
 Total energy in the final basis set =     -317.4403754101
   15    -317.4404336660      3.99e-07  Convergence criterion met
 Total energy in the final basis set =     -317.4404336660
   15    -317.4404569915      3.73e-07  Convergence criterion met
 Total energy in the final basis set =     -317.4404569915
   14    -317.4404739916      9.26e-07  Convergence criterion met
   10    -317.4815440057      7.63e-07  Convergence criterion met
 Total energy in the final basis set =     -317.4815440057
   10    -317.4815468234      7.62e-07  Convergence criterion met
 Total energy in the final basis set =     -317.4815468234
   10    -317.4815498115      7.62e-07  Convergence criterion met
 Total energy in the final basis set =     -317.4815498115
   10    -317.4815529066      7.61e-07  Convergence criterion met
 Total energy in the final basis set =     -317.4815529066
   10    -317.4815555335      7.60e-07  Convergence criterion met
 Total energy in the final basis set =     -317.4815555335
   10    -317.4815568706      7.59e-07  Convergence criterion met
 Total energy in the final basis set =     -317.4815568706

             Standard Nuclear Orientation (Angstroms)
    I     Atom           X                Y                Z
 ----------------------------------------------------------------
    1      F       0.0364191638    -0.1598717486     2.7132777973
    2      F       1.0345059332    -1.0843225931    -0.8165789733
    3      C      -0.4665097951     0.7992728217    -0.9291261745
    4      C       0.7687107738     0.2001017169    -0.4407496853
    5      C      -1.7274954805     0.8041770706    -0.1237517339
    6      H      -0.4987802764     1.1689537109    -1.9560916163
    7      H       1.6897753221     0.7675773821    -0.3002114240
    8      H       0.4253054509    -0.1848162527     1.8645892023
    9      H      -2.4297268856     0.0335220113    -0.4796104454
   10      H      -1.5234336609     0.6039038493     0.9314624889
   11      H      -2.2550735454     1.7619030317    -0.2115074356
 ----------------------------------------------------------------

   10    -317.4815574704      7.59e-07  Convergence criterion met
 Total energy in the final basis set =     -317.4815574704

                    Orbital Energies (a.u.)
 --------------------------------------------------------------

 Alpha MOs
 -- Occupied --
-24.714 -24.658 -10.285 -10.224 -10.196  -1.222  -1.160  -0.805
 -0.703  -0.600  -0.522  -0.515  -0.499  -0.472  -0.428  -0.425
 -0.396  -0.372  -0.371  -0.361  -0.229  -0.225

 Beta MOs
 -- Occupied --
-24.707 -24.657 -10.272 -10.211 -10.196  -1.207  -1.158  -0.775
 -0.682  -0.576  -0.510  -0.503  -0.484  -0.441  -0.413  -0.411
 -0.389  -0.370  -0.368  -0.352

          Ground-State Mulliken Net Atomic Charges

     Atom                 Charge (a.u.)    Spin (a.u.)
  --------------------------------------------------------
      1 F                    -0.360725       0.015027
      2 F                    -0.253513       0.126195
      3 C                    -0.094948       0.943272
      4 C                     0.096656       0.855689
      5 C                    -0.356080      -0.052883
      6 H                     0.118313       0.004216
      7 H                     0.113915      -0.011282
      8 H                     0.345201       0.025855
      9 H                     0.134716       0.059158
     10 H                     0.130767       0.004511
     11 H                     0.125698       0.030241
  --------------------------------------------------------
  Sum of atomic charges =    -0.000000

                    Cartesian Multipole Moments
 -----------------------------------------------------------------
    Charge (ESU x 10^10)
                -0.0000
    Dipole Moment (Debye)
         X      -0.0557      Y       1.4071      Z      -2.0954
       Tot       2.5246
    Quadrupole Moments (Debye-Ang)
        XX     -26.9062     XY       0.6691     YY     -29.8448
        XZ       1.5787     YZ      -1.1755     ZZ     -36.1187

 Final energy is   -317.481557470360
 **  OPTIMIZATION CONVERGED  **
 Total job time:  286.01s(wall), 3299.19s(cpu)
        *  Thank you very much for using Q-Chem.  Have a nice day.  *
