 Q-Chem 5.1, Q-Chem, Inc., Pleasanton, CA (2018)
 Q-Chem 5.1.1 for Intel X86 EM64T Linux

User input:
--------------------------------------------------------------

$comment
potential surface scanner
$end

$rem
JOBTYPE  PES_SCAN
UNRESTRICTED TRUE
SYM_IGNORE  TRUE
GEOM_OPT_MAX_CYCLES 400
SCF_MAX_CYCLES 400
METHOD   B3LYP
BASIS   6-31G**
PDB_PRINT 2
SCF_CONVERGENCE 6
THRESH 14
SCF_PRINT 1
$end
$molecule
0 3
F 0.334389 1.502299 1.596475
F 0.830332 -1.089639 -1.559901
C -0.327023 0.725400 -0.464826
C 0.692005 -0.307463 -0.445505
C -1.748299 0.488628 -0.054595
H -0.110231 1.662133 -0.982210
H 1.639687 -0.202535 0.080630
H 0.143956 0.661991 1.940123
H -2.380808 0.217232 -0.914278
H -1.832683 -0.335556 0.663536
H -2.187628 1.387911 0.392250
$end
$scan
stre 1 3 2.200000 2.201000 0.100000
$end
--------------------------------------------------------------

   10    -317.4664837331      8.05e-07  Convergence criterion met
 Total energy in the final basis set =     -317.4664837331
   10    -317.4616025426      8.28e-07  Convergence criterion met
 Total energy in the final basis set =     -317.4616025426
   10    -317.4615169528      8.29e-07  Convergence criterion met
 Total energy in the final basis set =     -317.4615169528
   10    -317.4615458314      8.30e-07  Convergence criterion met
 Total energy in the final basis set =     -317.4615458314
   10    -317.4615663340      8.30e-07  Convergence criterion met
 Total energy in the final basis set =     -317.4615663340
   10    -317.4615779062      8.30e-07  Convergence criterion met
 Total energy in the final basis set =     -317.4615779062
   10    -317.4615810303      8.29e-07  Convergence criterion met
 Total energy in the final basis set =     -317.4615810303
   10    -317.4615831254      8.29e-07  Convergence criterion met
 Total energy in the final basis set =     -317.4615831254
   10    -317.4615862702      8.29e-07  Convergence criterion met
 Total energy in the final basis set =     -317.4615862702
   10    -317.4615899246      8.28e-07  Convergence criterion met
 Total energy in the final basis set =     -317.4615899246
   10    -317.4615930385      8.27e-07  Convergence criterion met
 Total energy in the final basis set =     -317.4615930385
   10    -317.4615948502      8.27e-07  Convergence criterion met
 Total energy in the final basis set =     -317.4615948502
   10    -317.4615958679      8.26e-07  Convergence criterion met
 Total energy in the final basis set =     -317.4615958679

             Standard Nuclear Orientation (Angstroms)
    I     Atom           X                Y                Z
 ----------------------------------------------------------------
    1      F       0.3230958582     1.5225868613     1.5305856598
    2      F       0.8115535696    -1.0587544412    -1.5984049312
    3      C      -0.3110898570     0.7287814625    -0.4207425090
    4      C       0.6893447597    -0.3206762256    -0.4506862919
    5      C      -1.7414604824     0.4803948029    -0.0457664984
    6      H      -0.0903676470     1.6717436919    -0.9245833075
    7      H       1.6399765159    -0.2609120504     0.0775549579
    8      H       0.1190748783     0.7163165722     1.9418335275
    9      H      -2.3518893748     0.2032227890    -0.9194348200
   10      H      -1.8354610022    -0.3468273482     0.6685311740
   11      H      -2.1990802183     1.3745248856     0.3928120388
 ----------------------------------------------------------------

   10    -317.4615967040      8.26e-07  Convergence criterion met
 Total energy in the final basis set =     -317.4615967040

                    Orbital Energies (a.u.)
 --------------------------------------------------------------

 Alpha MOs
 -- Occupied --
-24.694 -24.685 -10.253 -10.194 -10.186  -1.201  -1.192  -0.784
 -0.685  -0.579  -0.547  -0.497  -0.477  -0.450  -0.431  -0.411
 -0.404  -0.392  -0.377  -0.342  -0.195  -0.181

 Beta MOs
 -- Occupied --
-24.692 -24.679 -10.240 -10.186 -10.181  -1.196  -1.177  -0.756
 -0.662  -0.557  -0.542  -0.479  -0.461  -0.425  -0.412  -0.404
 -0.391  -0.383  -0.366  -0.331

          Ground-State Mulliken Net Atomic Charges

     Atom                 Charge (a.u.)    Spin (a.u.)
  --------------------------------------------------------
      1 F                    -0.297291       0.035543
      2 F                    -0.271948       0.117148
      3 C                    -0.099786       0.903132
      4 C                     0.119923       0.906043
      5 C                    -0.333794      -0.049577
      6 H                     0.102784       0.011104
      7 H                     0.085562      -0.017413
      8 H                     0.361286       0.008356
      9 H                     0.124277       0.050247
     10 H                     0.092314       0.012330
     11 H                     0.116674       0.023088
  --------------------------------------------------------
  Sum of atomic charges =     0.000000

                    Cartesian Multipole Moments
 -----------------------------------------------------------------
    Charge (ESU x 10^10)
                 0.0000
    Dipole Moment (Debye)
         X      -0.6799      Y       0.1023      Z       1.9879
       Tot       2.1035
    Quadrupole Moments (Debye-Ang)
        XX     -28.3338     XY      -0.2260     YY     -32.4008
        XZ       0.7521     YZ      -3.2410     ZZ     -28.0674

 Final energy is   -317.461596703978
 **  OPTIMIZATION CONVERGED  **
 Total job time:  44.26s(wall), 506.09s(cpu)
        *  Thank you very much for using Q-Chem.  Have a nice day.  *
