 Q-Chem 5.1, Q-Chem, Inc., Pleasanton, CA (2018)
 Q-Chem 5.1.1 for Intel X86 EM64T Linux

User input:
--------------------------------------------------------------

$comment
potential surface scanner
$end

$rem
JOBTYPE  PES_SCAN
UNRESTRICTED TRUE
SYM_IGNORE  TRUE
GEOM_OPT_MAX_CYCLES 400
SCF_MAX_CYCLES 400
METHOD   B3LYP
BASIS   6-31G**
PDB_PRINT 2
SCF_CONVERGENCE 6
THRESH 14
SCF_PRINT 1
$end
$molecule
0 3
F 0.031513 -0.042939 2.514792
F 0.998412 -1.112943 -0.833905
C -0.446636 0.813031 -0.845073
C 0.766237 0.152023 -0.380749
C -1.738062 0.784464 -0.091757
H -0.440178 1.234943 -1.852775
H 1.703735 0.687255 -0.218991
H 0.433990 -0.114537 1.670470
H -2.397282 -0.015569 -0.466638
H -1.568525 0.600986 0.971533
H -2.289507 1.723685 -0.215205
$end
$scan
stre 1 3 3.400000 3.401000 0.100000
$end
--------------------------------------------------------------

   10    -317.4829750178      7.55e-07  Convergence criterion met
 Total energy in the final basis set =     -317.4829750178
   10    -317.4820144239      7.67e-07  Convergence criterion met
 Total energy in the final basis set =     -317.4820144239
   10    -317.4827275342      7.60e-07  Convergence criterion met
 Total energy in the final basis set =     -317.4827275342
   10    -317.4829979065      7.55e-07  Convergence criterion met
 Total energy in the final basis set =     -317.4829979065
   10    -317.4830131327      7.54e-07  Convergence criterion met
 Total energy in the final basis set =     -317.4830131327
   10    -317.4830235311      7.54e-07  Convergence criterion met
 Total energy in the final basis set =     -317.4830235311
   10    -317.4830282576      7.54e-07  Convergence criterion met
 Total energy in the final basis set =     -317.4830282576
   10    -317.4830309843      7.54e-07  Convergence criterion met
   10    -317.4830644078      7.56e-07  Convergence criterion met
 Total energy in the final basis set =     -317.4830644078
   10    -317.4830674054      7.57e-07  Convergence criterion met
 Total energy in the final basis set =     -317.4830674054
   10    -317.4830690022      7.57e-07  Convergence criterion met
 Total energy in the final basis set =     -317.4830690022
   10    -317.4830702195      7.57e-07  Convergence criterion met
 Total energy in the final basis set =     -317.4830702195
   10    -317.4830719882      7.57e-07  Convergence criterion met
 Total energy in the final basis set =     -317.4830719882
   10    -317.4830735268      7.57e-07  Convergence criterion met
 Total energy in the final basis set =     -317.4830735268

             Standard Nuclear Orientation (Angstroms)
    I     Atom           X                Y                Z
 ----------------------------------------------------------------
    1      F       0.0485204756     0.0599902726     2.4672179074
    2      F       0.9642015260    -1.1218077042    -0.8969176589
    3      C      -0.4340983928     0.8344230378    -0.8080433590
    4      C       0.7593487494     0.1202648649    -0.3727444666
    5      C      -1.7405147925     0.7727611543    -0.0843100218
    6      H      -0.4039195191     1.3099199692    -1.7911787676
    7      H       1.7080405746     0.6242584961    -0.1790793512
    8      H       0.4192065742    -0.1283571948     1.6253660276
    9      H      -2.3535826138    -0.0690931524    -0.4471005431
   10      H      -1.5848783066     0.6262246482     0.9868094061
   11      H      -2.3286272748     1.6818146082    -0.2483171730
 ----------------------------------------------------------------

   10    -317.4830744971      7.57e-07  Convergence criterion met
 Total energy in the final basis set =     -317.4830744971

                    Orbital Energies (a.u.)
 --------------------------------------------------------------

 Alpha MOs
 -- Occupied --
-24.718 -24.655 -10.289 -10.225 -10.194  -1.226  -1.158  -0.806
 -0.706  -0.602  -0.527  -0.519  -0.496  -0.474  -0.430  -0.423
 -0.398  -0.372  -0.369  -0.359  -0.233  -0.229

 Beta MOs
 -- Occupied --
-24.711 -24.653 -10.277 -10.212 -10.194  -1.211  -1.154  -0.776
 -0.686  -0.578  -0.512  -0.504  -0.483  -0.443  -0.416  -0.410
 -0.389  -0.368  -0.365  -0.352

          Ground-State Mulliken Net Atomic Charges

     Atom                 Charge (a.u.)    Spin (a.u.)
  --------------------------------------------------------
      1 F                    -0.362888       0.032563
      2 F                    -0.248061       0.128624
      3 C                    -0.091132       0.944633
      4 C                     0.075741       0.823450
      5 C                    -0.361113      -0.053806
      6 H                     0.120617       0.006020
      7 H                     0.123294      -0.009044
      8 H                     0.343901       0.034469
      9 H                     0.133523       0.063437
     10 H                     0.143526       0.010903
     11 H                     0.122592       0.018751
  --------------------------------------------------------
  Sum of atomic charges =    -0.000000

                    Cartesian Multipole Moments
 -----------------------------------------------------------------
    Charge (ESU x 10^10)
                 0.0000
    Dipole Moment (Debye)
         X      -0.0031      Y       1.0928      Z      -2.0004
       Tot       2.2795
    Quadrupole Moments (Debye-Ang)
        XX     -26.7688     XY       0.6031     YY     -29.8630
        XZ       1.2404     YZ      -1.9947     ZZ     -35.5605

 Final energy is   -317.483074497055
 **  OPTIMIZATION CONVERGED  **
 Total job time:  81.16s(wall), 923.85s(cpu)
        *  Thank you very much for using Q-Chem.  Have a nice day.  *
