 Q-Chem 5.1, Q-Chem, Inc., Pleasanton, CA (2018)
 Q-Chem 5.1.1 for Intel X86 EM64T Linux

User input:
--------------------------------------------------------------

$comment
potential surface scanner
$end

$rem
JOBTYPE  PES_SCAN
UNRESTRICTED TRUE
SYM_IGNORE  TRUE
GEOM_OPT_MAX_CYCLES 400
SCF_MAX_CYCLES 400
METHOD   B3LYP
BASIS   6-31G**
PDB_PRINT 2
SCF_CONVERGENCE 6
THRESH 14
SCF_PRINT 1
$end
$molecule
0 3
F 0.207819 1.221278 1.508177
F 0.767098 -0.919834 -1.789703
C -0.305384 0.698314 -0.352772
C 0.649708 -0.379129 -0.534117
C -1.759086 0.425183 -0.109442
H -0.053465 1.681262 -0.757660
H 1.577459 -0.469351 0.026529
H 0.409489 1.402118 2.409932
H -2.289591 0.177725 -1.042451
H -1.891070 -0.424840 0.568309
H -2.259278 1.297677 0.324897
$end
$scan
stre 1 3 1.900000 1.901000 0.100000
$end
--------------------------------------------------------------

   11    -317.4479822999      2.61e-07  Convergence criterion met
 Total energy in the final basis set =     -317.4479822999
   11    -317.4371801359      3.02e-07  Convergence criterion met
 Total energy in the final basis set =     -317.4371801359
   11    -317.4370117317      3.12e-07  Convergence criterion met
 Total energy in the final basis set =     -317.4370117317
   11    -317.4370779824      3.20e-07  Convergence criterion met
 Total energy in the final basis set =     -317.4370779824
   11    -317.4371081536      3.22e-07  Convergence criterion met
 Total energy in the final basis set =     -317.4371081536
   11    -317.4371231079      3.20e-07  Convergence criterion met
 Total energy in the final basis set =     -317.4371231079
   11    -317.4371262632      3.18e-07  Convergence criterion met
 Total energy in the final basis set =     -317.4371262632
   11    -317.4371278427      3.17e-07  Convergence criterion met
   11    -317.4371342524      3.16e-07  Convergence criterion met
 Total energy in the final basis set =     -317.4371342524
   11    -317.4371374800      3.17e-07  Convergence criterion met
 Total energy in the final basis set =     -317.4371374800
   11    -317.4371394934      3.18e-07  Convergence criterion met
 Total energy in the final basis set =     -317.4371394934
   11    -317.4371410253      3.19e-07  Convergence criterion met
 Total energy in the final basis set =     -317.4371410253
   11    -317.4371426943      3.19e-07  Convergence criterion met
 Total energy in the final basis set =     -317.4371426943
   11    -317.4371442615      3.19e-07  Convergence criterion met
 Total energy in the final basis set =     -317.4371442615

             Standard Nuclear Orientation (Angstroms)
    I     Atom           X                Y                Z
 ----------------------------------------------------------------
    1      F       0.1918644847     1.1850269699     1.4754225380
    2      F       0.7249121337    -0.8924152597    -1.7926848649
    3      C      -0.2913616428     0.7102963116    -0.2997179711
    4      C       0.6494815869    -0.3735957792    -0.5242927212
    5      C      -1.7519033001     0.4271641900    -0.1021302249
    6      H      -0.0454002641     1.6856671921    -0.7271361204
    7      H       1.5938548132    -0.4786973577     0.0053180885
    8      H       0.4020824030     1.4009972380     2.3785663103
    9      H      -2.2416963405     0.1366214779    -1.0444481536
   10      H      -1.8993089905    -0.3986099498     0.6024488136
   11      H      -2.2788258836     1.3079479668     0.2803533056
 ----------------------------------------------------------------

   11    -317.4371451125      3.18e-07  Convergence criterion met
 Total energy in the final basis set =     -317.4371451125

                    Orbital Energies (a.u.)
 --------------------------------------------------------------

 Alpha MOs
 -- Occupied --
-24.698 -24.676 -10.241 -10.188 -10.173  -1.200  -1.182  -0.778
 -0.674  -0.594  -0.544  -0.479  -0.472  -0.437  -0.422  -0.407
 -0.391  -0.388  -0.363  -0.332  -0.181  -0.163

 Beta MOs
 -- Occupied --
-24.696 -24.670 -10.228 -10.174 -10.173  -1.196  -1.168  -0.750
 -0.653  -0.574  -0.526  -0.464  -0.458  -0.422  -0.403  -0.401
 -0.381  -0.379  -0.352  -0.321

          Ground-State Mulliken Net Atomic Charges

     Atom                 Charge (a.u.)    Spin (a.u.)
  --------------------------------------------------------
      1 F                    -0.273515      -0.023942
      2 F                    -0.278868       0.112114
      3 C                    -0.073680       0.857618
      4 C                     0.142403       0.920505
      5 C                    -0.315713      -0.042345
      6 H                     0.092955       0.015902
      7 H                     0.077587      -0.023967
      8 H                     0.308214       0.107938
      9 H                     0.114215       0.045964
     10 H                     0.106658       0.015451
     11 H                     0.099744       0.014762
  --------------------------------------------------------
  Sum of atomic charges =     0.000000

                    Cartesian Multipole Moments
 -----------------------------------------------------------------
    Charge (ESU x 10^10)
                 0.0000
    Dipole Moment (Debye)
         X       0.1091      Y       1.5712      Z       2.9571
       Tot       3.3504
    Quadrupole Moments (Debye-Ang)
        XX     -28.3114     XY       0.8137     YY     -28.6492
        XZ       2.4028     YZ       1.4336     ZZ     -25.5891

 Final energy is   -317.437145112452
 **  OPTIMIZATION CONVERGED  **
 Total job time:  52.44s(wall), 606.17s(cpu)
        *  Thank you very much for using Q-Chem.  Have a nice day.  *
