 Q-Chem 5.1, Q-Chem, Inc., Pleasanton, CA (2018)
 Q-Chem 5.1.1 for Intel X86 EM64T Linux

User input:
--------------------------------------------------------------

$comment
potential surface scanner
$end

$rem
JOBTYPE  PES_SCAN
UNRESTRICTED TRUE
SYM_IGNORE  TRUE
GEOM_OPT_MAX_CYCLES 400
SCF_MAX_CYCLES 400
METHOD   B3LYP
BASIS   6-31G**
PDB_PRINT 2
SCF_CONVERGENCE 6
THRESH 14
SCF_PRINT 1
$end
$molecule
0 3
F 0.166589 1.150578 1.395346
F 0.615798 -0.864491 -1.768312
C -0.266478 0.726907 -0.193035
C 0.648939 -0.373027 -0.490679
C -1.737838 0.424342 -0.094060
H -0.038954 1.670836 -0.698928
H 1.633235 -0.476397 -0.040161
H 0.399507 1.426474 2.360790
H -2.150362 0.132300 -1.070550
H -1.918943 -0.405324 0.597088
H -2.297794 1.298204 0.254198
$end
$scan
stre 1 3 1.600000 1.601000 0.100000
$end
--------------------------------------------------------------

   11    -317.4073791111      6.83e-07  Convergence criterion met
 Total energy in the final basis set =     -317.4073791111
   11    -317.3911650265      6.57e-07  Convergence criterion met
 Total energy in the final basis set =     -317.3911650265
   11    -317.3920063641      6.75e-07  Convergence criterion met
 Total energy in the final basis set =     -317.3920063641
   11    -317.3984155371      6.95e-07  Convergence criterion met
 Total energy in the final basis set =     -317.3984155371
   11    -317.4045077826      6.97e-07  Convergence criterion met
 Total energy in the final basis set =     -317.4045077826
   11    -317.4105740573      5.17e-07  Convergence criterion met
 Total energy in the final basis set =     -317.4105740573
   10    -317.4157875961      7.71e-07  Convergence criterion met
 Total energy in the final basis set =     -317.4157875961
   10    -317.4197527896      6.76e-07  Convergence criterion met
   11    -317.4334523071      8.61e-07  Convergence criterion met
 Total energy in the final basis set =     -317.4334523071
   11    -317.4335217934      8.58e-07  Convergence criterion met
 Total energy in the final basis set =     -317.4335217934
   11    -317.4335301916      8.62e-07  Convergence criterion met
 Total energy in the final basis set =     -317.4335301916
   11    -317.4335583708      8.54e-07  Convergence criterion met
 Total energy in the final basis set =     -317.4335583708
   11    -317.4335628006      8.60e-07  Convergence criterion met
 Total energy in the final basis set =     -317.4335628006
   11    -317.4335734821      8.59e-07  Convergence criterion met
 Total energy in the final basis set =     -317.4335734821

             Standard Nuclear Orientation (Angstroms)
    I     Atom           X                Y                Z
 ----------------------------------------------------------------
    1      F       0.0781389878     0.8975476185     1.2693257981
    2      F       0.2612689857    -1.5572817640    -0.7357254063
    3      C      -0.2655616398     0.7364193574    -0.2849933212
    4      C       0.6350265352    -0.2714843919    -0.8101269944
    5      C      -1.7386162823     0.4198779965    -0.3172458512
    6      H      -0.0119225047     1.7242041722    -0.6720279954
    7      H       1.6960545626    -0.1275909933    -0.9791540649
    8      H       0.7169106230     1.8645233208     3.7592183964
    9      H      -2.0996700718     0.3817874743    -1.3505009384
   10      H      -1.9259271171    -0.5478125478     0.1510769337
   11      H      -2.2920030788     1.1902117573     0.2218504436
 ----------------------------------------------------------------

   11    -317.4335739174      8.59e-07  Convergence criterion met
 Total energy in the final basis set =     -317.4335739174

                    Orbital Energies (a.u.)
 --------------------------------------------------------------

 Alpha MOs
 -- Occupied --
-24.728 -24.635 -10.287 -10.274 -10.195  -1.239  -1.103  -0.806
 -0.708  -0.606  -0.539  -0.506  -0.492  -0.453  -0.424  -0.406
 -0.387  -0.378  -0.330  -0.325  -0.293  -0.224

 Beta MOs
 -- Occupied --
-24.724 -24.630 -10.275 -10.274 -10.194  -1.229  -1.091  -0.797
 -0.693  -0.599  -0.532  -0.498  -0.466  -0.439  -0.420  -0.397
 -0.382  -0.373  -0.323  -0.320

          Ground-State Mulliken Net Atomic Charges

     Atom                 Charge (a.u.)    Spin (a.u.)
  --------------------------------------------------------
      1 F                    -0.369511       0.122807
      2 F                    -0.242494       0.085323
      3 C                     0.138983      -0.021532
      4 C                     0.189731       0.850418
      5 C                    -0.335084       0.001774
      6 H                     0.117156       0.002291
      7 H                     0.116871      -0.038516
      8 H                    -0.003043       0.996863
      9 H                     0.114819      -0.000022
     10 H                     0.140103      -0.000246
     11 H                     0.132468       0.000840
  --------------------------------------------------------
  Sum of atomic charges =    -0.000000

                    Cartesian Multipole Moments
 -----------------------------------------------------------------
    Charge (ESU x 10^10)
                -0.0000
    Dipole Moment (Debye)
         X      -0.2600      Y       0.5430      Z      -2.2970
       Tot       2.3746
    Quadrupole Moments (Debye-Ang)
        XX     -26.5427     XY      -0.5013     YY     -30.6340
        XZ      -0.9082     YZ      -2.8498     ZZ     -31.9902

 Final energy is   -317.433573917388
 **  OPTIMIZATION CONVERGED  **
 Total job time:  153.56s(wall), 1770.43s(cpu)
        *  Thank you very much for using Q-Chem.  Have a nice day.  *
