 Q-Chem 5.1, Q-Chem, Inc., Pleasanton, CA (2018)
 Q-Chem 5.1.1 for Intel X86 EM64T Linux

User input:
--------------------------------------------------------------

$comment
potential surface scanner
$end

$rem
JOBTYPE  PES_SCAN
UNRESTRICTED TRUE
SYM_IGNORE  TRUE
GEOM_OPT_MAX_CYCLES 400
SCF_MAX_CYCLES 400
METHOD   B3LYP
BASIS   6-31G**
PDB_PRINT 2
SCF_CONVERGENCE 6
THRESH 14
SCF_PRINT 1
$end
$molecule
0 3
F 0.066090 0.882799 1.220418
F 0.262106 -1.555699 -0.721165
C -0.261011 0.742813 -0.236774
C 0.631555 -0.266763 -0.818406
C -1.737915 0.421211 -0.312847
H -0.022436 1.723170 -0.659586
H 1.696859 -0.125438 -0.967895
H 0.733611 1.863602 3.740589
H -2.072177 0.389869 -1.354493
H -1.934362 -0.550700 0.143820
H -2.308621 1.185537 0.218038
$end
$scan
stre 1 3 1.400000 1.401000 0.100000
$end
--------------------------------------------------------------

   11    -317.4406957633      4.12e-07  Convergence criterion met
 Total energy in the final basis set =     -317.4406957633
   10    -317.4419672999      7.55e-07  Convergence criterion met
 Total energy in the final basis set =     -317.4419672999
   10    -317.4422418505      7.45e-07  Convergence criterion met
 Total energy in the final basis set =     -317.4422418505
   10    -317.4427086069      7.33e-07  Convergence criterion met
 Total energy in the final basis set =     -317.4427086069
   10    -317.4427208287      7.33e-07  Convergence criterion met
 Total energy in the final basis set =     -317.4427208287
   10    -317.4427348875      7.34e-07  Convergence criterion met
 Total energy in the final basis set =     -317.4427348875
   10    -317.4427368729      7.34e-07  Convergence criterion met
 Total energy in the final basis set =     -317.4427368729
   10    -317.4427429628      7.34e-07  Convergence criterion met
 Total energy in the final basis set =     -317.4427429628
   10    -317.4427441638      7.33e-07  Convergence criterion met
 Total energy in the final basis set =     -317.4427441638
   10    -317.4427456580      7.33e-07  Convergence criterion met
 Total energy in the final basis set =     -317.4427456580

             Standard Nuclear Orientation (Angstroms)
    I     Atom           X                Y                Z
 ----------------------------------------------------------------
    1      F       0.0550054285     0.8602237217     1.1747213162
    2      F       0.2630174772    -1.5550691030    -0.7161389167
    3      C      -0.2548970636     0.7454500287    -0.1857151779
    4      C       0.6276487256    -0.2623253489    -0.8246818139
    5      C      -1.7365163970     0.4224791728    -0.3076183844
    6      H      -0.0296138178     1.7198471837    -0.6402861411
    7      H       1.6962564124    -0.1235758976    -0.9613199761
    8      H       0.7446977248     1.8749220740     3.7182294722
    9      H      -2.0450356036     0.4032701932    -1.3568227211
   10      H      -1.9446095296    -0.5548788535     0.1332587316
   11      H      -2.3222543571     1.1800578291     0.2180726114
 ----------------------------------------------------------------

   10    -317.4427464563      7.33e-07  Convergence criterion met
 Total energy in the final basis set =     -317.4427464563

                    Orbital Energies (a.u.)
 --------------------------------------------------------------

 Alpha MOs
 -- Occupied --
-24.717 -24.670 -10.274 -10.273 -10.188  -1.227  -1.178  -0.792
 -0.700  -0.605  -0.530  -0.511  -0.502  -0.461  -0.444  -0.412
 -0.394  -0.384  -0.335  -0.333  -0.302  -0.218

 Beta MOs
 -- Occupied --
-24.712 -24.667 -10.273 -10.260 -10.188  -1.217  -1.173  -0.784
 -0.684  -0.597  -0.523  -0.505  -0.489  -0.442  -0.431  -0.408
 -0.392  -0.381  -0.332  -0.328

          Ground-State Mulliken Net Atomic Charges

     Atom                 Charge (a.u.)    Spin (a.u.)
  --------------------------------------------------------
      1 F                    -0.321215       0.048639
      2 F                    -0.252036       0.086958
      3 C                     0.197581      -0.015167
      4 C                     0.158111       0.914922
      5 C                    -0.345205       0.001365
      6 H                     0.092333       0.001264
      7 H                     0.105321      -0.036980
      8 H                    -0.001808       0.997943
      9 H                     0.112942       0.000460
     10 H                     0.132960      -0.000260
     11 H                     0.121017       0.000855
  --------------------------------------------------------
  Sum of atomic charges =     0.000000

                    Cartesian Multipole Moments
 -----------------------------------------------------------------
    Charge (ESU x 10^10)
                 0.0000
    Dipole Moment (Debye)
         X      -0.1552      Y       0.8349      Z      -1.3951
       Tot       1.6332
    Quadrupole Moments (Debye-Ang)
        XX     -27.1896     XY      -0.2953     YY     -30.8113
        XZ      -0.6644     YZ      -2.1674     ZZ     -31.5495

 Final energy is   -317.442746456309
 **  OPTIMIZATION CONVERGED  **
 Total job time:  34.65s(wall), 393.37s(cpu)
        *  Thank you very much for using Q-Chem.  Have a nice day.  *
