 Q-Chem 5.1, Q-Chem, Inc., Pleasanton, CA (2018)
 Q-Chem 5.1.1 for Intel X86 EM64T Linux

User input:
--------------------------------------------------------------

$comment
potential surface scanner
$end

$rem
JOBTYPE  PES_SCAN
UNRESTRICTED TRUE
SYM_IGNORE  TRUE
GEOM_OPT_MAX_CYCLES 400
SCF_MAX_CYCLES 400
METHOD   B3LYP
BASIS   6-31G**
PDB_PRINT 2
SCF_CONVERGENCE 6
THRESH 14
SCF_PRINT 1
$end
$molecule
0 3
F 1.208050 -0.469418 2.695277
F 0.601632 -1.174315 -0.417342
C -0.459195 0.939781 -0.656506
C 0.597440 0.143953 0.045020
C -1.897839 0.848230 -0.286348
H -0.181101 1.350752 -1.624857
H 1.602351 0.555203 -0.099618
H 0.442282 0.082890 1.168182
H -2.355671 -0.067999 -0.694706
H -2.032157 0.807914 0.800640
H -2.472093 1.693409 -0.678041
$end
$scan
stre 1 3 3.900000 3.901000 0.100000
$end
--------------------------------------------------------------

   16    -317.4357815387      9.19e-07  Convergence criterion met
 Total energy in the final basis set =     -317.4357815387
   16    -317.4368191793      3.44e-07  Convergence criterion met
 Total energy in the final basis set =     -317.4368191793
   16    -317.4373195190      2.78e-07  Convergence criterion met
 Total energy in the final basis set =     -317.4373195190
   15    -317.4377801554      8.78e-07  Convergence criterion met
 Total energy in the final basis set =     -317.4377801554
   15    -317.4378214110      8.38e-07  Convergence criterion met
 Total energy in the final basis set =     -317.4378214110
   15    -317.4378308521      8.36e-07  Convergence criterion met
 Total energy in the final basis set =     -317.4378308521
   15    -317.4378347509      8.49e-07  Convergence criterion met
 Total energy in the final basis set =     -317.4378347509
   15    -317.4378383588      8.72e-07  Convergence criterion met
 Total energy in the final basis set =     -317.4378383588
   15    -317.4378402729      8.90e-07  Convergence criterion met
 Total energy in the final basis set =     -317.4378402729

             Standard Nuclear Orientation (Angstroms)
    I     Atom           X                Y                Z
 ----------------------------------------------------------------
    1      F       1.1452426356    -0.4469197598     2.6233338830
    2      F       0.6197841087    -1.1682939958    -0.4263322489
    3      C      -0.4584415686     0.9373971028    -0.6510924124
    4      C       0.6046257731     0.1418065922     0.0459316334
    5      C      -1.8958751595     0.8495276225    -0.2762156219
    6      H      -0.1806117036     1.3343166935    -1.6256617412
    7      H       1.6077184098     0.5622638668    -0.0849152314
    8      H       0.4632742222     0.0607639954     1.1853841943
    9      H      -2.3539215166    -0.0712594574    -0.6742371613
   10      H      -2.0273975131     0.8203311712     0.8112978975
   11      H      -2.4706986881     1.6904661685    -0.6757921910
 ----------------------------------------------------------------

   15    -317.4378411278      8.97e-07  Convergence criterion met
 Total energy in the final basis set =     -317.4378411278

                    Orbital Energies (a.u.)
 --------------------------------------------------------------

 Alpha MOs
 -- Occupied --
-24.706 -24.694 -10.289 -10.225 -10.200  -1.199  -1.140  -0.806
 -0.713  -0.608  -0.518  -0.510  -0.484  -0.452  -0.429  -0.420
 -0.396  -0.386  -0.385  -0.351  -0.336  -0.230

 Beta MOs
 -- Occupied --
-24.689 -24.682 -10.286 -10.211 -10.201  -1.190  -1.070  -0.783
 -0.705  -0.584  -0.502  -0.493  -0.465  -0.419  -0.412  -0.389
 -0.362  -0.360  -0.346  -0.341

          Ground-State Mulliken Net Atomic Charges

     Atom                 Charge (a.u.)    Spin (a.u.)
  --------------------------------------------------------
      1 F                    -0.159573       0.779054
      2 F                    -0.282486       0.094621
      3 C                    -0.094893       1.007921
      4 C                     0.097346       0.138009
      5 C                    -0.345269      -0.073716
      6 H                     0.120920      -0.027040
      7 H                     0.120764       0.006442
      8 H                     0.148174      -0.018189
      9 H                     0.140462       0.064534
     10 H                     0.129520       0.016310
     11 H                     0.125036       0.012054
  --------------------------------------------------------
  Sum of atomic charges =     0.000000

                    Cartesian Multipole Moments
 -----------------------------------------------------------------
    Charge (ESU x 10^10)
                -0.0000
    Dipole Moment (Debye)
         X      -1.1675      Y       1.8595      Z      -1.6100
       Tot       2.7227
    Quadrupole Moments (Debye-Ang)
        XX     -27.5345     XY       0.7785     YY     -30.5223
        XZ      -1.4211     YZ      -0.5421     ZZ     -32.4877

 Final energy is   -317.437841127768
 **  OPTIMIZATION CONVERGED  **
 Total job time:  40.30s(wall), 468.34s(cpu)
        *  Thank you very much for using Q-Chem.  Have a nice day.  *
