 Q-Chem 5.1, Q-Chem, Inc., Pleasanton, CA (2018)
 Q-Chem 5.1.1 for Intel X86 EM64T Linux

User input:
--------------------------------------------------------------

$comment
potential surface scanner
$end

$rem
JOBTYPE  PES_SCAN
UNRESTRICTED TRUE
SYM_IGNORE  TRUE
GEOM_OPT_MAX_CYCLES 400
SCF_MAX_CYCLES 400
METHOD   B3LYP
BASIS   6-31G**
PDB_PRINT 2
SCF_CONVERGENCE 6
THRESH 14
SCF_PRINT 1
$end
$molecule
0 1
F -0.486400 -1.298900 0.159500
F 1.889200 0.001700 -0.126500
C -0.435600 -0.028600 -0.332400
C 0.768200 0.660400 0.276200
C -1.735300 0.665500 0.023300
H -0.320900 -0.108600 -1.417700
H 0.851700 1.700600 -0.050500
H 0.742100 0.621000 1.368800
H -1.880200 0.688200 1.108400
H -1.756200 1.691300 -0.356400
H -2.582900 0.117800 -0.401000
$end
$scan
stre 1 3 1.300000 1.301000 0.100000
$end
--------------------------------------------------------------

    8    -317.6070310312      9.75e-07  Convergence criterion met
 Total energy in the final basis set =     -317.6070310312
    9    -317.6021500090      3.60e-07  Convergence criterion met
 Total energy in the final basis set =     -317.6021500090
    9    -317.6025339395      3.16e-07  Convergence criterion met
 Total energy in the final basis set =     -317.6025339395
    9    -317.6026094857      2.98e-07  Convergence criterion met
 Total energy in the final basis set =     -317.6026094857
    9    -317.6026169616      2.96e-07  Convergence criterion met
 Total energy in the final basis set =     -317.6026169616
    9    -317.6026259586      2.96e-07  Convergence criterion met
 Total energy in the final basis set =     -317.6026259586
    9    -317.6026362147      2.96e-07  Convergence criterion met
 Total energy in the final basis set =     -317.6026362147
    9    -317.6026494726      2.98e-07  Convergence criterion met
 Total energy in the final basis set =     -317.6026494726
    9    -317.6026562053      2.98e-07  Convergence criterion met
 Total energy in the final basis set =     -317.6026562053
    9    -317.6026578224      2.98e-07  Convergence criterion met
 Total energy in the final basis set =     -317.6026578224

             Standard Nuclear Orientation (Angstroms)
    I     Atom           X                Y                Z
 ----------------------------------------------------------------
    1      F      -0.4924694983    -1.2908287545     0.1351364572
    2      F       1.9365341469     0.0308678305    -0.1632261055
    3      C      -0.4404436926    -0.0700640806    -0.3087410699
    4      C       0.7709260189     0.6401365865     0.2837242703
    5      C      -1.7377401020     0.6704534903     0.0239227947
    6      H      -0.3032828330    -0.0858026394    -1.4037374896
    7      H       0.7850277454     1.6946327455    -0.0162392800
    8      H       0.7416284654     0.5761591041     1.3792060689
    9      H      -1.8659544369     0.7612280013     1.1079776097
   10      H      -1.7502309692     1.6720740952    -0.4151017224
   11      H      -2.5902948447     0.1115436212    -0.3712215333
 ----------------------------------------------------------------

    9    -317.6026579266      2.97e-07  Convergence criterion met
 Total energy in the final basis set =     -317.6026579266

                    Orbital Energies (a.u.)
 --------------------------------------------------------------

 Alpha MOs
 -- Occupied --
-24.687 -24.672 -10.266 -10.259 -10.190  -1.228  -1.177  -0.788
 -0.697  -0.616  -0.534  -0.505  -0.498  -0.461  -0.455  -0.408
 -0.403  -0.383  -0.337  -0.328  -0.308

 Beta MOs
 -- Occupied --
-24.687 -24.672 -10.266 -10.259 -10.190  -1.228  -1.177  -0.788
 -0.697  -0.616  -0.534  -0.505  -0.498  -0.461  -0.455  -0.408
 -0.403  -0.383  -0.337  -0.328  -0.308

          Ground-State Mulliken Net Atomic Charges

     Atom                 Charge (a.u.)    Spin (a.u.)
  --------------------------------------------------------
      1 F                    -0.270247       0.000000
      2 F                    -0.318733       0.000000
      3 C                     0.220427       0.000000
      4 C                     0.120877      -0.000000
      5 C                    -0.362864       0.000000
      6 H                     0.079346       0.000000
      7 H                     0.086565       0.000000
      8 H                     0.095734      -0.000000
      9 H                     0.115127      -0.000000
     10 H                     0.108885       0.000000
     11 H                     0.124883       0.000000
  --------------------------------------------------------
  Sum of atomic charges =    -0.000000

                    Cartesian Multipole Moments
 -----------------------------------------------------------------
    Charge (ESU x 10^10)
                -0.0000
    Dipole Moment (Debye)
         X      -1.5455      Y       1.8080      Z       0.0927
       Tot       2.3804
    Quadrupole Moments (Debye-Ang)
        XX     -31.7688     XY      -0.0353     YY     -29.6098
        XZ       0.9294     YZ       0.3791     ZZ     -27.9491

 Final energy is   -317.602657926623
 **  OPTIMIZATION CONVERGED  **
 Total job time:  32.69s(wall), 372.85s(cpu)
        *  Thank you very much for using Q-Chem.  Have a nice day.  *
