 Q-Chem 5.1, Q-Chem, Inc., Pleasanton, CA (2018)
 Q-Chem 5.1.1 for Intel X86 EM64T Linux

User input:
--------------------------------------------------------------

$comment
potential surface scanner
$end

$rem
JOBTYPE  PES_SCAN
UNRESTRICTED TRUE
SYM_IGNORE  TRUE
GEOM_OPT_MAX_CYCLES 400
SCF_MAX_CYCLES 400
METHOD   B3LYP
BASIS   6-31G**
PDB_PRINT 2
SCF_CONVERGENCE 6
THRESH 14
SCF_PRINT 1
$end
$molecule
0 3
F 0.119475 0.299515 2.370761
F 0.913701 -1.129543 -1.019752
C -0.415896 0.854385 -0.734959
C 0.743388 0.053332 -0.364429
C -1.753455 0.736302 -0.078726
H -0.341626 1.433080 -1.658891
H 1.704462 0.499356 -0.103167
H 0.404216 -0.124802 1.582352
H -2.314210 -0.125574 -0.476970
H -1.643394 0.588324 0.998068
H -2.362962 1.626024 -0.262584
$end
$scan
stre 1 3 3.100000 3.101000 0.100000
$end
--------------------------------------------------------------

   10    -317.4826251578      7.59e-07  Convergence criterion met
 Total energy in the final basis set =     -317.4826251578
   10    -317.4817255708      7.65e-07  Convergence criterion met
 Total energy in the final basis set =     -317.4817255708
   10    -317.4819919704      7.61e-07  Convergence criterion met
 Total energy in the final basis set =     -317.4819919704
   10    -317.4820724208      7.60e-07  Convergence criterion met
 Total energy in the final basis set =     -317.4820724208
   10    -317.4820854974      7.59e-07  Convergence criterion met
 Total energy in the final basis set =     -317.4820854974
   10    -317.4820933656      7.59e-07  Convergence criterion met
 Total energy in the final basis set =     -317.4820933656
   10    -317.4820954121      7.60e-07  Convergence criterion met
 Total energy in the final basis set =     -317.4820954121
   10    -317.4820971095      7.60e-07  Convergence criterion met
 Total energy in the final basis set =     -317.4820971095

             Standard Nuclear Orientation (Angstroms)
    I     Atom           X                Y                Z
 ----------------------------------------------------------------
    1      F       0.1320146319     0.3894336304     2.3195773358
    2      F       0.8859876181    -1.1369724869    -1.0413552776
    3      C      -0.4058204042     0.8619454657    -0.6966237649
    4      C       0.7430164264     0.0324265264    -0.3557465760
    5      C      -1.7568605381     0.7187267649    -0.0743292966
    6      H      -0.3210141729     1.4626011483    -1.6058966401
    7      H       1.7142578925     0.4583275675    -0.0991180721
    8      H       0.4029136046    -0.0980372092     1.5629903147
    9      H      -2.3072070180    -0.1278238702    -0.5172618826
   10      H      -1.6713051376     0.5348558686     0.9987506173
   11      H      -2.3622839027     1.6149155947    -0.2392837580
 ----------------------------------------------------------------

   10    -317.4820981011      7.60e-07  Convergence criterion met
 Total energy in the final basis set =     -317.4820981011

                    Orbital Energies (a.u.)
 --------------------------------------------------------------

 Alpha MOs
 -- Occupied --
-24.718 -24.656 -10.288 -10.224 -10.192  -1.226  -1.160  -0.805
 -0.705  -0.601  -0.531  -0.519  -0.493  -0.473  -0.431  -0.422
 -0.397  -0.372  -0.369  -0.360  -0.234  -0.226

 Beta MOs
 -- Occupied --
-24.711 -24.654 -10.276 -10.211 -10.192  -1.211  -1.155  -0.775
 -0.686  -0.577  -0.516  -0.503  -0.480  -0.442  -0.417  -0.410
 -0.387  -0.369  -0.363  -0.352

          Ground-State Mulliken Net Atomic Charges

     Atom                 Charge (a.u.)    Spin (a.u.)
  --------------------------------------------------------
      1 F                    -0.359164       0.038179
      2 F                    -0.247542       0.126856
      3 C                    -0.087290       0.946624
      4 C                     0.066309       0.814975
      5 C                    -0.356549      -0.054127
      6 H                     0.120557       0.006721
      7 H                     0.127656      -0.010394
      8 H                     0.339656       0.039604
      9 H                     0.130112       0.062216
     10 H                     0.144546       0.016915
     11 H                     0.121710       0.012429
  --------------------------------------------------------
  Sum of atomic charges =    -0.000000

                    Cartesian Multipole Moments
 -----------------------------------------------------------------
    Charge (ESU x 10^10)
                -0.0000
    Dipole Moment (Debye)
         X      -0.1101      Y       0.5435      Z      -1.6675
       Tot       1.7572
    Quadrupole Moments (Debye-Ang)
        XX     -26.7648     XY       0.3704     YY     -30.0376
        XZ       0.8747     YZ      -3.3118     ZZ     -34.9992

 Final energy is   -317.482098101101
 **  OPTIMIZATION CONVERGED  **
 Total job time:  27.47s(wall), 318.39s(cpu)
        *  Thank you very much for using Q-Chem.  Have a nice day.  *
