 Q-Chem 5.1, Q-Chem, Inc., Pleasanton, CA (2018)
 Q-Chem 5.1.1 for Intel X86 EM64T Linux

User input:
--------------------------------------------------------------

$comment
potential surface scanner
$end

$rem
JOBTYPE  PES_SCAN
UNRESTRICTED TRUE
SYM_IGNORE  TRUE
GEOM_OPT_MAX_CYCLES 400
SCF_MAX_CYCLES 400
METHOD   B3LYP
BASIS   6-31G**
PDB_PRINT 2
SCF_CONVERGENCE 6
THRESH 14
SCF_PRINT 1
$end
$molecule
0 3
Cl -0.703866 -2.285876 -0.608259
Cl -0.309826 2.328595 0.122504
C -0.827406 0.463197 2.114530
C 0.166100 1.269400 1.451638
C -1.082133 -1.073532 -1.895351
H -1.471936 0.880101 2.888958
H -1.037597 -0.550136 1.777572
H 1.150047 1.506758 1.839639
H -1.172544 -0.094503 -1.427655
H -2.017055 -1.364383 -2.372145
H -0.265887 -1.079615 -2.616029
$end
$scan
stre 1 4 4.100000 4.101000 0.100000
$end
--------------------------------------------------------------

   10   -1038.2074969638      9.18e-07  Convergence criterion met
 Total energy in the final basis set =    -1038.2074969638
   10   -1038.2068334697      8.95e-07  Convergence criterion met
 Total energy in the final basis set =    -1038.2068334697
   10   -1038.2072055281      9.06e-07  Convergence criterion met
 Total energy in the final basis set =    -1038.2072055281
   10   -1038.2073518529      9.18e-07  Convergence criterion met
 Total energy in the final basis set =    -1038.2073518529
   10   -1038.2073643041      9.19e-07  Convergence criterion met
 Total energy in the final basis set =    -1038.2073643041
   10   -1038.2073710275      9.19e-07  Convergence criterion met
 Total energy in the final basis set =    -1038.2073710275
   10   -1038.2073728591      9.18e-07  Convergence criterion met
 Total energy in the final basis set =    -1038.2073728591
   10   -1038.2073751737      9.17e-07  Convergence criterion met
   10   -1038.2073812473      9.17e-07  Convergence criterion met
 Total energy in the final basis set =    -1038.2073812473
   10   -1038.2073856274      9.17e-07  Convergence criterion met
 Total energy in the final basis set =    -1038.2073856274
   10   -1038.2073906048      9.19e-07  Convergence criterion met
 Total energy in the final basis set =    -1038.2073906048
   10   -1038.2073950658      9.20e-07  Convergence criterion met
 Total energy in the final basis set =    -1038.2073950658
   10   -1038.2073981588      9.20e-07  Convergence criterion met
 Total energy in the final basis set =    -1038.2073981588
   10   -1038.2073996907      9.19e-07  Convergence criterion met
 Total energy in the final basis set =    -1038.2073996907

             Standard Nuclear Orientation (Angstroms)
    I     Atom           X                Y                Z
 ----------------------------------------------------------------
    1      Cl     -0.6362243658    -2.2379194138    -0.5947910467
    2      Cl     -0.3358242643     2.3229656092     0.1286699869
    3      C      -0.8494777739     0.4754803999     2.1392626951
    4      C       0.1484434789     1.2379610652     1.4331525270
    5      C      -1.0673250094    -1.0650396091    -1.9018188510
    6      H      -1.4338573941     0.9155672128     2.9477826396
    7      H      -1.1238250738    -0.5240032260     1.8069721893
    8      H       1.1666185376     1.4101649211     1.7622508749
    9      H      -1.1926284286    -0.0819337510    -1.4511510167
   10      H      -1.9928278470    -1.4000913976    -2.3678948959
   11      H      -0.2551748595    -1.0531458107    -2.6270331024
 ----------------------------------------------------------------

   10   -1038.2074004029      9.19e-07  Convergence criterion met
 Total energy in the final basis set =    -1038.2074004029

                    Orbital Energies (a.u.)
 --------------------------------------------------------------

 Alpha MOs
 -- Occupied --
*******-101.536 -10.254 -10.243 -10.219  -9.470  -9.452  -7.234
 -7.225  -7.224  -7.217  -7.206  -7.206  -0.872  -0.847  -0.749
 -0.678  -0.603  -0.465  -0.456  -0.449  -0.446  -0.439  -0.410
 -0.355  -0.316  -0.297  -0.297  -0.237  -0.207

 Beta MOs
 -- Occupied --
*******-101.536 -10.243 -10.241 -10.206  -9.468  -9.452  -7.232
 -7.223  -7.222  -7.217  -7.206  -7.206  -0.855  -0.847  -0.710
 -0.678  -0.570  -0.450  -0.449  -0.445  -0.428  -0.421  -0.410
 -0.334  -0.311  -0.297  -0.297

          Ground-State Mulliken Net Atomic Charges

     Atom                 Charge (a.u.)    Spin (a.u.)
  --------------------------------------------------------
      1 Cl                   -0.103114       0.000116
      2 Cl                   -0.037065       0.135596
      3 C                    -0.201848       0.970923
      4 C                    -0.204804       0.908688
      5 C                    -0.403379       0.000437
      6 H                     0.129802       0.006569
      7 H                     0.153793      -0.003703
      8 H                     0.160854      -0.018446
      9 H                     0.179311      -0.000214
     10 H                     0.161887       0.000006
     11 H                     0.164562       0.000028
  --------------------------------------------------------
  Sum of atomic charges =     0.000000

                    Cartesian Multipole Moments
 -----------------------------------------------------------------
    Charge (ESU x 10^10)
                 0.0000
    Dipole Moment (Debye)
         X      -0.3470      Y       0.4357      Z      -0.1424
       Tot       0.5749
    Quadrupole Moments (Debye-Ang)
        XX     -43.0403     XY       0.7267     YY     -51.7199
        XZ       1.6075     YZ       1.3831     ZZ     -37.5058

 Final energy is   -1038.20740040286
 **  OPTIMIZATION CONVERGED  **
 Total job time:  53.48s(wall), 599.71s(cpu)
        *  Thank you very much for using Q-Chem.  Have a nice day.  *
