 Q-Chem 5.1, Q-Chem, Inc., Pleasanton, CA (2018)
 Q-Chem 5.1.1 for Intel X86 EM64T Linux

User input:
--------------------------------------------------------------

$comment
potential surface scanner
$end

$rem
JOBTYPE  PES_SCAN
UNRESTRICTED TRUE
SYM_IGNORE  TRUE
GEOM_OPT_MAX_CYCLES 400
SCF_MAX_CYCLES 400
METHOD   B3LYP
BASIS   6-31G**
PDB_PRINT 2
SCF_CONVERGENCE 6
THRESH 14
SCF_PRINT 1
$end
$molecule
0 1
Cl 1.188603 -1.984171 -0.420985
Cl 1.091334 1.496595 -0.338260
C -1.034363 0.067138 0.716205
C 0.435797 0.264961 0.644233
C -1.786035 0.034306 -0.615798
H -1.405157 0.899924 1.342253
H -1.198910 -0.851370 1.286805
H 1.064622 0.010936 1.488964
H -1.407762 -0.788620 -1.226585
H -2.852245 -0.118447 -0.430783
H -1.667986 0.968749 -1.170654
$end
$scan
stre 1 4 2.700000 2.701000 0.100000
$end
--------------------------------------------------------------

   10   -1038.2869120150      7.40e-07  Convergence criterion met
 Total energy in the final basis set =    -1038.2869120150
   11   -1038.2800753481      3.59e-07  Convergence criterion met
 Total energy in the final basis set =    -1038.2800753481
   11   -1038.2800155655      3.63e-07  Convergence criterion met
 Total energy in the final basis set =    -1038.2800155655
   11   -1038.2801951862      3.66e-07  Convergence criterion met
 Total energy in the final basis set =    -1038.2801951862
   11   -1038.2801995523      3.67e-07  Convergence criterion met
 Total energy in the final basis set =    -1038.2801995523
   11   -1038.2802006807      3.68e-07  Convergence criterion met
 Total energy in the final basis set =    -1038.2802006807

             Standard Nuclear Orientation (Angstroms)
    I     Atom           X                Y                Z
 ----------------------------------------------------------------
    1      Cl      1.1961566779    -2.0502434975    -0.4398602104
    2      Cl      1.0842733042     1.5111193645    -0.3333661158
    3      C      -1.0375110988     0.0769632067     0.7206472200
    4      C       0.4270928467     0.2945891891     0.6557212094
    5      C      -1.7831167777     0.0366099072    -0.6155229323
    6      H      -1.4232416771     0.9048907789     1.3454025235
    7      H      -1.1926743795    -0.8438773827     1.2898196943
    8      H       1.0698618447     0.0082646260     1.4792661967
    9      H      -1.3895823403    -0.7811231247    -1.2238006330
   10      H      -2.8477579400    -0.1306756137    -0.4345240548
   11      H      -1.6756024600     0.9734835464    -1.1683878975
 ----------------------------------------------------------------

   11   -1038.2802008313      3.68e-07  Convergence criterion met
 Total energy in the final basis set =    -1038.2802008313

                    Orbital Energies (a.u.)
 --------------------------------------------------------------

 Alpha MOs
 -- Occupied --
*******-101.479 -10.350 -10.242 -10.202  -9.525  -9.391  -7.289
 -7.280  -7.278  -7.154  -7.146  -7.146  -0.938  -0.818  -0.722
 -0.707  -0.617  -0.528  -0.495  -0.474  -0.416  -0.402  -0.391
 -0.377  -0.355  -0.272  -0.252  -0.252

 Beta MOs
 -- Occupied --
*******-101.479 -10.350 -10.242 -10.202  -9.525  -9.391  -7.289
 -7.280  -7.278  -7.154  -7.146  -7.146  -0.938  -0.818  -0.722
 -0.707  -0.617  -0.528  -0.495  -0.474  -0.416  -0.402  -0.391
 -0.377  -0.355  -0.272  -0.252  -0.252

          Ground-State Mulliken Net Atomic Charges

     Atom                 Charge (a.u.)    Spin (a.u.)
  --------------------------------------------------------
      1 Cl                   -0.449968      -0.000000
      2 Cl                    0.132396       0.000000
      3 C                    -0.203049       0.000000
      4 C                    -0.106838      -0.000000
      5 C                    -0.328841       0.000000
      6 H                     0.146895      -0.000000
      7 H                     0.170903      -0.000000
      8 H                     0.221522       0.000000
      9 H                     0.171471      -0.000000
     10 H                     0.121078       0.000000
     11 H                     0.124430      -0.000000
  --------------------------------------------------------
  Sum of atomic charges =    -0.000000

                    Cartesian Multipole Moments
 -----------------------------------------------------------------
    Charge (ESU x 10^10)
                -0.0000
    Dipole Moment (Debye)
         X      -2.8309      Y       4.4836      Z       2.4945
       Tot       5.8600
    Quadrupole Moments (Debye-Ang)
        XX     -45.2666     XY       5.4615     YY     -52.1118
        XZ       1.3321     YZ      -1.7712     ZZ     -42.4783

 Final energy is   -1038.28020083127
 **  OPTIMIZATION CONVERGED  **
 Total job time:  28.15s(wall), 308.77s(cpu)
        *  Thank you very much for using Q-Chem.  Have a nice day.  *
