 Q-Chem 5.1, Q-Chem, Inc., Pleasanton, CA (2018)
 Q-Chem 5.1.1 for Intel X86 EM64T Linux

User input:
--------------------------------------------------------------

$comment
potential surface scanner
$end

$rem
JOBTYPE  PES_SCAN
UNRESTRICTED TRUE
SYM_IGNORE  TRUE
GEOM_OPT_MAX_CYCLES 400
SCF_MAX_CYCLES 400
METHOD   B3LYP
BASIS   6-31G**
PDB_PRINT 2
SCF_CONVERGENCE 6
THRESH 14
SCF_PRINT 1
$end
$molecule
0 1
Cl 1.114406 -1.481095 -0.295526
Cl 1.116116 1.488483 -0.297151
C -1.000454 -0.000855 0.685764
C 0.518136 -0.004058 0.542820
C -1.798175 -0.000547 -0.617414
H -1.252621 0.880525 1.287635
H -1.255255 -0.881074 1.288552
H 1.008452 -0.000168 1.514506
H -1.578326 -0.886935 -1.218277
H -2.869289 0.001307 -0.396415
H -1.575090 0.884417 -1.219095
$end
$scan
stre 1 4 1.900000 1.901000 0.100000
$end
--------------------------------------------------------------

    9   -1038.3380667924      4.40e-07  Convergence criterion met
 Total energy in the final basis set =    -1038.3380667924
    9   -1038.3358321692      4.63e-07  Convergence criterion met
 Total energy in the final basis set =    -1038.3358321692
    9   -1038.3361676441      4.58e-07  Convergence criterion met
 Total energy in the final basis set =    -1038.3361676441
    9   -1038.3362616992      4.55e-07  Convergence criterion met
 Total energy in the final basis set =    -1038.3362616992
    9   -1038.3362671166      4.55e-07  Convergence criterion met
 Total energy in the final basis set =    -1038.3362671166

             Standard Nuclear Orientation (Angstroms)
    I     Atom           X                Y                Z
 ----------------------------------------------------------------
    1      Cl      1.1287075513    -1.5394650742    -0.3125708468
    2      Cl      1.1150159340     1.4828607281    -0.3061085175
    3      C      -1.0054462064     0.0062829485     0.6891472664
    4      C       0.5071024638     0.0317218664     0.5563239271
    5      C      -1.7978292201     0.0039887783    -0.6171492517
    6      H      -1.2718133410     0.8823618374     1.2947829780
    7      H      -1.2489945865    -0.8792815980     1.2877084861
    8      H       1.0160640279     0.0023616110     1.5165530602
    9      H      -1.5595819123    -0.8753824793    -1.2207882990
   10      H      -2.8695410413    -0.0113728804    -0.3999917455
   11      H      -1.5857836694     0.8959242623    -1.2125080572
 ----------------------------------------------------------------

    9   -1038.3362680517      4.55e-07  Convergence criterion met
 Total energy in the final basis set =    -1038.3362680517

                    Orbital Energies (a.u.)
 --------------------------------------------------------------

 Alpha MOs
 -- Occupied --
*******-101.542 -10.318 -10.219 -10.189  -9.471  -9.458  -7.236
 -7.226  -7.225  -7.222  -7.212  -7.212  -0.897  -0.814  -0.782
 -0.685  -0.593  -0.496  -0.482  -0.444  -0.417  -0.388  -0.374
 -0.359  -0.325  -0.319  -0.304  -0.301

 Beta MOs
 -- Occupied --
*******-101.542 -10.318 -10.219 -10.189  -9.471  -9.458  -7.236
 -7.226  -7.225  -7.222  -7.212  -7.212  -0.897  -0.814  -0.782
 -0.685  -0.593  -0.496  -0.482  -0.444  -0.417  -0.388  -0.374
 -0.359  -0.325  -0.319  -0.304  -0.301

          Ground-State Mulliken Net Atomic Charges

     Atom                 Charge (a.u.)    Spin (a.u.)
  --------------------------------------------------------
      1 Cl                   -0.083683       0.000000
      2 Cl                   -0.014317       0.000000
      3 C                    -0.172987       0.000000
      4 C                    -0.251636       0.000000
      5 C                    -0.321903       0.000000
      6 H                     0.130879       0.000000
      7 H                     0.133763      -0.000000
      8 H                     0.200381       0.000000
      9 H                     0.135700       0.000000
     10 H                     0.112992      -0.000000
     11 H                     0.130810      -0.000000
  --------------------------------------------------------
  Sum of atomic charges =    -0.000000

                    Cartesian Multipole Moments
 -----------------------------------------------------------------
    Charge (ESU x 10^10)
                 0.0000
    Dipole Moment (Debye)
         X      -1.7939      Y       0.4095      Z       1.6472
       Tot       2.4696
    Quadrupole Moments (Debye-Ang)
        XX     -45.2233     XY       0.5020     YY     -47.3500
        XZ       0.8678     YZ      -0.1127     ZZ     -43.0717

 Final energy is   -1038.33626805169
 **  OPTIMIZATION CONVERGED  **
 Total job time:  21.87s(wall), 236.89s(cpu)
        *  Thank you very much for using Q-Chem.  Have a nice day.  *
