 Q-Chem 5.1, Q-Chem, Inc., Pleasanton, CA (2018)
 Q-Chem 5.1.1 for Intel X86 EM64T Linux

User input:
--------------------------------------------------------------

$comment
potential surface scanner
$end

$rem
JOBTYPE  PES_SCAN
UNRESTRICTED TRUE
SYM_IGNORE  TRUE
GEOM_OPT_MAX_CYCLES 400
SCF_MAX_CYCLES 400
METHOD   B3LYP
BASIS   6-31G**
PDB_PRINT 2
SCF_CONVERGENCE 6
THRESH 14
SCF_PRINT 1
$end
$molecule
0 3
Cl -0.972239 -2.407608 -0.612301
Cl -0.228274 2.367982 0.100031
C -0.742333 0.407904 1.999811
C 0.191924 1.387636 1.506860
C -1.120162 -1.091356 -1.842970
H -1.575290 0.691654 2.643919
H -0.711521 -0.621559 1.647936
H 1.028210 1.797634 2.061745
H -1.046733 -0.132404 -1.332343
H -2.085802 -1.194115 -2.335752
H -0.309882 -1.205764 -2.561530
$end
$scan
stre 1 4 4.400000 4.401000 0.100000
$end
--------------------------------------------------------------

   10   -1038.2077200865      9.15e-07  Convergence criterion met
 Total energy in the final basis set =    -1038.2077200865
   10   -1038.2066993758      8.93e-07  Convergence criterion met
 Total energy in the final basis set =    -1038.2066993758
   10   -1038.2072791466      9.05e-07  Convergence criterion met
 Total energy in the final basis set =    -1038.2072791466
   10   -1038.2075167211      9.16e-07  Convergence criterion met
 Total energy in the final basis set =    -1038.2075167211
   10   -1038.2075427072      9.17e-07  Convergence criterion met
 Total energy in the final basis set =    -1038.2075427072
   10   -1038.2075565253      9.16e-07  Convergence criterion met
 Total energy in the final basis set =    -1038.2075565253
   10   -1038.2075607543      9.15e-07  Convergence criterion met
 Total energy in the final basis set =    -1038.2075607543
   10   -1038.2075662448      9.14e-07  Convergence criterion met
   10   -1038.2076456544      9.22e-07  Convergence criterion met
 Total energy in the final basis set =    -1038.2076456544
   10   -1038.2076517384      9.21e-07  Convergence criterion met
 Total energy in the final basis set =    -1038.2076517384
   10   -1038.2076557302      9.20e-07  Convergence criterion met
 Total energy in the final basis set =    -1038.2076557302
   10   -1038.2076581549      9.19e-07  Convergence criterion met
 Total energy in the final basis set =    -1038.2076581549
   10   -1038.2076595118      9.18e-07  Convergence criterion met
 Total energy in the final basis set =    -1038.2076595118
   10   -1038.2076605406      9.17e-07  Convergence criterion met
 Total energy in the final basis set =    -1038.2076605406

             Standard Nuclear Orientation (Angstroms)
    I     Atom           X                Y                Z
 ----------------------------------------------------------------
    1      Cl     -0.8566391492    -2.3718114498    -0.6305109924
    2      Cl     -0.2862553992     2.3621758661     0.1275250679
    3      C      -0.7827116866     0.4427406919     2.0730232872
    4      C       0.1809496017     1.3415298280     1.4895140551
    5      C      -1.0996849492    -1.0940973085    -1.8855857349
    6      H      -1.5198695290     0.7929946181     2.7961656243
    7      H      -0.8752540077    -0.5827395894     1.7194936823
    8      H       1.1016613715     1.6708623918     1.9575340996
    9      H      -1.0894609142    -0.1223260131    -1.3943608273
   10      H      -2.0581616467    -1.2722780569    -2.3709496685
   11      H      -0.2866756913    -1.1670469781    -2.6064425933
 ----------------------------------------------------------------

   10   -1038.2076613739      9.17e-07  Convergence criterion met
 Total energy in the final basis set =    -1038.2076613739

                    Orbital Energies (a.u.)
 --------------------------------------------------------------

 Alpha MOs
 -- Occupied --
*******-101.537 -10.255 -10.243 -10.219  -9.471  -9.453  -7.234
 -7.226  -7.224  -7.217  -7.207  -7.207  -0.873  -0.848  -0.750
 -0.678  -0.603  -0.466  -0.456  -0.449  -0.446  -0.439  -0.411
 -0.356  -0.317  -0.298  -0.298  -0.238  -0.209

 Beta MOs
 -- Occupied --
*******-101.537 -10.243 -10.242 -10.207  -9.469  -9.453  -7.232
 -7.223  -7.223  -7.217  -7.207  -7.207  -0.856  -0.848  -0.711
 -0.678  -0.571  -0.451  -0.449  -0.446  -0.429  -0.422  -0.411
 -0.335  -0.312  -0.298  -0.297

          Ground-State Mulliken Net Atomic Charges

     Atom                 Charge (a.u.)    Spin (a.u.)
  --------------------------------------------------------
      1 Cl                   -0.102599       0.000281
      2 Cl                   -0.035858       0.137122
      3 C                    -0.204861       0.970684
      4 C                    -0.207187       0.907261
      5 C                    -0.404536       0.000582
      6 H                     0.130792       0.007518
      7 H                     0.156964      -0.005754
      8 H                     0.160607      -0.017731
      9 H                     0.179501      -0.000000
     10 H                     0.162691       0.000003
     11 H                     0.164487       0.000034
  --------------------------------------------------------
  Sum of atomic charges =     0.000000

                    Cartesian Multipole Moments
 -----------------------------------------------------------------
    Charge (ESU x 10^10)
                 0.0000
    Dipole Moment (Debye)
         X      -0.2021      Y       0.5821      Z      -0.0585
       Tot       0.6190
    Quadrupole Moments (Debye-Ang)
        XX     -43.5410     XY       0.1289     YY     -52.0016
        XZ       1.5295     YZ       1.4672     ZZ     -37.5648

 Final energy is   -1038.20766137386
 **  OPTIMIZATION CONVERGED  **
 Total job time:  65.03s(wall), 746.64s(cpu)
        *  Thank you very much for using Q-Chem.  Have a nice day.  *
