 Q-Chem 5.1, Q-Chem, Inc., Pleasanton, CA (2018)
 Q-Chem 5.1.1 for Intel X86 EM64T Linux

User input:
--------------------------------------------------------------

$comment
potential surface scanner
$end

$rem
JOBTYPE  PES_SCAN
UNRESTRICTED TRUE
SYM_IGNORE  TRUE
GEOM_OPT_MAX_CYCLES 400
SCF_MAX_CYCLES 400
METHOD   B3LYP
BASIS   6-31G**
PDB_PRINT 2
SCF_CONVERGENCE 6
THRESH 14
SCF_PRINT 1
$end
$molecule
0 1
Cl 0.938111 -2.674387 -1.239161
Cl 0.982145 2.037917 0.258841
C -1.088548 0.323603 0.842639
C 0.347061 0.586690 0.816571
C -1.635088 -0.138390 -0.560213
H -1.631256 1.229516 1.137625
H -1.274926 -0.478797 1.563636
H 1.087622 -0.164989 1.080822
H -1.117552 -1.052709 -0.861501
H -2.709851 -0.309688 -0.456355
H -1.469819 0.641234 -1.307505
$end
$scan
stre 1 4 4.000000 4.001000 0.100000
$end
--------------------------------------------------------------

   16   -1038.2283062616      2.49e-07  Convergence criterion met
 Total energy in the final basis set =    -1038.2283062616
   16   -1038.2260772398      4.89e-07  Convergence criterion met
 Total energy in the final basis set =    -1038.2260772398
   16   -1038.2260483144      7.95e-07  Convergence criterion met
 Total energy in the final basis set =    -1038.2260483144
   16   -1038.2260879946      5.21e-07  Convergence criterion met
 Total energy in the final basis set =    -1038.2260879946

             Standard Nuclear Orientation (Angstroms)
    I     Atom           X                Y                Z
 ----------------------------------------------------------------
    1      Cl      0.9109108162    -2.7471640200    -1.2787022280
    2      Cl      0.9676583800     2.0650835473     0.2747718883
    3      C      -1.0873902324     0.3269657580     0.8454947789
    4      C       0.3447189213     0.6064159570     0.8267491595
    5      C      -1.6246326913    -0.1384046864    -0.5604513182
    6      H      -1.6418357337     1.2265694271     1.1383291965
    7      H      -1.2692628859    -0.4780549839     1.5647025428
    8      H       1.0922704632    -0.1374442403     1.0925505295
    9      H      -1.1031309678    -1.0505198468    -0.8612555903
   10      H      -2.6986960120    -0.3163770904    -0.4601287482
   11      H      -1.4627110576     0.6429301784    -1.3066612107
 ----------------------------------------------------------------

   16   -1038.2260888742      5.08e-07  Convergence criterion met
 Total energy in the final basis set =    -1038.2260888742

                    Orbital Energies (a.u.)
 --------------------------------------------------------------

 Alpha MOs
 -- Occupied --
*******-101.442 -10.362 -10.262 -10.221  -9.561  -9.355  -7.325
 -7.318  -7.314  -7.117  -7.111  -7.110  -0.972  -0.839  -0.720
 -0.683  -0.644  -0.557  -0.518  -0.473  -0.459  -0.419  -0.408
 -0.393  -0.384  -0.224  -0.220  -0.219

 Beta MOs
 -- Occupied --
*******-101.442 -10.362 -10.262 -10.221  -9.561  -9.355  -7.325
 -7.318  -7.314  -7.117  -7.111  -7.110  -0.972  -0.839  -0.720
 -0.683  -0.644  -0.557  -0.518  -0.473  -0.459  -0.419  -0.408
 -0.393  -0.384  -0.224  -0.220  -0.219

          Ground-State Mulliken Net Atomic Charges

     Atom                 Charge (a.u.)    Spin (a.u.)
  --------------------------------------------------------
      1 Cl                   -0.546990      -0.000000
      2 Cl                    0.179985       0.000000
      3 C                    -0.239066      -0.000000
      4 C                    -0.108225       0.000000
      5 C                    -0.323062       0.000000
      6 H                     0.157295       0.000000
      7 H                     0.171266       0.000000
      8 H                     0.243011      -0.000000
      9 H                     0.200837       0.000000
     10 H                     0.133755       0.000000
     11 H                     0.131195       0.000000
  --------------------------------------------------------
  Sum of atomic charges =     0.000000

                    Cartesian Multipole Moments
 -----------------------------------------------------------------
    Charge (ESU x 10^10)
                -0.0000
    Dipole Moment (Debye)
         X      -2.7977      Y       7.8014      Z       4.7500
       Tot       9.5525
    Quadrupole Moments (Debye-Ang)
        XX     -43.3428     XY       7.1091     YY     -60.4458
        XZ       3.2645     YZ      -8.3731     ZZ     -46.9383

 Final energy is   -1038.22608887421
 **  OPTIMIZATION CONVERGED  **
 Total job time:  25.18s(wall), 277.45s(cpu)
        *  Thank you very much for using Q-Chem.  Have a nice day.  *
