 Q-Chem 5.1, Q-Chem, Inc., Pleasanton, CA (2018)
 Q-Chem 5.1.1 for Intel X86 EM64T Linux

User input:
--------------------------------------------------------------

$comment
potential surface scanner
$end

$rem
JOBTYPE  PES_SCAN
UNRESTRICTED TRUE
SYM_IGNORE  TRUE
GEOM_OPT_MAX_CYCLES 400
SCF_MAX_CYCLES 400
METHOD   B3LYP
BASIS   6-31G**
PDB_PRINT 2
SCF_CONVERGENCE 6
THRESH 14
SCF_PRINT 1
$end
$molecule
0 3
Cl -1.097194 -2.577552 -0.693904
Cl 0.117085 2.438848 0.125062
C -0.644623 0.385204 1.828059
C 0.206089 1.532626 1.633732
C -1.207118 -1.134919 -1.778867
H -1.680543 0.494144 2.150293
H -0.318161 -0.615912 1.550546
H 0.735171 2.067840 2.413717
H -0.988007 -0.245002 -1.190817
H -2.216904 -1.090056 -2.183924
H -0.477896 -1.255219 -2.578492
$end
$scan
stre 1 4 4.800000 4.801000 0.100000
$end
--------------------------------------------------------------

   10   -1038.2077311476      9.07e-07  Convergence criterion met
 Total energy in the final basis set =    -1038.2077311476
   10   -1038.2068649317      8.93e-07  Convergence criterion met
 Total energy in the final basis set =    -1038.2068649317
   10   -1038.2072804626      8.98e-07  Convergence criterion met
 Total energy in the final basis set =    -1038.2072804626
   10   -1038.2076672764      9.09e-07  Convergence criterion met
 Total energy in the final basis set =    -1038.2076672764
   10   -1038.2076859044      9.10e-07  Convergence criterion met
 Total energy in the final basis set =    -1038.2076859044
   10   -1038.2077079474      9.09e-07  Convergence criterion met
 Total energy in the final basis set =    -1038.2077079474
   10   -1038.2077141548      9.07e-07  Convergence criterion met
 Total energy in the final basis set =    -1038.2077141548
   10   -1038.2077169194      9.06e-07  Convergence criterion met
   10   -1038.2077395124      9.08e-07  Convergence criterion met
 Total energy in the final basis set =    -1038.2077395124
   10   -1038.2077437933      9.10e-07  Convergence criterion met
 Total energy in the final basis set =    -1038.2077437933
   10   -1038.2077491036      9.11e-07  Convergence criterion met
 Total energy in the final basis set =    -1038.2077491036
   10   -1038.2077535943      9.12e-07  Convergence criterion met
 Total energy in the final basis set =    -1038.2077535943
   10   -1038.2077561305      9.12e-07  Convergence criterion met
 Total energy in the final basis set =    -1038.2077561305
   10   -1038.2077574575      9.11e-07  Convergence criterion met
 Total energy in the final basis set =    -1038.2077574575

             Standard Nuclear Orientation (Angstroms)
    I     Atom           X                Y                Z
 ----------------------------------------------------------------
    1      Cl     -1.0540037351    -2.5134338042    -0.6713589988
    2      Cl      0.0392412977     2.3908496841     0.1115866993
    3      C      -0.6662409100     0.3946912859     1.9070141676
    4      C       0.2072773687     1.5068219635     1.6279266355
    5      C      -1.1914420885    -1.1301493449    -1.8267660408
    6      H      -1.6715538499     0.5468996994     2.3001819929
    7      H      -0.4009259378    -0.6198749554     1.6129579658
    8      H       0.8176137666     2.0320457947     2.3531367482
    9      H      -1.0010237146    -0.2060529145    -1.2824699030
   10      H      -2.1981734137    -1.1319633010    -2.2420891220
   11      H      -0.4528697833    -1.2698321077    -2.6147151448
 ----------------------------------------------------------------

   10   -1038.2077582649      9.11e-07  Convergence criterion met
 Total energy in the final basis set =    -1038.2077582649

                    Orbital Energies (a.u.)
 --------------------------------------------------------------

 Alpha MOs
 -- Occupied --
*******-101.537 -10.256 -10.243 -10.221  -9.472  -9.453  -7.235
 -7.227  -7.225  -7.217  -7.207  -7.207  -0.874  -0.848  -0.751
 -0.679  -0.605  -0.467  -0.457  -0.450  -0.448  -0.441  -0.411
 -0.357  -0.318  -0.298  -0.298  -0.239  -0.209

 Beta MOs
 -- Occupied --
*******-101.537 -10.243 -10.243 -10.209  -9.470  -9.453  -7.233
 -7.224  -7.224  -7.217  -7.207  -7.207  -0.857  -0.848  -0.712
 -0.679  -0.573  -0.450  -0.449  -0.447  -0.430  -0.424  -0.411
 -0.335  -0.313  -0.298  -0.298

          Ground-State Mulliken Net Atomic Charges

     Atom                 Charge (a.u.)    Spin (a.u.)
  --------------------------------------------------------
      1 Cl                   -0.103014       0.001048
      2 Cl                   -0.032064       0.137865
      3 C                    -0.205665       0.967992
      4 C                    -0.208629       0.906912
      5 C                    -0.405160       0.001342
      6 H                     0.132761       0.007331
      7 H                     0.156137      -0.005337
      8 H                     0.160883      -0.018295
      9 H                     0.177176       0.001010
     10 H                     0.163006       0.000014
     11 H                     0.164569       0.000118
  --------------------------------------------------------
  Sum of atomic charges =    -0.000000

                    Cartesian Multipole Moments
 -----------------------------------------------------------------
    Charge (ESU x 10^10)
                -0.0000
    Dipole Moment (Debye)
         X      -0.3593      Y       0.7578      Z       0.0674
       Tot       0.8414
    Quadrupole Moments (Debye-Ang)
        XX     -44.0479     XY      -1.0426     YY     -52.2119
        XZ       1.4857     YZ       1.6065     ZZ     -37.9296

 Final energy is   -1038.20775826494
 **  OPTIMIZATION CONVERGED  **
 Total job time:  95.14s(wall), 929.97s(cpu)
        *  Thank you very much for using Q-Chem.  Have a nice day.  *
