 Q-Chem 5.1, Q-Chem, Inc., Pleasanton, CA (2018)
 Q-Chem 5.1.1 for Intel X86 EM64T Linux

User input:
--------------------------------------------------------------

$comment
potential surface scanner
$end

$rem
JOBTYPE  PES_SCAN
UNRESTRICTED TRUE
SYM_IGNORE  TRUE
GEOM_OPT_MAX_CYCLES 400
SCF_MAX_CYCLES 400
METHOD   B3LYP
BASIS   6-31G**
PDB_PRINT 2
SCF_CONVERGENCE 6
THRESH 14
SCF_PRINT 1
$end
$molecule
0 3
Cl -0.402161 -1.737767 -0.369345
Cl -0.682907 2.304643 0.220053
C -0.923539 0.494227 2.308509
C -0.126793 0.928118 1.188612
C -0.887265 -0.973442 -1.932139
H -0.889601 1.010679 3.268056
H -1.662339 -0.295210 2.190521
H 0.937846 0.758534 1.080379
H -0.980303 0.099143 -1.768942
H -1.839777 -1.402067 -2.240222
H -0.115268 -1.186851 -2.670078
$end
$scan
stre 1 4 3.000000 3.001000 0.100000
$end
--------------------------------------------------------------

   10   -1038.2042742244      9.22e-07  Convergence criterion met
 Total energy in the final basis set =    -1038.2042742244
   10   -1038.2025688885      9.19e-07  Convergence criterion met
 Total energy in the final basis set =    -1038.2025688885
   10   -1038.2029275377      9.23e-07  Convergence criterion met
 Total energy in the final basis set =    -1038.2029275377
   10   -1038.2030235610      9.27e-07  Convergence criterion met
 Total energy in the final basis set =    -1038.2030235610
   10   -1038.2030291274      9.27e-07  Convergence criterion met
 Total energy in the final basis set =    -1038.2030291274
   10   -1038.2030320368      9.27e-07  Convergence criterion met
 Total energy in the final basis set =    -1038.2030320368

             Standard Nuclear Orientation (Angstroms)
    I     Atom           X                Y                Z
 ----------------------------------------------------------------
    1      Cl     -0.4028990098    -1.6822931857    -0.3417963634
    2      Cl     -0.6879966360     2.2840782084     0.2083701629
    3      C      -0.9233796029     0.4830338465     2.3035281618
    4      C      -0.1355810762     0.8958624696     1.1687186484
    5      C      -0.8843427121    -0.9608957866    -1.9257823784
    6      H      -0.8733180004     1.0105614758     3.2563063984
    7      H      -1.6728467062    -0.2985075808     2.2024027009
    8      H       0.9333740809     0.7442292853     1.0748968567
    9      H      -0.9857630415     0.1148429863    -1.7895721367
   10      H      -1.8324840870    -1.4033386923    -2.2277828411
   11      H      -0.1068702090    -1.1875660264    -2.6538852094
 ----------------------------------------------------------------

   10   -1038.2030326094      9.26e-07  Convergence criterion met
 Total energy in the final basis set =    -1038.2030326094

                    Orbital Energies (a.u.)
 --------------------------------------------------------------

 Alpha MOs
 -- Occupied --
*******-101.536 -10.248 -10.243 -10.215  -9.463  -9.453  -7.226
 -7.218  -7.217  -7.216  -7.207  -7.207  -0.865  -0.849  -0.745
 -0.679  -0.597  -0.461  -0.455  -0.450  -0.443  -0.432  -0.411
 -0.348  -0.310  -0.300  -0.298  -0.233  -0.199

 Beta MOs
 -- Occupied --
*******-101.536 -10.243 -10.234 -10.203  -9.461  -9.452  -7.224
 -7.217  -7.215  -7.215  -7.207  -7.206  -0.850  -0.845  -0.706
 -0.678  -0.566  -0.451  -0.450  -0.440  -0.426  -0.415  -0.408
 -0.327  -0.305  -0.298  -0.296

          Ground-State Mulliken Net Atomic Charges

     Atom                 Charge (a.u.)    Spin (a.u.)
  --------------------------------------------------------
      1 Cl                   -0.090257       0.019187
      2 Cl                   -0.055766       0.136531
      3 C                    -0.193207       0.974108
      4 C                    -0.189017       0.888322
      5 C                    -0.402694      -0.000658
      6 H                     0.126780       0.004559
      7 H                     0.139815      -0.007550
      8 H                     0.160080      -0.014559
      9 H                     0.179271      -0.000042
     10 H                     0.162629       0.000047
     11 H                     0.162367       0.000055
  --------------------------------------------------------
  Sum of atomic charges =    -0.000000

                    Cartesian Multipole Moments
 -----------------------------------------------------------------
    Charge (ESU x 10^10)
                 0.0000
    Dipole Moment (Debye)
         X      -0.1475      Y      -0.3730      Z      -0.5706
       Tot       0.6975
    Quadrupole Moments (Debye-Ang)
        XX     -43.5202     XY       1.6615     YY     -50.5898
        XZ       1.2131     YZ       1.5917     ZZ     -37.0453

 Final energy is   -1038.20303260945
 **  OPTIMIZATION CONVERGED  **
 Total job time:  23.19s(wall), 265.22s(cpu)
        *  Thank you very much for using Q-Chem.  Have a nice day.  *
