 Q-Chem 5.1, Q-Chem, Inc., Pleasanton, CA (2018)
 Q-Chem 5.1.1 for Intel X86 EM64T Linux

User input:
--------------------------------------------------------------

$comment
potential surface scanner
$end

$rem
JOBTYPE  PES_SCAN
UNRESTRICTED TRUE
SYM_IGNORE  TRUE
GEOM_OPT_MAX_CYCLES 400
SCF_MAX_CYCLES 400
METHOD   B3LYP
BASIS   6-31G**
PDB_PRINT 2
SCF_CONVERGENCE 6
THRESH 14
SCF_PRINT 1
$end
$molecule
0 1
Cl 0.093511 -2.679189 -1.895293
Cl -0.998636 1.666054 0.267902
C -0.315001 1.665816 2.898530
C -0.307961 1.013089 1.744199
C -1.201232 -1.547505 -2.449892
H -0.750610 2.652435 3.009264
H 0.131645 1.202104 3.772224
H 0.118576 0.028112 1.596391
H -2.163863 -2.041146 -2.323422
H -1.026193 -1.316539 -3.499844
H -1.152336 -0.643228 -1.844661
$end
$scan
stre 1 4 5.300000 5.301000 0.100000
$end
--------------------------------------------------------------

    9   -1038.3040400806      9.54e-07  Convergence criterion met
 Total energy in the final basis set =    -1038.3040400806
    9   -1038.3039173185      9.69e-07  Convergence criterion met
 Total energy in the final basis set =    -1038.3039173185
    9   -1038.3039522631      9.62e-07  Convergence criterion met
 Total energy in the final basis set =    -1038.3039522631

             Standard Nuclear Orientation (Angstroms)
    I     Atom           X                Y                Z
 ----------------------------------------------------------------
    1      Cl      0.0829648871    -2.7134150648    -1.9608244561
    2      Cl     -0.9872138489     1.6360160943     0.2916310445
    3      C      -0.3146189401     1.6940911538     2.9241757599
    4      C      -0.2957880243     1.0191350094     1.7827855104
    5      C      -1.2083891951    -1.5635956028    -2.4848329864
    6      H      -0.7613477948     2.6778720460     3.0135507879
    7      H       0.1331291021     1.2524137925     3.8086446305
    8      H       0.1416285508     0.0360007833     1.6560433278
    9      H      -2.1732037172    -2.0536415088    -2.3610801169
   10      H      -1.0390862511    -1.3138674375    -3.5314297673
   11      H      -1.1501747685    -0.6710062653    -1.8632657342
 ----------------------------------------------------------------

    9   -1038.3039706222      9.54e-07  Convergence criterion met
 Total energy in the final basis set =    -1038.3039706222

                    Orbital Energies (a.u.)
 --------------------------------------------------------------

 Alpha MOs
 -- Occupied --
*******-101.533 -10.256 -10.241 -10.206  -9.471  -9.449  -7.235
 -7.225  -7.225  -7.213  -7.203  -7.203  -0.874  -0.845  -0.755
 -0.676  -0.588  -0.490  -0.454  -0.447  -0.447  -0.408  -0.388
 -0.368  -0.318  -0.294  -0.294  -0.267

 Beta MOs
 -- Occupied --
*******-101.533 -10.256 -10.241 -10.206  -9.471  -9.449  -7.235
 -7.225  -7.225  -7.213  -7.203  -7.203  -0.874  -0.845  -0.755
 -0.676  -0.588  -0.490  -0.454  -0.447  -0.447  -0.408  -0.388
 -0.368  -0.318  -0.294  -0.294  -0.267

          Ground-State Mulliken Net Atomic Charges

     Atom                 Charge (a.u.)    Spin (a.u.)
  --------------------------------------------------------
      1 Cl                   -0.101716      -0.000000
      2 Cl                   -0.036003      -0.000000
      3 C                    -0.196858      -0.000000
      4 C                    -0.174580       0.000000
      5 C                    -0.404625      -0.000000
      6 H                     0.130017      -0.000000
      7 H                     0.125167       0.000000
      8 H                     0.158186       0.000000
      9 H                     0.162184       0.000000
     10 H                     0.162450       0.000000
     11 H                     0.175777       0.000000
  --------------------------------------------------------
  Sum of atomic charges =    -0.000000

                    Cartesian Multipole Moments
 -----------------------------------------------------------------
    Charge (ESU x 10^10)
                 0.0000
    Dipole Moment (Debye)
         X      -0.8581      Y       0.9689      Z       0.9981
       Tot       1.6344
    Quadrupole Moments (Debye-Ang)
        XX     -44.2369     XY       1.9107     YY     -50.2778
        XZ       4.4601     YZ      -0.1000     ZZ     -36.3740

 Final energy is   -1038.30397062217
 **  OPTIMIZATION CONVERGED  **
 Total job time:  12.31s(wall), 134.98s(cpu)
        *  Thank you very much for using Q-Chem.  Have a nice day.  *
