 Q-Chem 5.1, Q-Chem, Inc., Pleasanton, CA (2018)
 Q-Chem 5.1.1 for Intel X86 EM64T Linux

User input:
--------------------------------------------------------------

$comment
potential surface scanner
$end

$rem
JOBTYPE  PES_SCAN
UNRESTRICTED TRUE
SYM_IGNORE  TRUE
GEOM_OPT_MAX_CYCLES 400
SCF_MAX_CYCLES 400
METHOD   B3LYP
BASIS   6-31G**
PDB_PRINT 2
SCF_CONVERGENCE 6
THRESH 14
SCF_PRINT 1
$end
$molecule
0 3
Cl -0.433586 -1.404144 -0.038809
Cl -0.948435 2.345657 0.082991
C -0.911948 0.342598 2.116948
C -0.288105 0.385248 0.842617
C -0.807367 -0.815411 -1.726403
H -0.378896 0.598308 3.029951
H -1.975485 0.137109 2.199233
H 0.786161 0.551263 0.805737
H -1.087505 0.233058 -1.619239
H -1.622670 -1.432819 -2.097496
H 0.095731 -0.940861 -2.320125
$end
$scan
stre 1 4 1.900000 1.901000 0.100000
$end
--------------------------------------------------------------

   11   -1038.1441078381      4.66e-07  Convergence criterion met
 Total energy in the final basis set =    -1038.1441078381
   11   -1038.1330748104      4.00e-07  Convergence criterion met
 Total energy in the final basis set =    -1038.1330748104
   11   -1038.1332113128      4.30e-07  Convergence criterion met
 Total energy in the final basis set =    -1038.1332113128
   11   -1038.1336202882      5.16e-07  Convergence criterion met
 Total energy in the final basis set =    -1038.1336202882
   11   -1038.1338343263      6.00e-07  Convergence criterion met
 Total energy in the final basis set =    -1038.1338343263
   11   -1038.1340348389      7.04e-07  Convergence criterion met
 Total energy in the final basis set =    -1038.1340348389
   11   -1038.1340906346      7.28e-07  Convergence criterion met
 Total energy in the final basis set =    -1038.1340906346
   11   -1038.1341129232      7.26e-07  Convergence criterion met
   11   -1038.1341270072      7.22e-07  Convergence criterion met
 Total energy in the final basis set =    -1038.1341270072
   11   -1038.1341375286      7.22e-07  Convergence criterion met
 Total energy in the final basis set =    -1038.1341375286
   11   -1038.1341449765      7.23e-07  Convergence criterion met
 Total energy in the final basis set =    -1038.1341449765
   11   -1038.1341493146      7.22e-07  Convergence criterion met
 Total energy in the final basis set =    -1038.1341493146
   11   -1038.1341520012      7.19e-07  Convergence criterion met
 Total energy in the final basis set =    -1038.1341520012
   11   -1038.1341534387      7.15e-07  Convergence criterion met
 Total energy in the final basis set =    -1038.1341534387

             Standard Nuclear Orientation (Angstroms)
    I     Atom           X                Y                Z
 ----------------------------------------------------------------
    1      Cl     -0.2631170476    -1.3680699379    -0.0378622162
    2      Cl     -0.9276406719     2.3489007054    -0.0317232899
    3      C      -0.9335880815     0.3367667400     2.0618296018
    4      C      -0.1810485536     0.3042222108     0.8603051873
    5      C      -0.8481323897    -0.7888512581    -1.6875923442
    6      H      -0.4694903847     0.5214140280     3.0278386507
    7      H      -2.0115981564     0.2102587333     2.0383790766
    8      H       0.8847260171     0.5107085689     0.9050017294
    9      H      -1.2003045234     0.2301591426    -1.5179847581
   10      H      -1.6325695473    -1.4799920402    -1.9885971952
   11      H       0.0106583391    -0.8255108927    -2.3541894423
 ----------------------------------------------------------------

   11   -1038.1341541358      7.12e-07  Convergence criterion met
 Total energy in the final basis set =    -1038.1341541358

                    Orbital Energies (a.u.)
 --------------------------------------------------------------

 Alpha MOs
 -- Occupied --
*******-101.473 -10.270 -10.247 -10.214  -9.533  -9.387  -7.295
 -7.292  -7.285  -7.152  -7.142  -7.141  -0.933  -0.785  -0.733
 -0.714  -0.604  -0.500  -0.487  -0.471  -0.460  -0.429  -0.403
 -0.354  -0.333  -0.266  -0.254  -0.227  -0.169

 Beta MOs
 -- Occupied --
*******-101.469 -10.269 -10.235 -10.203  -9.532  -9.383  -7.293
 -7.288  -7.284  -7.141  -7.139  -7.139  -0.923  -0.760  -0.719
 -0.693  -0.581  -0.490  -0.484  -0.464  -0.448  -0.417  -0.389
 -0.349  -0.282  -0.249  -0.245

          Ground-State Mulliken Net Atomic Charges

     Atom                 Charge (a.u.)    Spin (a.u.)
  --------------------------------------------------------
      1 Cl                    0.190772       0.175662
      2 Cl                   -0.378625       0.472863
      3 C                    -0.156814       0.800816
      4 C                    -0.263409       0.568066
      5 C                    -0.401207       0.030019
      6 H                     0.125992      -0.013672
      7 H                     0.132594      -0.024689
      8 H                     0.163346      -0.011137
      9 H                     0.229787       0.003468
     10 H                     0.175540      -0.000648
     11 H                     0.182024      -0.000750
  --------------------------------------------------------
  Sum of atomic charges =    -0.000000

                    Cartesian Multipole Moments
 -----------------------------------------------------------------
    Charge (ESU x 10^10)
                -0.0000
    Dipole Moment (Debye)
         X       0.6385      Y      -5.1980      Z      -0.8186
       Tot       5.3007
    Quadrupole Moments (Debye-Ang)
        XX     -44.2822     XY       5.3424     YY     -56.1590
        XZ       1.4296     YZ       2.4556     ZZ     -37.3673

 Final energy is   -1038.13415413576
 **  OPTIMIZATION CONVERGED  **
 Total job time:  54.27s(wall), 623.90s(cpu)
        *  Thank you very much for using Q-Chem.  Have a nice day.  *
