 Q-Chem 5.1, Q-Chem, Inc., Pleasanton, CA (2018)
 Q-Chem 5.1.1 for Intel X86 EM64T Linux

User input:
--------------------------------------------------------------

$comment
potential surface scanner
$end

$rem
JOBTYPE  PES_SCAN
UNRESTRICTED TRUE
SYM_IGNORE  TRUE
GEOM_OPT_MAX_CYCLES 400
SCF_MAX_CYCLES 400
METHOD   B3LYP
BASIS   6-31G**
PDB_PRINT 2
SCF_CONVERGENCE 6
THRESH 14
SCF_PRINT 1
$end
$molecule
0 1
Cl 0.148623 -2.781354 -1.711258
Cl 0.972953 1.934972 -0.063360
C -0.984381 0.207029 0.825908
C 0.327316 0.803897 1.002418
C -1.468111 -0.200577 -0.580469
H -1.690814 1.003233 1.150947
H -1.091978 -0.607372 1.548429
H 0.961422 0.586477 1.856155
H -0.906995 -1.111697 -0.894762
H -2.536621 -0.423531 -0.540910
H -1.303517 0.588925 -1.317699
$end
$scan
stre 1 4 4.600000 4.601000 0.100000
$end
--------------------------------------------------------------

   15   -1038.2187930376      6.22e-07  Convergence criterion met
 Total energy in the final basis set =    -1038.2187930376
   16   -1038.2179662934      6.65e-07  Convergence criterion met
 Total energy in the final basis set =    -1038.2179662934
   16   -1038.2180118846      6.72e-07  Convergence criterion met
 Total energy in the final basis set =    -1038.2180118846
   16   -1038.2180556582      6.73e-07  Convergence criterion met
 Total energy in the final basis set =    -1038.2180556582
   16   -1038.2180688164      7.05e-07  Convergence criterion met
 Total energy in the final basis set =    -1038.2180688164
   17   -1038.2180936659      7.25e-08  Convergence criterion met
 Total energy in the final basis set =    -1038.2180936659
   17   -1038.2181009875      8.91e-08  Convergence criterion met
 Total energy in the final basis set =    -1038.2181009875
   14   -1038.2181040415      9.44e-07  Convergence criterion met
 Total energy in the final basis set =    -1038.2181040415
   14   -1038.2181052605      8.24e-07  Convergence criterion met
 Total energy in the final basis set =    -1038.2181052605
   14   -1038.2181063000      5.62e-07  Convergence criterion met
 Total energy in the final basis set =    -1038.2181063000

             Standard Nuclear Orientation (Angstroms)
    I     Atom           X                Y                Z
 ----------------------------------------------------------------
    1      Cl      0.0571931274    -2.8119916919    -1.7737966453
    2      Cl      0.9643499625     1.9591832750    -0.0517705254
    3      C      -0.9741042084     0.2056954882     0.8292889615
    4      C       0.3207738920     0.8324323417     1.0206081014
    5      C      -1.4426056606    -0.2125400415    -0.5787989236
    6      H      -1.7001422241     0.9884841548     1.1442463714
    7      H      -1.0737201464    -0.6071241437     1.5550468582
    8      H       0.9441535410     0.6387649835     1.8878583888
    9      H      -0.8864193849    -1.1305207475    -0.8875462233
   10      H      -2.5119535285    -0.4331038347    -0.5489533813
   11      H      -1.2696283700     0.5707222160    -1.3207839824
 ----------------------------------------------------------------

   15   -1038.2181072371      4.84e-07  Convergence criterion met
 Total energy in the final basis set =    -1038.2181072371

                    Orbital Energies (a.u.)
 --------------------------------------------------------------

 Alpha MOs
 -- Occupied --
*******-101.440 -10.352 -10.264 -10.208  -9.554  -9.353  -7.318
 -7.310  -7.307  -7.115  -7.109  -7.109  -0.965  -0.838  -0.723
 -0.685  -0.634  -0.553  -0.513  -0.490  -0.436  -0.416  -0.401
 -0.388  -0.377  -0.221  -0.220  -0.219

 Beta MOs
 -- Occupied --
*******-101.440 -10.352 -10.264 -10.208  -9.554  -9.353  -7.318
 -7.310  -7.307  -7.115  -7.109  -7.109  -0.965  -0.838  -0.723
 -0.685  -0.634  -0.553  -0.513  -0.490  -0.436  -0.416  -0.401
 -0.388  -0.377  -0.221  -0.220  -0.219

          Ground-State Mulliken Net Atomic Charges

     Atom                 Charge (a.u.)    Spin (a.u.)
  --------------------------------------------------------
      1 Cl                   -0.503766       0.000000
      2 Cl                    0.169117      -0.000000
      3 C                    -0.238039       0.000000
      4 C                    -0.124425      -0.000000
      5 C                    -0.308338       0.000000
      6 H                     0.190009      -0.000000
      7 H                     0.173907      -0.000000
      8 H                     0.206607       0.000000
      9 H                     0.174560      -0.000000
     10 H                     0.129945      -0.000000
     11 H                     0.130423       0.000000
  --------------------------------------------------------
  Sum of atomic charges =    -0.000000

                    Cartesian Multipole Moments
 -----------------------------------------------------------------
    Charge (ESU x 10^10)
                -0.0000
    Dipole Moment (Debye)
         X      -0.9553      Y       7.9797      Z       6.2476
       Tot      10.1794
    Quadrupole Moments (Debye-Ang)
        XX     -41.5711     XY       1.1056     YY     -61.4788
        XZ       0.2603     YZ     -11.2819     ZZ     -48.5666

 Final energy is   -1038.21810723710
 **  OPTIMIZATION CONVERGED  **
 Total job time:  51.58s(wall), 577.90s(cpu)
        *  Thank you very much for using Q-Chem.  Have a nice day.  *
