 Q-Chem 5.1, Q-Chem, Inc., Pleasanton, CA (2018)
 Q-Chem 5.1.1 for Intel X86 EM64T Linux

User input:
--------------------------------------------------------------

$comment
potential surface scanner
$end

$rem
JOBTYPE  PES_SCAN
UNRESTRICTED TRUE
SYM_IGNORE  TRUE
GEOM_OPT_MAX_CYCLES 400
SCF_MAX_CYCLES 400
METHOD   B3LYP
BASIS   6-31G**
PDB_PRINT 2
SCF_CONVERGENCE 6
THRESH 14
SCF_PRINT 1
$end
$molecule
0 3
Cl -0.682574 -1.416145 -0.088201
Cl -1.041046 2.219007 0.196893
C -0.859329 0.360729 2.227939
C -0.361833 0.637510 0.896495
C -0.767309 -0.859485 -1.804853
H -0.418688 0.825252 3.108661
H -1.795977 -0.174195 2.362489
H 0.712788 0.674691 0.737138
H -0.723321 0.229369 -1.799244
H -1.711393 -1.206989 -2.220501
H 0.076577 -1.289736 -2.341413
$end
$scan
stre 1 4 2.200000 2.201000 0.100000
$end
--------------------------------------------------------------

   11   -1038.1742559530      3.29e-07  Convergence criterion met
 Total energy in the final basis set =    -1038.1742559530
   11   -1038.1649311297      3.33e-07  Convergence criterion met
 Total energy in the final basis set =    -1038.1649311297
   11   -1038.1648809429      3.38e-07  Convergence criterion met
 Total energy in the final basis set =    -1038.1648809429
   11   -1038.1650296397      3.49e-07  Convergence criterion met
 Total energy in the final basis set =    -1038.1650296397
   11   -1038.1650706054      3.53e-07  Convergence criterion met
 Total energy in the final basis set =    -1038.1650706054
   11   -1038.1651238036      3.59e-07  Convergence criterion met
 Total energy in the final basis set =    -1038.1651238036
   11   -1038.1651402253      3.59e-07  Convergence criterion met
 Total energy in the final basis set =    -1038.1651402253
   11   -1038.1651565208      3.59e-07  Convergence criterion met
   11   -1038.1651751435      3.54e-07  Convergence criterion met
 Total energy in the final basis set =    -1038.1651751435
   11   -1038.1651779401      3.54e-07  Convergence criterion met
 Total energy in the final basis set =    -1038.1651779401
   11   -1038.1651806565      3.54e-07  Convergence criterion met
 Total energy in the final basis set =    -1038.1651806565
   11   -1038.1651833588      3.54e-07  Convergence criterion met
 Total energy in the final basis set =    -1038.1651833588
   11   -1038.1651854867      3.55e-07  Convergence criterion met
 Total energy in the final basis set =    -1038.1651854867
   11   -1038.1651866937      3.56e-07  Convergence criterion met
 Total energy in the final basis set =    -1038.1651866937

             Standard Nuclear Orientation (Angstroms)
    I     Atom           X                Y                Z
 ----------------------------------------------------------------
    1      Cl     -0.6607128087    -1.4006192134    -0.0576281724
    2      Cl     -1.0000819090     2.2486402365     0.1912258463
    3      C      -0.8692614331     0.3476288380     2.1936437260
    4      C      -0.3691087898     0.5792872673     0.8561215968
    5      C      -0.7725909310    -0.8458654400    -1.7762873516
    6      H      -0.3596006665     0.7421459703     3.0705954191
    7      H      -1.8623278584    -0.0693187607     2.3390896603
    8      H       0.7088981581     0.6312269995     0.7219846288
    9      H      -0.8548070415     0.2407209954    -1.7597420809
   10      H      -1.6604558466    -1.3019900575    -2.2099368389
   11      H       0.1279441265    -1.1718488353    -2.2936634335
 ----------------------------------------------------------------

   11   -1038.1651873320      3.56e-07  Convergence criterion met
 Total energy in the final basis set =    -1038.1651873320

                    Orbital Energies (a.u.)
 --------------------------------------------------------------

 Alpha MOs
 -- Occupied --
*******-101.516 -10.254 -10.242 -10.213  -9.481  -9.432  -7.244
 -7.238  -7.234  -7.196  -7.187  -7.186  -0.884  -0.825  -0.742
 -0.695  -0.595  -0.478  -0.467  -0.459  -0.439  -0.419  -0.398
 -0.357  -0.322  -0.307  -0.287  -0.228  -0.168

 Beta MOs
 -- Occupied --
*******-101.514 -10.254 -10.228 -10.201  -9.479  -9.430  -7.242
 -7.233  -7.233  -7.191  -7.185  -7.184  -0.875  -0.805  -0.715
 -0.687  -0.568  -0.467  -0.464  -0.449  -0.428  -0.405  -0.379
 -0.332  -0.317  -0.292  -0.281

          Ground-State Mulliken Net Atomic Charges

     Atom                 Charge (a.u.)    Spin (a.u.)
  --------------------------------------------------------
      1 Cl                    0.041776       0.168530
      2 Cl                   -0.163277       0.218520
      3 C                    -0.172201       0.951280
      4 C                    -0.253778       0.701743
      5 C                    -0.402510       0.001561
      6 H                     0.126311      -0.013214
      7 H                     0.131996      -0.027422
      8 H                     0.160020      -0.008243
      9 H                     0.191842       0.007447
     10 H                     0.171605       0.000008
     11 H                     0.168215      -0.000210
  --------------------------------------------------------
  Sum of atomic charges =    -0.000000

                    Cartesian Multipole Moments
 -----------------------------------------------------------------
    Charge (ESU x 10^10)
                -0.0000
    Dipole Moment (Debye)
         X       0.6431      Y      -2.1453      Z      -0.9592
       Tot       2.4364
    Quadrupole Moments (Debye-Ang)
        XX     -44.8395     XY       3.0530     YY     -52.4319
        XZ       1.0463     YZ       1.8139     ZZ     -37.4799

 Final energy is   -1038.16518733196
 **  OPTIMIZATION CONVERGED  **
 Total job time:  70.98s(wall), 708.20s(cpu)
        *  Thank you very much for using Q-Chem.  Have a nice day.  *
