 Q-Chem 5.1, Q-Chem, Inc., Pleasanton, CA (2018)
 Q-Chem 5.1.1 for Intel X86 EM64T Linux

User input:
--------------------------------------------------------------

$comment
potential surface scanner
$end

$rem
JOBTYPE  PES_SCAN
UNRESTRICTED TRUE
SYM_IGNORE  TRUE
GEOM_OPT_MAX_CYCLES 400
SCF_MAX_CYCLES 400
METHOD   B3LYP
BASIS   6-31G**
PDB_PRINT 2
SCF_CONVERGENCE 6
THRESH 14
SCF_PRINT 1
$end
$molecule
0 1
Cl 1.128708 -1.539465 -0.312571
Cl 1.115016 1.482861 -0.306109
C -1.005446 0.006283 0.689147
C 0.507102 0.031722 0.556324
C -1.797829 0.003989 -0.617149
H -1.271813 0.882362 1.294783
H -1.248995 -0.879282 1.287708
H 1.016064 0.002362 1.516553
H -1.559582 -0.875382 -1.220788
H -2.869541 -0.011373 -0.399992
H -1.585784 0.895924 -1.212508
$end
$scan
stre 1 4 2.000000 2.001000 0.100000
$end
--------------------------------------------------------------

    9   -1038.3362680345      4.55e-07  Convergence criterion met
 Total energy in the final basis set =    -1038.3362680345
    9   -1038.3308012744      4.92e-07  Convergence criterion met
 Total energy in the final basis set =    -1038.3308012744
    9   -1038.3310227321      4.92e-07  Convergence criterion met
 Total energy in the final basis set =    -1038.3310227321
    9   -1038.3311259849      4.90e-07  Convergence criterion met
 Total energy in the final basis set =    -1038.3311259849
    9   -1038.3311307420      4.90e-07  Convergence criterion met
 Total energy in the final basis set =    -1038.3311307420
    9   -1038.3311317486      4.90e-07  Convergence criterion met
 Total energy in the final basis set =    -1038.3311317486

             Standard Nuclear Orientation (Angstroms)
    I     Atom           X                Y                Z
 ----------------------------------------------------------------
    1      Cl      1.1419487949    -1.6016068885    -0.3248159879
    2      Cl      1.1131161845     1.4774942396    -0.3170079852
    3      C      -1.0101757055     0.0132283300     0.6923920622
    4      C       0.4966202022     0.0669757889     0.5692657557
    5      C      -1.7974194396     0.0095534667    -0.6169690278
    6      H      -1.2911337705     0.8826933602     1.3031961424
    7      H      -1.2416943630    -0.8786656163     1.2852582453
    8      H       1.0238028104     0.0072405231     1.5170928279
    9      H      -1.5392687070    -0.8609925339    -1.2247895341
   10      H      -2.8693912629    -0.0256414354    -0.4038266678
   11      H      -1.5985047436     0.9097217657    -1.2043978306
 ----------------------------------------------------------------

    9   -1038.3311320542      4.90e-07  Convergence criterion met
 Total energy in the final basis set =    -1038.3311320542

                    Orbital Energies (a.u.)
 --------------------------------------------------------------

 Alpha MOs
 -- Occupied --
*******-101.534 -10.323 -10.221 -10.190  -9.478  -9.449  -7.243
 -7.233  -7.232  -7.213  -7.203  -7.203  -0.897  -0.807  -0.782
 -0.688  -0.596  -0.499  -0.482  -0.446  -0.411  -0.389  -0.376
 -0.360  -0.324  -0.321  -0.300  -0.298

 Beta MOs
 -- Occupied --
*******-101.534 -10.323 -10.221 -10.190  -9.478  -9.449  -7.243
 -7.233  -7.232  -7.213  -7.203  -7.203  -0.897  -0.807  -0.782
 -0.688  -0.596  -0.499  -0.482  -0.446  -0.411  -0.389  -0.376
 -0.360  -0.324  -0.321  -0.300  -0.298

          Ground-State Mulliken Net Atomic Charges

     Atom                 Charge (a.u.)    Spin (a.u.)
  --------------------------------------------------------
      1 Cl                   -0.139403      -0.000000
      2 Cl                    0.008863       0.000000
      3 C                    -0.174119       0.000000
      4 C                    -0.231472      -0.000000
      5 C                    -0.321992      -0.000000
      6 H                     0.132463      -0.000000
      7 H                     0.138714      -0.000000
      8 H                     0.203327       0.000000
      9 H                     0.140342      -0.000000
     10 H                     0.113537      -0.000000
     11 H                     0.129740       0.000000
  --------------------------------------------------------
  Sum of atomic charges =    -0.000000

                    Cartesian Multipole Moments
 -----------------------------------------------------------------
    Charge (ESU x 10^10)
                 0.0000
    Dipole Moment (Debye)
         X      -1.9251      Y       0.9018      Z       1.7473
       Tot       2.7518
    Quadrupole Moments (Debye-Ang)
        XX     -45.2566     XY       1.1083     YY     -47.7086
        XZ       0.9135     YZ      -0.2553     ZZ     -42.9944

 Final energy is   -1038.33113205425
 **  OPTIMIZATION CONVERGED  **
 Total job time:  25.22s(wall), 270.66s(cpu)
        *  Thank you very much for using Q-Chem.  Have a nice day.  *
