 Q-Chem 5.1, Q-Chem, Inc., Pleasanton, CA (2018)
 Q-Chem 5.1.1 for Intel X86 EM64T Linux

User input:
--------------------------------------------------------------

$comment
potential surface scanner
$end

$rem
JOBTYPE  PES_SCAN
UNRESTRICTED TRUE
SYM_IGNORE  TRUE
GEOM_OPT_MAX_CYCLES 400
SCF_MAX_CYCLES 400
METHOD   B3LYP
BASIS   6-31G**
PDB_PRINT 2
SCF_CONVERGENCE 6
THRESH 14
SCF_PRINT 1
$end
$molecule
0 1
Cl 1.154974 -1.664062 -0.336944
Cl 1.110448 1.474120 -0.326438
C -1.014733 0.020427 0.695579
C 0.485725 0.101519 0.582201
C -1.796814 0.014986 -0.616884
H -1.310093 0.883379 1.311186
H -1.234418 -0.877262 1.283251
H 1.031499 0.010804 1.515985
H -1.519113 -0.846943 -1.228064
H -2.868630 -0.039716 -0.407626
H -1.610946 0.922747 -1.196850
$end
$scan
stre 1 4 2.200000 2.201000 0.100000
$end
--------------------------------------------------------------

    9   -1038.3243380684      6.01e-07  Convergence criterion met
 Total energy in the final basis set =    -1038.3243380684
    9   -1038.3165727704      7.67e-07  Convergence criterion met
 Total energy in the final basis set =    -1038.3165727704
    9   -1038.3166370669      7.66e-07  Convergence criterion met
 Total energy in the final basis set =    -1038.3166370669
    9   -1038.3167597500      7.59e-07  Convergence criterion met
 Total energy in the final basis set =    -1038.3167597500
    9   -1038.3167641355      7.59e-07  Convergence criterion met
 Total energy in the final basis set =    -1038.3167641355

             Standard Nuclear Orientation (Angstroms)
    I     Atom           X                Y                Z
 ----------------------------------------------------------------
    1      Cl      1.1648696641    -1.7274233631    -0.3497826753
    2      Cl      1.1077661752     1.4728462010    -0.3339495483
    3      C      -1.0190120105     0.0284356058     0.6990283030
    4      C       0.4752311784     0.1359045444     0.5948902503
    5      C      -1.7956978162     0.0201193858    -0.6167920424
    6      H      -1.3294344119     0.8845025565     1.3191221828
    7      H      -1.2265956103    -0.8749122295     1.2815954517
    8      H       1.0391158521     0.0135640768     1.5134033656
    9      H      -1.4976385973    -0.8330788090    -1.2304145647
   10      H      -2.8670140257    -0.0549712815    -0.4119107400
   11      H      -1.6236913978     0.9350123128    -1.1897939827
 ----------------------------------------------------------------

    9   -1038.3167649686      7.58e-07  Convergence criterion met
 Total energy in the final basis set =    -1038.3167649686

                    Orbital Energies (a.u.)
 --------------------------------------------------------------

 Alpha MOs
 -- Occupied --
*******-101.517 -10.333 -10.228 -10.193  -9.493  -9.431  -7.257
 -7.247  -7.246  -7.194  -7.185  -7.185  -0.906  -0.803  -0.767
 -0.694  -0.601  -0.506  -0.484  -0.454  -0.405  -0.393  -0.380
 -0.363  -0.331  -0.314  -0.287  -0.286

 Beta MOs
 -- Occupied --
*******-101.517 -10.333 -10.228 -10.193  -9.493  -9.431  -7.257
 -7.247  -7.246  -7.194  -7.185  -7.185  -0.906  -0.803  -0.767
 -0.694  -0.601  -0.506  -0.484  -0.454  -0.405  -0.393  -0.380
 -0.363  -0.331  -0.314  -0.287  -0.286

          Ground-State Mulliken Net Atomic Charges

     Atom                 Charge (a.u.)    Spin (a.u.)
  --------------------------------------------------------
      1 Cl                   -0.248717      -0.000000
      2 Cl                    0.051913      -0.000000
      3 C                    -0.179905      -0.000000
      4 C                    -0.187294       0.000000
      5 C                    -0.323176      -0.000000
      6 H                     0.136242       0.000000
      7 H                     0.149034       0.000000
      8 H                     0.208968      -0.000000
      9 H                     0.150025       0.000000
     10 H                     0.115176       0.000000
     11 H                     0.127736      -0.000000
  --------------------------------------------------------
  Sum of atomic charges =    -0.000000

                    Cartesian Multipole Moments
 -----------------------------------------------------------------
    Charge (ESU x 10^10)
                -0.0000
    Dipole Moment (Debye)
         X      -2.2076      Y       1.9497      Z       1.9577
       Tot       3.5366
    Quadrupole Moments (Debye-Ang)
        XX     -45.2973     XY       2.4028     YY     -48.6743
        XZ       1.0125     YZ      -0.6075     ZZ     -42.8099

 Final energy is   -1038.31676496859
 **  OPTIMIZATION CONVERGED  **
 Total job time:  21.48s(wall), 234.32s(cpu)
        *  Thank you very much for using Q-Chem.  Have a nice day.  *
