 Q-Chem 5.1, Q-Chem, Inc., Pleasanton, CA (2018)
 Q-Chem 5.1.1 for Intel X86 EM64T Linux

User input:
--------------------------------------------------------------

$comment
potential surface scanner
$end

$rem
JOBTYPE  PES_SCAN
UNRESTRICTED TRUE
SYM_IGNORE  TRUE
GEOM_OPT_MAX_CYCLES 400
SCF_MAX_CYCLES 400
METHOD   B3LYP
BASIS   6-31G**
PDB_PRINT 2
SCF_CONVERGENCE 6
THRESH 14
SCF_PRINT 1
$end
$molecule
0 3
Cl -0.645495 -1.443858 -0.123461
Cl -0.992213 2.215647 0.194739
C -0.866294 0.379137 2.250126
C -0.323362 0.681884 0.943053
C -0.785603 -0.874409 -1.831213
H -0.505716 0.883422 3.145861
H -1.763281 -0.227164 2.346478
H 0.752271 0.688390 0.791707
H -0.743035 0.214277 -1.820688
H -1.740982 -1.219948 -2.222356
H 0.041605 -1.297371 -2.398843
$end
$scan
stre 1 4 2.300000 2.301000 0.100000
$end
--------------------------------------------------------------

   11   -1038.1817559072      2.95e-07  Convergence criterion met
 Total energy in the final basis set =    -1038.1817559072
   11   -1038.1741170813      3.05e-07  Convergence criterion met
 Total energy in the final basis set =    -1038.1741170813
   11   -1038.1740714376      3.10e-07  Convergence criterion met
 Total energy in the final basis set =    -1038.1740714376
   11   -1038.1741718528      3.20e-07  Convergence criterion met
 Total energy in the final basis set =    -1038.1741718528
   11   -1038.1741939059      3.23e-07  Convergence criterion met
 Total energy in the final basis set =    -1038.1741939059
   11   -1038.1742282361      3.30e-07  Convergence criterion met
 Total energy in the final basis set =    -1038.1742282361
   11   -1038.1742379172      3.31e-07  Convergence criterion met
 Total energy in the final basis set =    -1038.1742379172
   11   -1038.1742480041      3.31e-07  Convergence criterion met
 Total energy in the final basis set =    -1038.1742480041
   11   -1038.1742529067      3.30e-07  Convergence criterion met
 Total energy in the final basis set =    -1038.1742529067
   11   -1038.1742551319      3.29e-07  Convergence criterion met
 Total energy in the final basis set =    -1038.1742551319

             Standard Nuclear Orientation (Angstroms)
    I     Atom           X                Y                Z
 ----------------------------------------------------------------
    1      Cl     -0.6825738096    -1.4161452978    -0.0882013820
    2      Cl     -1.0410462668     2.2190068002     0.1968931976
    3      C      -0.8593294048     0.3607292356     2.2279386275
    4      C      -0.3618333448     0.6375097590     0.8964951486
    5      C      -0.7673091139    -0.8594854417    -1.8048532142
    6      H      -0.4186880394     0.8252518982     3.1086613870
    7      H      -1.7959765159    -0.1741954705     2.3624891055
    8      H       0.7127884005     0.6746914492     0.7371384795
    9      H      -0.7233213835     0.2293692164    -1.7992441273
   10      H      -1.7113928237    -1.2069894145    -2.2205014147
   11      H       0.0765773019    -1.2897357342    -2.3414128075
 ----------------------------------------------------------------

   11   -1038.1742559700      3.29e-07  Convergence criterion met
 Total energy in the final basis set =    -1038.1742559700

                    Orbital Energies (a.u.)
 --------------------------------------------------------------

 Alpha MOs
 -- Occupied --
*******-101.525 -10.252 -10.241 -10.212  -9.472  -9.441  -7.235
 -7.228  -7.225  -7.205  -7.196  -7.195  -0.875  -0.835  -0.741
 -0.690  -0.594  -0.473  -0.463  -0.457  -0.435  -0.421  -0.404
 -0.352  -0.316  -0.311  -0.292  -0.228  -0.172

 Beta MOs
 -- Occupied --
*******-101.523 -10.251 -10.227 -10.200  -9.471  -9.439  -7.234
 -7.225  -7.224  -7.201  -7.193  -7.193  -0.867  -0.818  -0.711
 -0.684  -0.566  -0.463  -0.460  -0.445  -0.425  -0.407  -0.387
 -0.327  -0.312  -0.298  -0.287

          Ground-State Mulliken Net Atomic Charges

     Atom                 Charge (a.u.)    Spin (a.u.)
  --------------------------------------------------------
      1 Cl                    0.008976       0.135358
      2 Cl                   -0.128059       0.184879
      3 C                    -0.177266       0.965390
      4 C                    -0.238216       0.752306
      5 C                    -0.401631      -0.001766
      6 H                     0.125230      -0.010153
      7 H                     0.131746      -0.024382
      8 H                     0.157675      -0.008420
      9 H                     0.184926       0.006813
     10 H                     0.170553       0.000076
     11 H                     0.166065      -0.000101
  --------------------------------------------------------
  Sum of atomic charges =    -0.000000

                    Cartesian Multipole Moments
 -----------------------------------------------------------------
    Charge (ESU x 10^10)
                 0.0000
    Dipole Moment (Debye)
         X       0.6412      Y      -1.6200      Z      -0.9425
       Tot       1.9809
    Quadrupole Moments (Debye-Ang)
        XX     -44.9351     XY       2.6900     YY     -51.5442
        XZ       0.9777     YZ       1.7928     ZZ     -37.4737

 Final energy is   -1038.17425596999
 **  OPTIMIZATION CONVERGED  **
 Total job time:  40.31s(wall), 456.39s(cpu)
        *  Thank you very much for using Q-Chem.  Have a nice day.  *
