 Q-Chem 5.1, Q-Chem, Inc., Pleasanton, CA (2018)
 Q-Chem 5.1.1 for Intel X86 EM64T Linux

User input:
--------------------------------------------------------------

$comment
potential surface scanner
$end

$rem
JOBTYPE  PES_SCAN
UNRESTRICTED TRUE
SYM_IGNORE  TRUE
GEOM_OPT_MAX_CYCLES 400
SCF_MAX_CYCLES 400
METHOD   B3LYP
BASIS   6-31G**
PDB_PRINT 2
SCF_CONVERGENCE 6
THRESH 14
SCF_PRINT 1
$end
$molecule
0 1
Cl 0.860378 -2.891706 -1.357949
Cl 0.938666 2.118277 0.307193
C -1.086221 0.335396 0.851790
C 0.339187 0.645069 0.846497
C -1.604396 -0.138449 -0.560113
H -1.662852 1.222056 1.141091
H -1.258301 -0.475166 1.567268
H 1.099641 -0.085243 1.112020
H -1.075228 -1.046304 -0.859688
H -2.677004 -0.328607 -0.467517
H -1.445970 0.644678 -1.305193
$end
$scan
stre 1 4 4.300000 4.301000 0.100000
$end
--------------------------------------------------------------

   18   -1038.2221947221      6.11e-07  Convergence criterion met
 Total energy in the final basis set =    -1038.2221947221
   19   -1038.2204605711      5.09e-07  Convergence criterion met
 Total energy in the final basis set =    -1038.2204605711
   18   -1038.2163875857      3.46e-07  Convergence criterion met
 Total energy in the final basis set =    -1038.2163875857
   18   -1038.2204232010      3.52e-07  Convergence criterion met
 Total energy in the final basis set =    -1038.2204232010
   18   -1038.2204761593      3.51e-07  Convergence criterion met
 Total energy in the final basis set =    -1038.2204761593
   18   -1038.2204776804      4.68e-07  Convergence criterion met
 Total energy in the final basis set =    -1038.2204776804
   18   -1038.2204792344      8.46e-07  Convergence criterion met
 Total energy in the final basis set =    -1038.2204792344
   19   -1038.2204810660      5.30e-07  Convergence criterion met
 Total energy in the final basis set =    -1038.2204810660
   19   -1038.2204828813      7.43e-07  Convergence criterion met
 Total energy in the final basis set =    -1038.2204828813
   19   -1038.2204842511      9.73e-07  Convergence criterion met
 Total energy in the final basis set =    -1038.2204842511

             Standard Nuclear Orientation (Angstroms)
    I     Atom           X                Y                Z
 ----------------------------------------------------------------
    1      Cl      0.7665310094    -2.9576649882    -1.3971810429
    2      Cl      0.9099667640     2.1706748150     0.3494155126
    3      C      -1.0806733686     0.3371710217     0.8537811584
    4      C       0.3366183882     0.6769810516     0.8599241523
    5      C      -1.5797478729    -0.1486873303    -0.5632886505
    6      H      -1.6793674655     1.2107674563     1.1374095281
    7      H      -1.2418761939    -0.4783960318     1.5663301533
    8      H       1.1102554081    -0.0437242923     1.1129371981
    9      H      -1.0425397698    -1.0554507823    -0.8535819605
   10      H      -2.6522561388    -0.3438397015    -0.4799431775
   11      H      -1.4190107601     0.6321697817    -1.3104038714
 ----------------------------------------------------------------

   20   -1038.2204852186      6.60e-08  Convergence criterion met
 Total energy in the final basis set =    -1038.2204852186

                    Orbital Energies (a.u.)
 --------------------------------------------------------------

 Alpha MOs
 -- Occupied --
*******-101.440 -10.362 -10.264 -10.223  -9.563  -9.353  -7.327
 -7.319  -7.316  -7.115  -7.108  -7.108  -0.973  -0.840  -0.722
 -0.681  -0.646  -0.558  -0.519  -0.474  -0.461  -0.420  -0.409
 -0.395  -0.385  -0.221  -0.218  -0.217

 Beta MOs
 -- Occupied --
*******-101.440 -10.362 -10.264 -10.223  -9.563  -9.353  -7.327
 -7.319  -7.316  -7.115  -7.108  -7.108  -0.973  -0.840  -0.722
 -0.681  -0.646  -0.558  -0.519  -0.474  -0.461  -0.420  -0.409
 -0.395  -0.385  -0.221  -0.218  -0.217

          Ground-State Mulliken Net Atomic Charges

     Atom                 Charge (a.u.)    Spin (a.u.)
  --------------------------------------------------------
      1 Cl                   -0.538557      -0.000012
      2 Cl                    0.178673       0.000002
      3 C                    -0.239679      -0.000000
      4 C                    -0.112377       0.000009
      5 C                    -0.323791       0.000001
      6 H                     0.158193       0.000000
      7 H                     0.172688       0.000000
      8 H                     0.237781      -0.000000
      9 H                     0.199278       0.000000
     10 H                     0.136539       0.000000
     11 H                     0.131252       0.000000
  --------------------------------------------------------
  Sum of atomic charges =     0.000000

                    Cartesian Multipole Moments
 -----------------------------------------------------------------
    Charge (ESU x 10^10)
                 0.0000
    Dipole Moment (Debye)
         X      -2.4572      Y       8.3565      Z       5.0483
       Tot      10.0675
    Quadrupole Moments (Debye-Ang)
        XX     -42.7432     XY       6.4873     YY     -63.1038
        XZ       3.0704     YZ      -9.7682     ZZ     -47.7502

 Final energy is   -1038.22048521861
 **  OPTIMIZATION CONVERGED  **
 Total job time:  60.61s(wall), 677.07s(cpu)
        *  Thank you very much for using Q-Chem.  Have a nice day.  *
