 Q-Chem 5.1, Q-Chem, Inc., Pleasanton, CA (2018)
 Q-Chem 5.1.1 for Intel X86 EM64T Linux

User input:
--------------------------------------------------------------

$comment
potential surface scanner
$end

$rem
JOBTYPE  PES_SCAN
UNRESTRICTED TRUE
SYM_IGNORE  TRUE
GEOM_OPT_MAX_CYCLES 400
SCF_MAX_CYCLES 400
METHOD   B3LYP
BASIS   6-31G**
PDB_PRINT 2
SCF_CONVERGENCE 6
THRESH 14
SCF_PRINT 1
$end
$molecule
0 3
Cl -1.343013 -2.687459 -0.853317
Cl 0.065515 2.424722 0.108336
C -0.573395 0.400349 1.894261
C 0.192197 1.599152 1.658276
C -1.219641 -1.164840 -1.819246
H -1.618044 0.444871 2.203036
H -0.166831 -0.586076 1.676042
H 0.679855 2.199214 2.417671
H -0.985580 -0.345039 -1.141824
H -2.175812 -0.994503 -2.312019
H -0.427348 -1.290391 -2.555811
$end
$scan
stre 1 4 5.100000 5.101000 0.100000
$end
--------------------------------------------------------------

   10   -1038.2075018017      9.06e-07  Convergence criterion met
 Total energy in the final basis set =    -1038.2075018017
   10   -1038.2073391607      9.02e-07  Convergence criterion met
 Total energy in the final basis set =    -1038.2073391607
   10   -1038.2074119525      9.04e-07  Convergence criterion met
 Total energy in the final basis set =    -1038.2074119525
   10   -1038.2075575855      9.09e-07  Convergence criterion met
 Total energy in the final basis set =    -1038.2075575855
   10   -1038.2075654157      9.09e-07  Convergence criterion met
 Total energy in the final basis set =    -1038.2075654157
   10   -1038.2075726753      9.08e-07  Convergence criterion met
 Total energy in the final basis set =    -1038.2075726753
   10   -1038.2075741161      9.07e-07  Convergence criterion met
 Total energy in the final basis set =    -1038.2075741161
   10   -1038.2075756697      9.06e-07  Convergence criterion met
 Total energy in the final basis set =    -1038.2075756697

             Standard Nuclear Orientation (Angstroms)
    I     Atom           X                Y                Z
 ----------------------------------------------------------------
    1      Cl     -1.3263623481    -2.6433347149    -0.7886947207
    2      Cl      0.0581864586     2.4235033809     0.0976564531
    3      C      -0.5813337064     0.3797700728     1.8620241959
    4      C       0.1862417169     1.5795029650     1.6381698506
    5      C      -1.2110661243    -1.1450494821    -1.7926142935
    6      H      -1.6256321973     0.4232946184     2.1722415584
    7      H      -0.1773338062    -0.6053153681     1.6335330110
    8      H       0.6726641439     2.1722287167     2.4041392269
    9      H      -0.9705665819    -0.3095364927    -1.1369925326
   10      H      -2.1714260383    -0.9860254199    -2.2810643607
   11      H      -0.4254685169    -1.2890382761    -2.5329933883
 ----------------------------------------------------------------

   10   -1038.2075764655      9.05e-07  Convergence criterion met
 Total energy in the final basis set =    -1038.2075764655

                    Orbital Energies (a.u.)
 --------------------------------------------------------------

 Alpha MOs
 -- Occupied --
*******-101.535 -10.258 -10.243 -10.224  -9.473  -9.452  -7.237
 -7.229  -7.227  -7.216  -7.206  -7.206  -0.876  -0.847  -0.754
 -0.678  -0.607  -0.469  -0.459  -0.449  -0.448  -0.442  -0.410
 -0.359  -0.320  -0.297  -0.296  -0.242  -0.211

 Beta MOs
 -- Occupied --
*******-101.535 -10.245 -10.243 -10.212  -9.472  -9.452  -7.235
 -7.226  -7.226  -7.216  -7.206  -7.206  -0.859  -0.847  -0.714
 -0.678  -0.575  -0.451  -0.449  -0.448  -0.433  -0.426  -0.410
 -0.336  -0.314  -0.297  -0.296

          Ground-State Mulliken Net Atomic Charges

     Atom                 Charge (a.u.)    Spin (a.u.)
  --------------------------------------------------------
      1 Cl                   -0.103772       0.000495
      2 Cl                   -0.027920       0.137889
      3 C                    -0.204291       0.967665
      4 C                    -0.209210       0.905294
      5 C                    -0.405272       0.002755
      6 H                     0.135962       0.006693
      7 H                     0.151474      -0.004751
      8 H                     0.161525      -0.017706
      9 H                     0.174492       0.001470
     10 H                     0.163034       0.000052
     11 H                     0.163977       0.000144
  --------------------------------------------------------
  Sum of atomic charges =     0.000000

                    Cartesian Multipole Moments
 -----------------------------------------------------------------
    Charge (ESU x 10^10)
                -0.0000
    Dipole Moment (Debye)
         X      -0.0680      Y       0.9561      Z       0.2974
       Tot       1.0036
    Quadrupole Moments (Debye-Ang)
        XX     -44.9323     XY      -2.1140     YY     -52.7498
        XZ       0.9650     YZ       1.2022     ZZ     -38.2984

 Final energy is   -1038.20757646547
 **  OPTIMIZATION CONVERGED  **
 Total job time:  37.07s(wall), 338.79s(cpu)
        *  Thank you very much for using Q-Chem.  Have a nice day.  *
