 Q-Chem 5.1, Q-Chem, Inc., Pleasanton, CA (2018)
 Q-Chem 5.1.1 for Intel X86 EM64T Linux

User input:
--------------------------------------------------------------

$comment
potential surface scanner
$end

$rem
JOBTYPE  PES_SCAN
UNRESTRICTED TRUE
SYM_IGNORE  TRUE
GEOM_OPT_MAX_CYCLES 400
SCF_MAX_CYCLES 400
METHOD   B3LYP
BASIS   6-31G**
PDB_PRINT 2
SCF_CONVERGENCE 6
THRESH 14
SCF_PRINT 1
$end
$molecule
0 3
Cl -1.367698 -2.774065 -0.983160
Cl 0.085430 2.432489 0.135569
C -0.559546 0.444194 1.958874
C 0.205471 1.639164 1.701716
C -1.237698 -1.207890 -1.875599
H -1.604072 0.492228 2.267428
H -0.150320 -0.545084 1.759369
H 0.695315 2.251402 2.449870
H -1.013043 -0.418317 -1.159517
H -2.188752 -1.016664 -2.370606
H -0.437185 -1.297455 -2.608538
$end
$scan
stre 1 4 5.400000 5.401000 0.100000
$end
--------------------------------------------------------------

   10   -1038.2073216445      9.06e-07  Convergence criterion met
 Total energy in the final basis set =    -1038.2073216445

             Standard Nuclear Orientation (Angstroms)
    I     Atom           X                Y                Z
 ----------------------------------------------------------------
    1      Cl     -1.3676392828    -2.7740184842    -0.9831437822
    2      Cl      0.0855522380     2.4324168896     0.1356320781
    3      C      -0.5594825345     0.4441962945     1.9588357617
    4      C       0.2055065471     1.6391506709     1.7018422898
    5      C      -1.2377213280    -1.2078455060    -1.8756166846
    6      H      -1.6041030347     0.4923196447     2.2670060423
    7      H      -0.1502029364    -0.5450708695     1.7593994708
    8      H       0.6952007496     2.2514474454     2.4500420511
    9      H      -1.0130583105    -0.4183928654    -1.1594930189
   10      H      -2.1888847513    -1.0168306300    -2.3704833322
   11      H      -0.4372653566    -1.2973705899    -2.6086148757
 ----------------------------------------------------------------

   10   -1038.2073217290      9.06e-07  Convergence criterion met
 Total energy in the final basis set =    -1038.2073217290

                    Orbital Energies (a.u.)
 --------------------------------------------------------------

 Alpha MOs
 -- Occupied --
*******-101.535 -10.259 -10.243 -10.226  -9.473  -9.451  -7.237
 -7.229  -7.227  -7.215  -7.205  -7.205  -0.877  -0.846  -0.754
 -0.678  -0.608  -0.470  -0.459  -0.449  -0.448  -0.443  -0.410
 -0.359  -0.320  -0.296  -0.296  -0.243  -0.211

 Beta MOs
 -- Occupied --
*******-101.535 -10.245 -10.243 -10.213  -9.472  -9.451  -7.235
 -7.226  -7.226  -7.215  -7.205  -7.205  -0.859  -0.846  -0.715
 -0.677  -0.575  -0.451  -0.449  -0.448  -0.434  -0.426  -0.410
 -0.336  -0.315  -0.296  -0.296

          Ground-State Mulliken Net Atomic Charges

     Atom                 Charge (a.u.)    Spin (a.u.)
  --------------------------------------------------------
      1 Cl                   -0.102918       0.000189
      2 Cl                   -0.026654       0.138113
      3 C                    -0.202680       0.969936
      4 C                    -0.209391       0.904333
      5 C                    -0.403897       0.002204
      6 H                     0.136082       0.006184
      7 H                     0.147942      -0.004289
      8 H                     0.161755      -0.018068
      9 H                     0.172508       0.001277
     10 H                     0.163109       0.000037
     11 H                     0.164143       0.000084
  --------------------------------------------------------
  Sum of atomic charges =    -0.000000

                    Cartesian Multipole Moments
 -----------------------------------------------------------------
    Charge (ESU x 10^10)
                -0.0000
    Dipole Moment (Debye)
         X      -0.0401      Y       1.0973      Z       0.4509
       Tot       1.1870
    Quadrupole Moments (Debye-Ang)
        XX     -44.9959     XY      -2.3549     YY     -53.2671
        XZ       0.7870     YZ       0.7698     ZZ     -38.2090

 Final energy is   -1038.20732172898
 **  OPTIMIZATION CONVERGED  **
 Total job time:  6.98s(wall), 75.09s(cpu)
        *  Thank you very much for using Q-Chem.  Have a nice day.  *
