 Q-Chem 5.1, Q-Chem, Inc., Pleasanton, CA (2018)
 Q-Chem 5.1.1 for Intel X86 EM64T Linux

User input:
--------------------------------------------------------------

$comment
potential surface scanner
$end

$rem
JOBTYPE  PES_SCAN
UNRESTRICTED TRUE
SYM_IGNORE  TRUE
GEOM_OPT_MAX_CYCLES 400
SCF_MAX_CYCLES 400
METHOD   B3LYP
BASIS   6-31G**
PDB_PRINT 2
SCF_CONVERGENCE 6
THRESH 14
SCF_PRINT 1
$end
$molecule
0 1
Cl 0.082965 -2.713415 -1.960824
Cl -0.987214 1.636016 0.291631
C -0.314619 1.694091 2.924176
C -0.295788 1.019135 1.782786
C -1.208389 -1.563596 -2.484833
H -0.761348 2.677872 3.013551
H 0.133129 1.252414 3.808645
H 0.141629 0.036001 1.656043
H -2.173204 -2.053642 -2.361080
H -1.039086 -1.313867 -3.531430
H -1.150175 -0.671006 -1.863266
$end
$scan
stre 1 4 5.400000 5.401000 0.100000
$end
--------------------------------------------------------------

    9   -1038.3039706217      9.54e-07  Convergence criterion met
 Total energy in the final basis set =    -1038.3039706217
    9   -1038.3038469122      9.69e-07  Convergence criterion met
 Total energy in the final basis set =    -1038.3038469122
    9   -1038.3038828588      9.61e-07  Convergence criterion met
 Total energy in the final basis set =    -1038.3038828588

             Standard Nuclear Orientation (Angstroms)
    I     Atom           X                Y                Z
 ----------------------------------------------------------------
    1      Cl      0.0711745616    -2.7476186047    -2.0262602462
    2      Cl     -0.9741602518     1.6056910516     0.3152508680
    3      C      -0.3150812213     1.7216204317     2.9490161053
    4      C      -0.2825643961     1.0253070866     1.8208035517
    5      C      -1.2155749299    -1.5793748324    -2.5189164298
    6      H      -0.7742666831     2.7013251127     3.0171192592
    7      H       0.1334778785     1.3024885600     3.8439726670
    8      H       0.1670676955     0.0452354018     1.7149928911
    9      H      -2.1829851254    -2.0649049529    -2.3976170369
   10      H      -1.0520537991    -1.3107871490    -3.5617663862
   11      H      -1.1471337290    -0.6989791055    -1.8811962432
 ----------------------------------------------------------------

    9   -1038.3039025799      9.52e-07  Convergence criterion met
 Total energy in the final basis set =    -1038.3039025799

                    Orbital Energies (a.u.)
 --------------------------------------------------------------

 Alpha MOs
 -- Occupied --
*******-101.532 -10.256 -10.241 -10.206  -9.471  -9.449  -7.235
 -7.225  -7.225  -7.213  -7.203  -7.203  -0.874  -0.844  -0.755
 -0.676  -0.589  -0.490  -0.454  -0.447  -0.446  -0.408  -0.388
 -0.368  -0.318  -0.294  -0.293  -0.267

 Beta MOs
 -- Occupied --
*******-101.532 -10.256 -10.241 -10.206  -9.471  -9.449  -7.235
 -7.225  -7.225  -7.213  -7.203  -7.203  -0.874  -0.844  -0.755
 -0.676  -0.589  -0.490  -0.454  -0.447  -0.446  -0.408  -0.388
 -0.368  -0.318  -0.294  -0.293  -0.267

          Ground-State Mulliken Net Atomic Charges

     Atom                 Charge (a.u.)    Spin (a.u.)
  --------------------------------------------------------
      1 Cl                   -0.101221       0.000000
      2 Cl                   -0.035975       0.000000
      3 C                    -0.196778       0.000000
      4 C                    -0.174359      -0.000000
      5 C                    -0.404433      -0.000000
      6 H                     0.130034       0.000000
      7 H                     0.125102      -0.000000
      8 H                     0.157585       0.000000
      9 H                     0.162172       0.000000
     10 H                     0.162378       0.000000
     11 H                     0.175495       0.000000
  --------------------------------------------------------
  Sum of atomic charges =    -0.000000

                    Cartesian Multipole Moments
 -----------------------------------------------------------------
    Charge (ESU x 10^10)
                 0.0000
    Dipole Moment (Debye)
         X      -0.8532      Y       1.0223      Z       1.0467
       Tot       1.6937
    Quadrupole Moments (Debye-Ang)
        XX     -44.1757     XY       1.8581     YY     -50.3380
        XZ       4.5288     YZ      -0.2292     ZZ     -36.3876

 Final energy is   -1038.30390257985
 **  OPTIMIZATION CONVERGED  **
 Total job time:  12.55s(wall), 132.80s(cpu)
        *  Thank you very much for using Q-Chem.  Have a nice day.  *
