 Q-Chem 5.1, Q-Chem, Inc., Pleasanton, CA (2018)
 Q-Chem 5.1.1 for Intel X86 EM64T Linux

User input:
--------------------------------------------------------------

$comment
potential surface scanner
$end

$rem
JOBTYPE  PES_SCAN
UNRESTRICTED TRUE
SYM_IGNORE  TRUE
GEOM_OPT_MAX_CYCLES 400
SCF_MAX_CYCLES 400
METHOD   B3LYP
BASIS   6-31G**
PDB_PRINT 2
SCF_CONVERGENCE 6
THRESH 14
SCF_PRINT 1
$end
$molecule
0 1
Cl 1.033638 -2.476542 -0.778061
Cl 1.002014 1.768628 -0.140401
C -1.051478 0.169486 0.777911
C 0.383613 0.487262 0.755997
C -1.711189 -0.013394 -0.607666
H -1.552150 1.005801 1.301637
H -1.174986 -0.730697 1.384384
H 1.112588 -0.019204 1.380465
H -1.225639 -0.855676 -1.109033
H -2.774755 -0.221754 -0.469461
H -1.613759 0.886089 -1.220377
$end
$scan
stre 1 4 3.500000 3.501000 0.100000
$end
--------------------------------------------------------------

   11   -1038.2437003811      5.46e-07  Convergence criterion met
 Total energy in the final basis set =    -1038.2437003811
   11   -1038.2399484999      5.38e-07  Convergence criterion met
 Total energy in the final basis set =    -1038.2399484999
   11   -1038.2399091346      5.56e-07  Convergence criterion met
 Total energy in the final basis set =    -1038.2399091346
   11   -1038.2399293023      5.98e-07  Convergence criterion met
 Total energy in the final basis set =    -1038.2399293023
   11   -1038.2399316622      6.09e-07  Convergence criterion met
 Total energy in the final basis set =    -1038.2399316622
   11   -1038.2399397146      6.75e-07  Convergence criterion met
 Total energy in the final basis set =    -1038.2399397146
   11   -1038.2399416755      7.01e-07  Convergence criterion met
 Total energy in the final basis set =    -1038.2399416755
   11   -1038.2399444818      7.53e-07  Convergence criterion met
 Total energy in the final basis set =    -1038.2399444818
   11   -1038.2399456957      7.82e-07  Convergence criterion met
 Total energy in the final basis set =    -1038.2399456957

             Standard Nuclear Orientation (Angstroms)
    I     Atom           X                Y                Z
 ----------------------------------------------------------------
    1      Cl      0.9874463561    -2.5504462678    -0.8082802264
    2      Cl      0.9820040842     1.8169747432    -0.1114414187
    3      C      -1.0487618773     0.1762764947     0.7824497555
    4      C       0.3803869288     0.5158432343     0.7663137210
    5      C      -1.6979376570    -0.0174512281    -0.6081705997
    6      H      -1.5696909157     1.0019923904     1.3020202584
    7      H      -1.1604864492    -0.7284769322     1.3847756389
    8      H       1.1202768492    -0.0032575489     1.3676308338
    9      H      -1.2050567371    -0.8611715030    -1.1007619626
   10      H      -2.7612585670    -0.2297349155    -0.4744527703
   11      H      -1.5990250151     0.8794505328    -1.2246882299
 ----------------------------------------------------------------

   11   -1038.2399464953      8.01e-07  Convergence criterion met
 Total energy in the final basis set =    -1038.2399464953

                    Orbital Energies (a.u.)
 --------------------------------------------------------------

 Alpha MOs
 -- Occupied --
*******-101.451 -10.362 -10.255 -10.211  -9.554  -9.363  -7.317
 -7.310  -7.307  -7.126  -7.119  -7.119  -0.965  -0.832  -0.719
 -0.690  -0.634  -0.549  -0.511  -0.482  -0.439  -0.413  -0.401
 -0.388  -0.376  -0.235  -0.227  -0.227

 Beta MOs
 -- Occupied --
*******-101.451 -10.362 -10.255 -10.211  -9.554  -9.363  -7.317
 -7.310  -7.307  -7.126  -7.119  -7.119  -0.965  -0.832  -0.719
 -0.690  -0.634  -0.549  -0.511  -0.482  -0.439  -0.413  -0.401
 -0.388  -0.376  -0.235  -0.227  -0.227

          Ground-State Mulliken Net Atomic Charges

     Atom                 Charge (a.u.)    Spin (a.u.)
  --------------------------------------------------------
      1 Cl                   -0.542565       0.000000
      2 Cl                    0.175913       0.000000
      3 C                    -0.223712       0.000000
      4 C                    -0.097325      -0.000000
      5 C                    -0.330112       0.000000
      6 H                     0.158540       0.000000
      7 H                     0.177320       0.000000
      8 H                     0.235003       0.000000
      9 H                     0.194686       0.000000
     10 H                     0.128203       0.000000
     11 H                     0.124049      -0.000000
  --------------------------------------------------------
  Sum of atomic charges =     0.000000

                    Cartesian Multipole Moments
 -----------------------------------------------------------------
    Charge (ESU x 10^10)
                 0.0000
    Dipole Moment (Debye)
         X      -2.7600      Y       7.0605      Z       3.6298
       Tot       8.4050
    Quadrupole Moments (Debye-Ang)
        XX     -43.9870     XY       7.0264     YY     -58.0208
        XZ       2.2814     YZ      -4.8597     ZZ     -43.7048

 Final energy is   -1038.23994649528
 **  OPTIMIZATION CONVERGED  **
 Total job time:  39.41s(wall), 436.00s(cpu)
        *  Thank you very much for using Q-Chem.  Have a nice day.  *
