 Q-Chem 5.1, Q-Chem, Inc., Pleasanton, CA (2018)
 Q-Chem 5.1.1 for Intel X86 EM64T Linux

User input:
--------------------------------------------------------------

$comment
potential surface scanner
$end

$rem
JOBTYPE  PES_SCAN
UNRESTRICTED TRUE
SYM_IGNORE  TRUE
GEOM_OPT_MAX_CYCLES 400
SCF_MAX_CYCLES 400
METHOD   B3LYP
BASIS   6-31G**
PDB_PRINT 2
SCF_CONVERGENCE 6
THRESH 14
SCF_PRINT 1
$end
$molecule
0 1
Cl 1.116811 -1.487890 -0.297674
Cl 1.116723 1.487948 -0.297811
C -1.001691 0.000017 0.686110
C 0.516784 0.000065 0.544144
C -1.798478 -0.000063 -0.617334
H -1.254734 0.881037 1.288339
H -1.254672 -0.880971 1.288410
H 1.009290 0.000112 1.514472
H -1.576223 -0.885775 -1.218175
H -2.869628 -0.000091 -0.396831
H -1.576282 0.885612 -1.218250
$end
$scan
stre 1 4 1.800000 1.801000 0.100000
$end
--------------------------------------------------------------

    9   -1038.3381067175      4.42e-07  Convergence criterion met
 Total energy in the final basis set =    -1038.3381067175
    9   -1038.3380588266      4.39e-07  Convergence criterion met
 Total energy in the final basis set =    -1038.3380588266
    9   -1038.3380655270      4.40e-07  Convergence criterion met
 Total energy in the final basis set =    -1038.3380655270

             Standard Nuclear Orientation (Angstroms)
    I     Atom           X                Y                Z
 ----------------------------------------------------------------
    1      Cl      1.1144057259    -1.4810947910    -0.2955261816
    2      Cl      1.1161162780     1.4884830974    -0.2971508851
    3      C      -1.0004543217    -0.0008545340     0.6857640068
    4      C       0.5181360071    -0.0040580586     0.5428203661
    5      C      -1.7981748096    -0.0005472065    -0.6174137319
    6      H      -1.2526206465     0.8805254154     1.2876353522
    7      H      -1.2552553340    -0.8810737813     1.2885518550
    8      H       1.0084523570    -0.0001678447     1.5145058554
    9      H      -1.5783258763    -0.8869354160    -1.2182767612
   10      H      -2.8692891646     0.0013067278    -0.3964149626
   11      H      -1.5750902153     0.8844173913    -1.2190949132
 ----------------------------------------------------------------

    9   -1038.3380667922      4.40e-07  Convergence criterion met
 Total energy in the final basis set =    -1038.3380667922

                    Orbital Energies (a.u.)
 --------------------------------------------------------------

 Alpha MOs
 -- Occupied --
*******-101.548 -10.313 -10.216 -10.187  -9.466  -9.465  -7.231
 -7.229  -7.220  -7.220  -7.219  -7.219  -0.904  -0.820  -0.781
 -0.682  -0.592  -0.496  -0.482  -0.446  -0.422  -0.387  -0.374
 -0.359  -0.325  -0.319  -0.303  -0.303

 Beta MOs
 -- Occupied --
*******-101.548 -10.313 -10.216 -10.187  -9.466  -9.465  -7.231
 -7.229  -7.220  -7.220  -7.219  -7.219  -0.904  -0.820  -0.781
 -0.682  -0.592  -0.496  -0.482  -0.446  -0.422  -0.387  -0.374
 -0.359  -0.325  -0.319  -0.303  -0.303

          Ground-State Mulliken Net Atomic Charges

     Atom                 Charge (a.u.)    Spin (a.u.)
  --------------------------------------------------------
      1 Cl                   -0.029301      -0.000000
      2 Cl                   -0.038333       0.000000
      3 C                    -0.172897      -0.000000
      4 C                    -0.268939       0.000000
      5 C                    -0.322205      -0.000000
      6 H                     0.129476      -0.000000
      7 H                     0.129104       0.000000
      8 H                     0.197299      -0.000000
      9 H                     0.131256      -0.000000
     10 H                     0.112650       0.000000
     11 H                     0.131889       0.000000
  --------------------------------------------------------
  Sum of atomic charges =    -0.000000

                    Cartesian Multipole Moments
 -----------------------------------------------------------------
    Charge (ESU x 10^10)
                 0.0000
    Dipole Moment (Debye)
         X      -1.6721      Y      -0.0521      Z       1.5503
       Tot       2.2808
    Quadrupole Moments (Debye-Ang)
        XX     -45.1804     XY      -0.0637     YY     -47.0716
        XZ       0.8254     YZ       0.0137     ZZ     -43.1370

 Final energy is   -1038.33806679220
 **  OPTIMIZATION CONVERGED  **
 Total job time:  15.76s(wall), 160.13s(cpu)
        *  Thank you very much for using Q-Chem.  Have a nice day.  *
