 Q-Chem 5.1, Q-Chem, Inc., Pleasanton, CA (2018)
 Q-Chem 5.1.1 for Intel X86 EM64T Linux

User input:
--------------------------------------------------------------

$comment
potential surface scanner
$end

$rem
JOBTYPE  PES_SCAN
UNRESTRICTED TRUE
SYM_IGNORE  TRUE
GEOM_OPT_MAX_CYCLES 400
SCF_MAX_CYCLES 400
METHOD   B3LYP
BASIS   6-31G**
PDB_PRINT 2
SCF_CONVERGENCE 6
THRESH 14
SCF_PRINT 1
$end
$molecule
0 3
Cl -0.385325 -1.750925 -0.452090
Cl -0.643198 2.206387 0.174506
C -0.909535 0.568446 2.399789
C -0.021310 1.083896 1.389455
C -0.914320 -0.995641 -2.006178
H -1.024937 1.072393 3.357857
H -1.566467 -0.276675 2.196005
H 0.932755 0.654446 1.110923
H -1.087950 0.063612 -1.823857
H -1.829416 -1.488855 -2.330749
H -0.122402 -1.137077 -2.740254
$end
$scan
stre 1 4 3.300000 3.301000 0.100000
$end
--------------------------------------------------------------

   10   -1038.2064679588      9.18e-07  Convergence criterion met
 Total energy in the final basis set =    -1038.2064679588
   10   -1038.2053919409      8.94e-07  Convergence criterion met
 Total energy in the final basis set =    -1038.2053919409
   10   -1038.2057555424      9.08e-07  Convergence criterion met
 Total energy in the final basis set =    -1038.2057555424
   10   -1038.2058639876      9.18e-07  Convergence criterion met
 Total energy in the final basis set =    -1038.2058639876
   10   -1038.2058685035      9.18e-07  Convergence criterion met
 Total energy in the final basis set =    -1038.2058685035
   10   -1038.2058708039      9.16e-07  Convergence criterion met
 Total energy in the final basis set =    -1038.2058708039

             Standard Nuclear Orientation (Angstroms)
    I     Atom           X                Y                Z
 ----------------------------------------------------------------
    1      Cl     -0.3887818478    -1.6956344978    -0.4219097960
    2      Cl     -0.6464248221     2.1911317697     0.1637528410
    3      C      -0.9096752994     0.5566126027     2.3937523061
    4      C      -0.0307322466     1.0541364653     1.3671015479
    5      C      -0.9119665523    -0.9839216651    -1.9982155363
    6      H      -1.0107049719     1.0718563012     3.3476859490
    7      H      -1.5777002610    -0.2835508123     2.2062502499
    8      H       0.9328644934     0.6404161569     1.0997836767
    9      H      -1.0962878035     0.0778867767    -1.8427525012
   10      H      -1.8199485156    -1.4932786379    -2.3177707367
   11      H      -0.1127471732    -1.1356474594    -2.7222710003
 ----------------------------------------------------------------

   10   -1038.2058715483      9.15e-07  Convergence criterion met
 Total energy in the final basis set =    -1038.2058715483

                    Orbital Energies (a.u.)
 --------------------------------------------------------------

 Alpha MOs
 -- Occupied --
*******-101.537 -10.248 -10.244 -10.216  -9.465  -9.454  -7.229
 -7.220  -7.219  -7.218  -7.208  -7.208  -0.867  -0.849  -0.745
 -0.680  -0.598  -0.462  -0.453  -0.450  -0.447  -0.434  -0.412
 -0.350  -0.312  -0.299  -0.299  -0.233  -0.200

 Beta MOs
 -- Occupied --
*******-101.537 -10.244 -10.235 -10.203  -9.463  -9.454  -7.227
 -7.218  -7.218  -7.218  -7.208  -7.208  -0.851  -0.847  -0.706
 -0.679  -0.566  -0.452  -0.451  -0.440  -0.427  -0.417  -0.411
 -0.329  -0.307  -0.299  -0.297

          Ground-State Mulliken Net Atomic Charges

     Atom                 Charge (a.u.)    Spin (a.u.)
  --------------------------------------------------------
      1 Cl                   -0.101469       0.005822
      2 Cl                   -0.045739       0.131253
      3 C                    -0.194694       0.971876
      4 C                    -0.195933       0.906433
      5 C                    -0.402102       0.000398
      6 H                     0.130582      -0.005505
      7 H                     0.139156       0.008189
      8 H                     0.165479      -0.018612
      9 H                     0.179114      -0.000138
     10 H                     0.162638       0.000217
     11 H                     0.162968       0.000067
  --------------------------------------------------------
  Sum of atomic charges =    -0.000000

                    Cartesian Multipole Moments
 -----------------------------------------------------------------
    Charge (ESU x 10^10)
                -0.0000
    Dipole Moment (Debye)
         X      -0.3467      Y      -0.4390      Z      -0.7184
       Tot       0.9105
    Quadrupole Moments (Debye-Ang)
        XX     -43.4814     XY       1.2029     YY     -50.5907
        XZ       1.0652     YZ       1.3208     ZZ     -36.8761

 Final energy is   -1038.20587154828
 **  OPTIMIZATION CONVERGED  **
 Total job time:  23.17s(wall), 263.32s(cpu)
        *  Thank you very much for using Q-Chem.  Have a nice day.  *
