 Q-Chem 5.1, Q-Chem, Inc., Pleasanton, CA (2018)
 Q-Chem 5.1.1 for Intel X86 EM64T Linux

User input:
--------------------------------------------------------------

$comment
potential surface scanner
$end

$rem
JOBTYPE  PES_SCAN
UNRESTRICTED TRUE
SYM_IGNORE  TRUE
GEOM_OPT_MAX_CYCLES 400
SCF_MAX_CYCLES 400
METHOD   B3LYP
BASIS   6-31G**
PDB_PRINT 2
SCF_CONVERGENCE 6
THRESH 14
SCF_PRINT 1
$end
$molecule
0 3
Cl -0.595983 -1.476836 -0.161070
Cl -0.923328 2.220128 0.191911
C -0.877650 0.399714 2.266908
C -0.280364 0.720168 0.989389
C -0.808414 -0.889490 -1.855059
H -0.590577 0.927022 3.176299
H -1.742687 -0.256110 2.323102
H 0.796464 0.693217 0.853790
H -0.803436 0.199605 -1.831137
H -1.761716 -1.263756 -2.224503
H 0.015586 -1.273655 -2.454227
$end
$scan
stre 1 4 2.400000 2.401000 0.100000
$end
--------------------------------------------------------------

   11   -1038.1877977264      2.67e-07  Convergence criterion met
 Total energy in the final basis set =    -1038.1877977264
   11   -1038.1816709675      2.78e-07  Convergence criterion met
 Total energy in the final basis set =    -1038.1816709675
   11   -1038.1816286519      2.81e-07  Convergence criterion met
 Total energy in the final basis set =    -1038.1816286519
   11   -1038.1817005701      2.88e-07  Convergence criterion met
 Total energy in the final basis set =    -1038.1817005701
   11   -1038.1817125167      2.90e-07  Convergence criterion met
 Total energy in the final basis set =    -1038.1817125167
   11   -1038.1817347422      2.96e-07  Convergence criterion met
 Total energy in the final basis set =    -1038.1817347422
   11   -1038.1817407744      2.97e-07  Convergence criterion met
 Total energy in the final basis set =    -1038.1817407744
   11   -1038.1817470263      2.97e-07  Convergence criterion met
 Total energy in the final basis set =    -1038.1817470263
   11   -1038.1817509934      2.96e-07  Convergence criterion met
 Total energy in the final basis set =    -1038.1817509934
   11   -1038.1817539871      2.95e-07  Convergence criterion met
 Total energy in the final basis set =    -1038.1817539871
   11   -1038.1817552960      2.95e-07  Convergence criterion met
 Total energy in the final basis set =    -1038.1817552960

             Standard Nuclear Orientation (Angstroms)
    I     Atom           X                Y                Z
 ----------------------------------------------------------------
    1      Cl     -0.6454950213    -1.4438581972    -0.1234612345
    2      Cl     -0.9922131103     2.2156474421     0.1947393122
    3      C      -0.8662935921     0.3791371255     2.2501263880
    4      C      -0.3233616577     0.6818835902     0.9430529496
    5      C      -0.7856034663    -0.8744094612    -1.8312132667
    6      H      -0.5057159417     0.8834222132     3.1458612517
    7      H      -1.7632807631    -0.2271642044     2.3464775982
    8      H       0.7522707834     0.6883895065     0.7917068433
    9      H      -0.7430347035     0.2142773386    -1.8206879675
   10      H      -1.7409821058    -1.2199476216    -2.2223558722
   11      H       0.0416045785    -1.2973707318    -2.3988430021
 ----------------------------------------------------------------

   11   -1038.1817559034      2.95e-07  Convergence criterion met
 Total energy in the final basis set =    -1038.1817559034

                    Orbital Energies (a.u.)
 --------------------------------------------------------------

 Alpha MOs
 -- Occupied --
*******-101.530 -10.249 -10.242 -10.212  -9.466  -9.446  -7.229
 -7.222  -7.220  -7.210  -7.202  -7.200  -0.868  -0.842  -0.741
 -0.687  -0.594  -0.470  -0.460  -0.455  -0.435  -0.423  -0.408
 -0.347  -0.314  -0.311  -0.296  -0.229  -0.178

 Beta MOs
 -- Occupied --
*******-101.529 -10.249 -10.228 -10.200  -9.465  -9.445  -7.228
 -7.219  -7.219  -7.207  -7.199  -7.199  -0.862  -0.825  -0.709
 -0.683  -0.565  -0.459  -0.457  -0.442  -0.424  -0.409  -0.393
 -0.324  -0.308  -0.301  -0.290

          Ground-State Mulliken Net Atomic Charges

     Atom                 Charge (a.u.)    Spin (a.u.)
  --------------------------------------------------------
      1 Cl                   -0.018378       0.104899
      2 Cl                   -0.107851       0.167783
      3 C                    -0.180715       0.970739
      4 C                    -0.222519       0.790206
      5 C                    -0.401359      -0.002762
      6 H                     0.124904      -0.006391
      7 H                     0.132610      -0.021171
      8 H                     0.157381      -0.008538
      9 H                     0.182392       0.005131
     10 H                     0.168729       0.000075
     11 H                     0.164805       0.000029
  --------------------------------------------------------
  Sum of atomic charges =    -0.000000

                    Cartesian Multipole Moments
 -----------------------------------------------------------------
    Charge (ESU x 10^10)
                -0.0000
    Dipole Moment (Debye)
         X       0.5069      Y      -1.2856      Z      -0.8857
       Tot       1.6414
    Quadrupole Moments (Debye-Ang)
        XX     -44.6979     XY       2.3737     YY     -51.0896
        XZ       0.9811     YZ       1.8033     ZZ     -37.4023

 Final energy is   -1038.18175590341
 **  OPTIMIZATION CONVERGED  **
 Total job time:  46.57s(wall), 500.11s(cpu)
        *  Thank you very much for using Q-Chem.  Have a nice day.  *
