 Q-Chem 5.1, Q-Chem, Inc., Pleasanton, CA (2018)
 Q-Chem 5.1.1 for Intel X86 EM64T Linux

User input:
--------------------------------------------------------------

$comment
potential surface scanner
$end

$rem
JOBTYPE  PES_SCAN
UNRESTRICTED TRUE
SYM_IGNORE  TRUE
GEOM_OPT_MAX_CYCLES 400
SCF_MAX_CYCLES 400
METHOD   B3LYP
BASIS   6-31G**
PDB_PRINT 2
SCF_CONVERGENCE 6
THRESH 14
SCF_PRINT 1
$end
$molecule
0 1
Cl 1.116811 -1.487890 -0.297674
Cl 1.116723 1.487948 -0.297811
C -1.001691 0.000017 0.686110
C 0.516784 0.000065 0.544144
C -1.798478 -0.000063 -0.617334
H -1.254734 0.881037 1.288339
H -1.254672 -0.880971 1.288410
H 1.009290 0.000112 1.514472
H -1.576223 -0.885775 -1.218175
H -2.869628 -0.000091 -0.396831
H -1.576282 0.885612 -1.218250
$end
$scan
stre 1 4 1.400000 1.401000 0.100000
$end
--------------------------------------------------------------

    9   -1038.3381067175      4.42e-07  Convergence criterion met
 Total energy in the final basis set =    -1038.3381067175
    9   -1038.3286526835      4.29e-07  Convergence criterion met
 Total energy in the final basis set =    -1038.3286526835
    9   -1038.2898121648      4.77e-07  Convergence criterion met
 Total energy in the final basis set =    -1038.2898121648
    9   -1038.2325610869      4.45e-07  Convergence criterion met
 Total energy in the final basis set =    -1038.2325610869
    9   -1038.2299947358      4.65e-07  Convergence criterion met
 Total energy in the final basis set =    -1038.2299947358
    9   -1038.2315409516      4.86e-07  Convergence criterion met
 Total energy in the final basis set =    -1038.2315409516
    9   -1038.2318607042      4.50e-07  Convergence criterion met
 Total energy in the final basis set =    -1038.2318607042
    9   -1038.2322441920      4.55e-07  Convergence criterion met
 Total energy in the final basis set =    -1038.2322441920
    9   -1038.2323184907      4.60e-07  Convergence criterion met
 Total energy in the final basis set =    -1038.2323184907
    9   -1038.2323414551      4.62e-07  Convergence criterion met
 Total energy in the final basis set =    -1038.2323414551
    9   -1038.2323498934      4.63e-07  Convergence criterion met
 Total energy in the final basis set =    -1038.2323498934
    9   -1038.2323527806      4.64e-07  Convergence criterion met
 Total energy in the final basis set =    -1038.2323527806
    9   -1038.2323538680      4.64e-07  Convergence criterion met
 Total energy in the final basis set =    -1038.2323538680

             Standard Nuclear Orientation (Angstroms)
    I     Atom           X                Y                Z
 ----------------------------------------------------------------
    1      Cl      1.0465640560    -1.2659843210    -0.2285872780
    2      Cl      1.1140433642     1.5716313270    -0.2571024303
    3      C      -0.9856203537    -0.0333553435     0.6753148062
    4      C       0.5508873922    -0.1764423000     0.4975001053
    5      C      -1.7961731694    -0.0207896730    -0.6193054461
    6      H      -1.1703685682     0.8722271374     1.2575610103
    7      H      -1.2893979252    -0.8875098806     1.2981909388
    8      H       0.9908155458    -0.0116169972     1.4884262616
    9      H      -1.6494906938    -0.9346273907    -1.2039901881
   10      H      -2.8628886951     0.0534057907    -0.3893702927
   11      H      -1.5204709526     0.8330626510    -1.2432374869
 ----------------------------------------------------------------

    9   -1038.2323545361      4.64e-07  Convergence criterion met
 Total energy in the final basis set =    -1038.2323545361

                    Orbital Energies (a.u.)
 --------------------------------------------------------------

 Alpha MOs
 -- Occupied --
*******-101.510 -10.295 -10.209 -10.185  -9.509  -9.426  -7.272
 -7.263  -7.261  -7.190  -7.181  -7.181  -1.020  -0.801  -0.770
 -0.673  -0.595  -0.532  -0.489  -0.483  -0.436  -0.395  -0.376
 -0.359  -0.313  -0.307  -0.286  -0.280

 Beta MOs
 -- Occupied --
*******-101.510 -10.295 -10.209 -10.185  -9.509  -9.426  -7.272
 -7.263  -7.261  -7.190  -7.181  -7.181  -1.020  -0.801  -0.770
 -0.673  -0.595  -0.532  -0.489  -0.483  -0.436  -0.395  -0.376
 -0.359  -0.313  -0.307  -0.286  -0.280

          Ground-State Mulliken Net Atomic Charges

     Atom                 Charge (a.u.)    Spin (a.u.)
  --------------------------------------------------------
      1 Cl                    0.187914       0.000000
      2 Cl                   -0.205879       0.000000
      3 C                    -0.180301      -0.000000
      4 C                    -0.268978      -0.000000
      5 C                    -0.327817       0.000000
      6 H                     0.132912       0.000000
      7 H                     0.111441      -0.000000
      8 H                     0.181570      -0.000000
      9 H                     0.114220      -0.000000
     10 H                     0.113906      -0.000000
     11 H                     0.141011      -0.000000
  --------------------------------------------------------
  Sum of atomic charges =     0.000000

                    Cartesian Multipole Moments
 -----------------------------------------------------------------
    Charge (ESU x 10^10)
                 0.0000
    Dipole Moment (Debye)
         X      -1.3869      Y      -2.2920      Z       1.2759
       Tot       2.9672
    Quadrupole Moments (Debye-Ang)
        XX     -44.8809     XY      -2.7826     YY     -47.0448
        XZ       0.7012     YZ       0.4319     ZZ     -43.1926

 Final energy is   -1038.23235453614
 **  OPTIMIZATION CONVERGED  **
 Total job time:  50.71s(wall), 547.81s(cpu)
        *  Thank you very much for using Q-Chem.  Have a nice day.  *
