 Q-Chem 5.1, Q-Chem, Inc., Pleasanton, CA (2018)
 Q-Chem 5.1.1 for Intel X86 EM64T Linux

User input:
--------------------------------------------------------------

$comment
potential surface scanner
$end

$rem
JOBTYPE  PES_SCAN
UNRESTRICTED TRUE
SYM_IGNORE  TRUE
GEOM_OPT_MAX_CYCLES 400
SCF_MAX_CYCLES 400
METHOD   B3LYP
BASIS   6-31G**
PDB_PRINT 2
SCF_CONVERGENCE 6
THRESH 14
SCF_PRINT 1
$end
$molecule
0 1
Cl 0.899818 -2.632022 -0.995875
Cl 0.958187 1.939362 0.037950
C -1.058209 0.230881 0.811643
C 0.368709 0.560805 0.796826
C -1.659932 -0.069396 -0.595549
H -1.603504 1.090308 1.235710
H -1.193483 -0.637025 1.461418
H 1.127611 -0.053391 1.272742
H -1.140181 -0.938789 -1.010603
H -2.725819 -0.278840 -0.475988
H -1.545300 0.788106 -1.262877
$end
$scan
stre 1 4 3.800000 3.801000 0.100000
$end
--------------------------------------------------------------

   15   -1038.2334064529      4.69e-07  Convergence criterion met
 Total energy in the final basis set =    -1038.2334064529
   16   -1038.2306528705      1.49e-07  Convergence criterion met
 Total energy in the final basis set =    -1038.2306528705
   16   -1038.2306448694      1.37e-07  Convergence criterion met
 Total energy in the final basis set =    -1038.2306448694
   16   -1038.2306507912      1.41e-07  Convergence criterion met
 Total energy in the final basis set =    -1038.2306507912
   16   -1038.2306579748      1.33e-07  Convergence criterion met
 Total energy in the final basis set =    -1038.2306579748
   16   -1038.2306612796      1.18e-07  Convergence criterion met
 Total energy in the final basis set =    -1038.2306612796
   16   -1038.2306634990      1.10e-07  Convergence criterion met
 Total energy in the final basis set =    -1038.2306634990

             Standard Nuclear Orientation (Angstroms)
    I     Atom           X                Y                Z
 ----------------------------------------------------------------
    1      Cl      0.8388979099    -2.6854366909    -1.0603301599
    2      Cl      0.9444806499     1.9736640420     0.0610251885
    3      C      -1.0556591570     0.2382862228     0.8168801331
    4      C       0.3656165972     0.5868085329     0.8127461043
    5      C      -1.6426473290    -0.0806893138    -0.5943053558
    6      H      -1.6187672600     1.0924030047     1.2275208860
    7      H      -1.1866902055    -0.6272112151     1.4710453099
    8      H       1.1299340099    -0.0231649887     1.2854805369
    9      H      -1.1152884377    -0.9536704292    -0.9931803792
   10      H      -2.7091159221    -0.2905617155    -0.4813046833
   11      H      -1.5228638558     0.7695715509    -1.2701805806
 ----------------------------------------------------------------

   16   -1038.2306644282      1.09e-07  Convergence criterion met
 Total energy in the final basis set =    -1038.2306644282

                    Orbital Energies (a.u.)
 --------------------------------------------------------------

 Alpha MOs
 -- Occupied --
*******-101.446 -10.362 -10.259 -10.215  -9.558  -9.359  -7.322
 -7.314  -7.311  -7.121  -7.114  -7.114  -0.969  -0.835  -0.719
 -0.687  -0.638  -0.554  -0.514  -0.478  -0.448  -0.415  -0.404
 -0.389  -0.380  -0.229  -0.223  -0.223

 Beta MOs
 -- Occupied --
*******-101.446 -10.362 -10.259 -10.215  -9.558  -9.359  -7.322
 -7.314  -7.311  -7.121  -7.114  -7.114  -0.969  -0.835  -0.719
 -0.687  -0.638  -0.554  -0.514  -0.478  -0.448  -0.415  -0.404
 -0.389  -0.380  -0.229  -0.223  -0.223

          Ground-State Mulliken Net Atomic Charges

     Atom                 Charge (a.u.)    Spin (a.u.)
  --------------------------------------------------------
      1 Cl                   -0.543090       0.000000
      2 Cl                    0.177292      -0.000000
      3 C                    -0.231558       0.000000
      4 C                    -0.103370      -0.000000
      5 C                    -0.325125      -0.000000
      6 H                     0.160240      -0.000000
      7 H                     0.172616      -0.000000
      8 H                     0.237100       0.000000
      9 H                     0.199837      -0.000000
     10 H                     0.130473      -0.000000
     11 H                     0.125584       0.000000
  --------------------------------------------------------
  Sum of atomic charges =     0.000000

                    Cartesian Multipole Moments
 -----------------------------------------------------------------
    Charge (ESU x 10^10)
                -0.0000
    Dipole Moment (Debye)
         X      -2.4906      Y       7.5617      Z       4.2615
       Tot       9.0301
    Quadrupole Moments (Debye-Ang)
        XX     -43.2051     XY       6.4413     YY     -59.6556
        XZ       2.6175     YZ      -6.7533     ZZ     -45.1844

 Final energy is   -1038.23066442823
 **  OPTIMIZATION CONVERGED  **
 Total job time:  43.11s(wall), 449.42s(cpu)
        *  Thank you very much for using Q-Chem.  Have a nice day.  *
