 Q-Chem 5.1, Q-Chem, Inc., Pleasanton, CA (2018)
 Q-Chem 5.1.1 for Intel X86 EM64T Linux

User input:
--------------------------------------------------------------

$comment
potential surface scanner
$end

$rem
JOBTYPE  PES_SCAN
UNRESTRICTED TRUE
SYM_IGNORE  TRUE
GEOM_OPT_MAX_CYCLES 400
SCF_MAX_CYCLES 400
METHOD   B3LYP
BASIS   6-31G**
PDB_PRINT 2
SCF_CONVERGENCE 6
THRESH 14
SCF_PRINT 1
$end
$molecule
0 1
Cl 1.116811 -1.487890 -0.297674
Cl 1.116723 1.487948 -0.297811
C -1.001691 0.000017 0.686110
C 0.516784 0.000065 0.544144
C -1.798478 -0.000063 -0.617334
H -1.254734 0.881037 1.288339
H -1.254672 -0.880971 1.288410
H 1.009290 0.000112 1.514472
H -1.576223 -0.885775 -1.218175
H -2.869628 -0.000091 -0.396831
H -1.576282 0.885612 -1.218250
$end
$scan
stre 1 4 0.900000 0.901000 0.100000
$end
--------------------------------------------------------------

    9   -1038.3381067175      4.42e-07  Convergence criterion met
 Total energy in the final basis set =    -1038.3381067175
    9   -1038.3286526835      4.29e-07  Convergence criterion met
 Total energy in the final basis set =    -1038.3286526835
    9   -1038.2898121648      4.77e-07  Convergence criterion met
 Total energy in the final basis set =    -1038.2898121648
    9   -1038.2146614532      4.46e-07  Convergence criterion met
 Total energy in the final basis set =    -1038.2146614532
    9   -1038.0988519361      4.85e-07  Convergence criterion met
 Total energy in the final basis set =    -1038.0988519361
    9   -1037.9016816475      7.69e-07  Convergence criterion met
 Total energy in the final basis set =    -1037.9016816475
    9   -1037.6233706146      6.92e-07  Convergence criterion met
 Total energy in the final basis set =    -1037.6233706146
   10   -1037.3504525711      4.41e-07  Convergence criterion met
    9   -1036.5244649468      5.63e-07  Convergence criterion met
 Total energy in the final basis set =    -1036.5244649468
    9   -1036.5244689626      8.03e-07  Convergence criterion met
 Total energy in the final basis set =    -1036.5244689626
   10   -1036.5244723439      3.64e-07  Convergence criterion met
 Total energy in the final basis set =    -1036.5244723439
   10   -1036.5244761969      3.60e-07  Convergence criterion met
 Total energy in the final basis set =    -1036.5244761969
   10   -1036.5244788579      3.60e-07  Convergence criterion met
 Total energy in the final basis set =    -1036.5244788579
    9   -1036.5244798538      9.99e-07  Convergence criterion met
 Total energy in the final basis set =    -1036.5244798538

             Standard Nuclear Orientation (Angstroms)
    I     Atom           X                Y                Z
 ----------------------------------------------------------------
    1      Cl      1.0080284230    -0.3487377034    -0.1976461157
    2      Cl      1.7561100979     1.8758639043    -0.9141292928
    3      C      -1.1085048587    -0.1888507122     0.7663765715
    4      C       0.5097730853    -0.3660706057     0.5516478954
    5      C      -1.8204565625    -0.0728597424    -0.5730329192
    6      H      -1.2213623432     0.7135719977     1.3753982557
    7      H      -1.4418488572    -1.0453974368     1.3624966543
    8      H       0.7815993169    -0.4434264281     1.6653498343
    9      H      -1.6854929106    -0.9694249521    -1.1909184803
   10      H      -2.8955120716     0.0581606034    -0.4262968991
   11      H      -1.4544333193     0.7871720753    -1.1438455041
 ----------------------------------------------------------------

    9   -1036.5244802990      9.29e-07  Convergence criterion met
 Total energy in the final basis set =    -1036.5244802990

                    Orbital Energies (a.u.)
 --------------------------------------------------------------

 Alpha MOs
 -- Occupied --
*******-101.447 -10.397 -10.219 -10.203  -9.678  -9.363  -7.453
 -7.415  -7.408  -7.123  -7.119  -7.119  -1.187  -0.803  -0.733
 -0.707  -0.683  -0.668  -0.598  -0.514  -0.468  -0.425  -0.393
 -0.378  -0.270  -0.258  -0.242  -0.232

 Beta MOs
 -- Occupied --
*******-101.447 -10.397 -10.219 -10.203  -9.678  -9.363  -7.453
 -7.415  -7.408  -7.123  -7.119  -7.119  -1.187  -0.803  -0.733
 -0.707  -0.683  -0.668  -0.598  -0.514  -0.468  -0.425  -0.393
 -0.378  -0.270  -0.258  -0.242  -0.232

          Ground-State Mulliken Net Atomic Charges

     Atom                 Charge (a.u.)    Spin (a.u.)
  --------------------------------------------------------
      1 Cl                    0.758512       0.000000
      2 Cl                   -0.559950      -0.000000
      3 C                    -0.271984       0.000000
      4 C                    -0.276338      -0.000000
      5 C                    -0.370867      -0.000000
      6 H                     0.143280       0.000000
      7 H                     0.118695       0.000000
      8 H                     0.060077       0.000000
      9 H                     0.107489       0.000000
     10 H                     0.133206       0.000000
     11 H                     0.157881       0.000000
  --------------------------------------------------------
  Sum of atomic charges =     0.000000

                    Cartesian Multipole Moments
 -----------------------------------------------------------------
    Charge (ESU x 10^10)
                 0.0000
    Dipole Moment (Debye)
         X      -3.2289      Y      -5.7465      Z       2.5872
       Tot       7.0811
    Quadrupole Moments (Debye-Ang)
        XX     -48.6301     XY      -9.7133     YY     -51.2381
        XZ       4.3271     YZ       4.4678     ZZ     -45.6924

 Final energy is   -1036.52448029899
 **  OPTIMIZATION CONVERGED  **
 Total job time:  199.51s(wall), 2186.92s(cpu)
        *  Thank you very much for using Q-Chem.  Have a nice day.  *
