 Q-Chem 5.1, Q-Chem, Inc., Pleasanton, CA (2018)
 Q-Chem 5.1.1 for Intel X86 EM64T Linux

User input:
--------------------------------------------------------------

$comment
potential surface scanner
$end

$rem
JOBTYPE  PES_SCAN
UNRESTRICTED TRUE
SYM_IGNORE  TRUE
GEOM_OPT_MAX_CYCLES 400
SCF_MAX_CYCLES 400
METHOD   B3LYP
BASIS   6-31G**
PDB_PRINT 2
SCF_CONVERGENCE 6
THRESH 14
SCF_PRINT 1
$end
$molecule
0 1
Cl 1.116811 -1.487890 -0.297674
Cl 1.116723 1.487948 -0.297811
C -1.001691 0.000017 0.686110
C 0.516784 0.000065 0.544144
C -1.798478 -0.000063 -0.617334
H -1.254734 0.881037 1.288339
H -1.254672 -0.880971 1.288410
H 1.009290 0.000112 1.514472
H -1.576223 -0.885775 -1.218175
H -2.869628 -0.000091 -0.396831
H -1.576282 0.885612 -1.218250
$end
$scan
stre 1 4 1.200000 1.201000 0.100000
$end
--------------------------------------------------------------

    9   -1038.3381067175      4.42e-07  Convergence criterion met
 Total energy in the final basis set =    -1038.3381067175
    9   -1038.3286526835      4.29e-07  Convergence criterion met
 Total energy in the final basis set =    -1038.3286526835
    9   -1038.2898121648      4.77e-07  Convergence criterion met
 Total energy in the final basis set =    -1038.2898121648
    9   -1038.2146614532      4.46e-07  Convergence criterion met
 Total energy in the final basis set =    -1038.2146614532
    9   -1038.0988519361      4.85e-07  Convergence criterion met
 Total energy in the final basis set =    -1038.0988519361
    9   -1037.9641086626      6.05e-07  Convergence criterion met
 Total energy in the final basis set =    -1037.9641086626
    9   -1037.9596792312      7.40e-07  Convergence criterion met
 Total energy in the final basis set =    -1037.9596792312
    9   -1037.9644470167      5.61e-07  Convergence criterion met
    9   -1037.9676748963      8.42e-07  Convergence criterion met
 Total energy in the final basis set =    -1037.9676748963
    9   -1037.9676869440      8.60e-07  Convergence criterion met
 Total energy in the final basis set =    -1037.9676869440
    9   -1037.9676902529      8.72e-07  Convergence criterion met
 Total energy in the final basis set =    -1037.9676902529
    9   -1037.9676917845      8.76e-07  Convergence criterion met
 Total energy in the final basis set =    -1037.9676917845
    9   -1037.9676933572      8.78e-07  Convergence criterion met
 Total energy in the final basis set =    -1037.9676933572
    9   -1037.9676944421      8.75e-07  Convergence criterion met
 Total energy in the final basis set =    -1037.9676944421

             Standard Nuclear Orientation (Angstroms)
    I     Atom           X                Y                Z
 ----------------------------------------------------------------
    1      Cl      0.9950689303    -1.1740139926    -0.2153936356
    2      Cl      1.1280476914     1.7264088909    -0.2420526708
    3      C      -0.9914394668    -0.0622519132     0.6811725412
    4      C       0.5410637222    -0.3203438130     0.4953283699
    5      C      -1.7902223233    -0.0387368446    -0.6189160280
    6      H      -1.1132518479     0.8647378272     1.2402798520
    7      H      -1.3384341460    -0.8887290108     1.3229307586
    8      H       1.0006015973    -0.0171264667     1.4497995095
    9      H      -1.6879647737    -0.9703366441    -1.1872768391
   10      H      -2.8538594881     0.0896504037    -0.4004522551
   11      H      -1.4617098952     0.7907425632    -1.2500196026
 ----------------------------------------------------------------

    9   -1037.9676950566      8.72e-07  Convergence criterion met
 Total energy in the final basis set =    -1037.9676950566

                    Orbital Energies (a.u.)
 --------------------------------------------------------------

 Alpha MOs
 -- Occupied --
*******-101.466 -10.300 -10.212 -10.189  -9.561  -9.382  -7.323
 -7.313  -7.309  -7.144  -7.137  -7.137  -1.123  -0.791  -0.734
 -0.677  -0.617  -0.584  -0.538  -0.505  -0.450  -0.407  -0.379
 -0.364  -0.303  -0.268  -0.254  -0.251

 Beta MOs
 -- Occupied --
*******-101.466 -10.300 -10.212 -10.189  -9.561  -9.382  -7.323
 -7.313  -7.309  -7.144  -7.137  -7.137  -1.123  -0.791  -0.734
 -0.677  -0.617  -0.584  -0.538  -0.505  -0.450  -0.407  -0.379
 -0.364  -0.303  -0.268  -0.254  -0.251

          Ground-State Mulliken Net Atomic Charges

     Atom                 Charge (a.u.)    Spin (a.u.)
  --------------------------------------------------------
      1 Cl                    0.369323       0.000000
      2 Cl                   -0.434533      -0.000000
      3 C                    -0.195055       0.000000
      4 C                    -0.210085      -0.000000
      5 C                    -0.338327      -0.000000
      6 H                     0.149965       0.000000
      7 H                     0.104144       0.000000
      8 H                     0.176884      -0.000000
      9 H                     0.103593       0.000000
     10 H                     0.118619       0.000000
     11 H                     0.155472       0.000000
  --------------------------------------------------------
  Sum of atomic charges =    -0.000000

                    Cartesian Multipole Moments
 -----------------------------------------------------------------
    Charge (ESU x 10^10)
                 0.0000
    Dipole Moment (Debye)
         X      -1.5664      Y      -4.8052      Z       1.2894
       Tot       5.2159
    Quadrupole Moments (Debye-Ang)
        XX     -44.7619     XY      -5.7772     YY     -48.9612
        XZ       0.6905     YZ       0.8281     ZZ     -42.8911

 Final energy is   -1037.96769505662
 **  OPTIMIZATION CONVERGED  **
 Total job time:  84.00s(wall), 902.98s(cpu)
        *  Thank you very much for using Q-Chem.  Have a nice day.  *
