 Q-Chem 5.1, Q-Chem, Inc., Pleasanton, CA (2018)
 Q-Chem 5.1.1 for Intel X86 EM64T Linux

User input:
--------------------------------------------------------------

$comment
potential surface scanner
$end

$rem
JOBTYPE  PES_SCAN
UNRESTRICTED TRUE
SYM_IGNORE  TRUE
GEOM_OPT_MAX_CYCLES 400
SCF_MAX_CYCLES 400
METHOD   B3LYP
BASIS   6-31G**
PDB_PRINT 2
SCF_CONVERGENCE 6
THRESH 14
SCF_PRINT 1
$end
$molecule
0 3
Cl -0.405571 -1.626834 -0.314884
Cl -0.694895 2.262609 0.196072
C -0.922759 0.471729 2.298779
C -0.144674 0.862993 1.148910
C -0.881129 -0.948215 -1.919361
H -0.854988 1.009847 3.244499
H -1.684052 -0.300268 2.215368
H 0.928090 0.729991 1.068335
H -0.990224 0.129849 -1.809594
H -1.824532 -1.404047 -2.216191
H -0.097372 -1.187650 -2.636528
$end
$scan
stre 1 4 2.800000 2.801000 0.100000
$end
--------------------------------------------------------------

   10   -1038.2013764465      9.33e-07  Convergence criterion met
 Total energy in the final basis set =    -1038.2013764465
   10   -1038.1987211890      9.36e-07  Convergence criterion met
 Total energy in the final basis set =    -1038.1987211890
   10   -1038.1990814506      9.39e-07  Convergence criterion met
 Total energy in the final basis set =    -1038.1990814506
   10   -1038.1991607096      9.42e-07  Convergence criterion met
 Total energy in the final basis set =    -1038.1991607096
   10   -1038.1991656370      9.43e-07  Convergence criterion met
 Total energy in the final basis set =    -1038.1991656370
   10   -1038.1991688289      9.44e-07  Convergence criterion met
 Total energy in the final basis set =    -1038.1991688289
   10   -1038.1991698520      9.44e-07  Convergence criterion met
 Total energy in the final basis set =    -1038.1991698520
   10   -1038.1991716783      9.44e-07  Convergence criterion met
   10   -1038.1991922726      9.44e-07  Convergence criterion met
 Total energy in the final basis set =    -1038.1991922726
   10   -1038.1991956440      9.43e-07  Convergence criterion met
 Total energy in the final basis set =    -1038.1991956440
   10   -1038.1991986658      9.43e-07  Convergence criterion met
 Total energy in the final basis set =    -1038.1991986658
   10   -1038.1992012324      9.43e-07  Convergence criterion met
 Total energy in the final basis set =    -1038.1992012324
   10   -1038.1992032468      9.45e-07  Convergence criterion met
 Total energy in the final basis set =    -1038.1992032468
   10   -1038.1992046371      9.45e-07  Convergence criterion met
 Total energy in the final basis set =    -1038.1992046371

             Standard Nuclear Orientation (Angstroms)
    I     Atom           X                Y                Z
 ----------------------------------------------------------------
    1      Cl     -0.5084304232    -1.5900739805    -0.2737440284
    2      Cl     -0.7915495282     2.2405948694     0.1980886802
    3      C      -0.9010253475     0.4633918283     2.3183029195
    4      C      -0.1991299628     0.8241781176     1.1103516292
    5      C      -0.8518637218    -0.9330250197    -1.9203804220
    6      H      -0.7495329075     1.0077377962     3.2506893706
    7      H      -1.6897260403    -0.2851764386     2.3001109253
    8      H       0.8696438232     0.7003659143     0.9778479913
    9      H      -0.9226035843     0.1508260012    -1.8395732177
   10      H      -1.7931375797    -1.3571831811    -2.2664522873
   11      H      -0.0347507280    -1.2216319073    -2.5798365606
 ----------------------------------------------------------------

   10   -1038.1992055248      9.46e-07  Convergence criterion met
 Total energy in the final basis set =    -1038.1992055248

                    Orbital Energies (a.u.)
 --------------------------------------------------------------

 Alpha MOs
 -- Occupied --
*******-101.538 -10.246 -10.244 -10.214  -9.459  -9.455  -7.223
 -7.218  -7.215  -7.213  -7.209  -7.208  -0.862  -0.850  -0.743
 -0.680  -0.596  -0.462  -0.456  -0.451  -0.441  -0.429  -0.411
 -0.346  -0.310  -0.302  -0.300  -0.231  -0.194

 Beta MOs
 -- Occupied --
*******-101.538 -10.244 -10.232 -10.202  -9.458  -9.454  -7.221
 -7.218  -7.212  -7.212  -7.208  -7.208  -0.851  -0.842  -0.706
 -0.679  -0.565  -0.452  -0.451  -0.439  -0.425  -0.413  -0.406
 -0.325  -0.304  -0.299  -0.295

          Ground-State Mulliken Net Atomic Charges

     Atom                 Charge (a.u.)    Spin (a.u.)
  --------------------------------------------------------
      1 Cl                   -0.078515       0.033888
      2 Cl                   -0.066305       0.139710
      3 C                    -0.191242       0.974775
      4 C                    -0.190154       0.871657
      5 C                    -0.401982      -0.001363
      6 H                     0.125932       0.003170
      7 H                     0.137548      -0.010657
      8 H                     0.158908      -0.012126
      9 H                     0.179531       0.000743
     10 H                     0.163849       0.000110
     11 H                     0.162430       0.000092
  --------------------------------------------------------
  Sum of atomic charges =    -0.000000

                    Cartesian Multipole Moments
 -----------------------------------------------------------------
    Charge (ESU x 10^10)
                 0.0000
    Dipole Moment (Debye)
         X       0.0930      Y      -0.5579      Z      -0.6688
       Tot       0.8759
    Quadrupole Moments (Debye-Ang)
        XX     -43.9357     XY       1.7120     YY     -50.4767
        XZ       1.0940     YZ       1.6980     ZZ     -36.9855

 Final energy is   -1038.19920552481
 **  OPTIMIZATION CONVERGED  **
 Total job time:  75.08s(wall), 866.11s(cpu)
        *  Thank you very much for using Q-Chem.  Have a nice day.  *
