 Q-Chem 5.1, Q-Chem, Inc., Pleasanton, CA (2018)
 Q-Chem 5.1.1 for Intel X86 EM64T Linux

User input:
--------------------------------------------------------------

$comment
potential surface scanner
$end

$rem
JOBTYPE  PES_SCAN
UNRESTRICTED TRUE
SYM_IGNORE  TRUE
GEOM_OPT_MAX_CYCLES 400
SCF_MAX_CYCLES 400
METHOD   B3LYP
BASIS   6-31G**
PDB_PRINT 2
SCF_CONVERGENCE 6
THRESH 14
SCF_PRINT 1
$end
$molecule
0 3
Cl -0.510665 -1.537082 -0.245952
Cl -0.800174 2.222559 0.188211
C -0.898270 0.445207 2.306267
C -0.204789 0.790549 1.087680
C -0.849709 -0.920598 -1.908925
H -0.734759 0.998855 3.231059
H -1.702708 -0.286334 2.298831
H 0.870652 0.701233 0.978271
H -0.920858 0.164708 -1.854238
H -1.789907 -1.353572 -2.246903
H -0.030920 -1.225519 -2.558896
$end
$scan
stre 1 4 2.600000 2.601000 0.100000
$end
--------------------------------------------------------------

   10   -1038.1963134118      9.63e-07  Convergence criterion met
 Total energy in the final basis set =    -1038.1963134118
   10   -1038.1924607900      9.80e-07  Convergence criterion met
 Total energy in the final basis set =    -1038.1924607900
   10   -1038.1925048780      9.75e-07  Convergence criterion met
 Total energy in the final basis set =    -1038.1925048780
   10   -1038.1925287179      9.75e-07  Convergence criterion met
 Total energy in the final basis set =    -1038.1925287179
   10   -1038.1925423247      9.78e-07  Convergence criterion met
 Total energy in the final basis set =    -1038.1925423247
   10   -1038.1925510268      9.82e-07  Convergence criterion met
 Total energy in the final basis set =    -1038.1925510268
   10   -1038.1925546816      9.85e-07  Convergence criterion met
 Total energy in the final basis set =    -1038.1925546816
   10   -1038.1925564936      9.87e-07  Convergence criterion met
   10   -1038.1925594282      9.90e-07  Convergence criterion met
 Total energy in the final basis set =    -1038.1925594282
   10   -1038.1925620220      9.91e-07  Convergence criterion met
 Total energy in the final basis set =    -1038.1925620220
   10   -1038.1925657117      9.91e-07  Convergence criterion met
 Total energy in the final basis set =    -1038.1925657117
   10   -1038.1925696084      9.91e-07  Convergence criterion met
 Total energy in the final basis set =    -1038.1925696084
   10   -1038.1925726908      9.90e-07  Convergence criterion met
 Total energy in the final basis set =    -1038.1925726908
   10   -1038.1925746109      9.89e-07  Convergence criterion met
 Total energy in the final basis set =    -1038.1925746109

             Standard Nuclear Orientation (Angstroms)
    I     Atom           X                Y                Z
 ----------------------------------------------------------------
    1      Cl     -0.5460096687    -1.5127794238    -0.2016748012
    2      Cl     -0.8469251262     2.2218586586     0.1849246530
    3      C      -0.8904901999     0.4236667898     2.2822872795
    4      C      -0.2384840366     0.7533076937     1.0353694213
    5      C      -0.8323857511    -0.9031299474    -1.8768260174
    6      H      -0.6671199203     0.9656761307     3.2012021020
    7      H      -1.7282303555    -0.2688748216     2.3031485432
    8      H       0.8378917555     0.6865615169     0.9154842761
    9      H      -0.8863711528     0.1836555650    -1.8306195085
   10      H      -1.7711874257    -1.3230285913    -2.2343580703
   11      H      -0.0027951187    -1.2269075705    -2.5035328778
 ----------------------------------------------------------------

   10   -1038.1925755468      9.88e-07  Convergence criterion met
 Total energy in the final basis set =    -1038.1925755468

                    Orbital Energies (a.u.)
 --------------------------------------------------------------

 Alpha MOs
 -- Occupied --
*******-101.538 -10.246 -10.244 -10.213  -9.459  -9.454  -7.222
 -7.218  -7.214  -7.212  -7.210  -7.208  -0.862  -0.849  -0.742
 -0.683  -0.595  -0.464  -0.457  -0.452  -0.438  -0.426  -0.411
 -0.344  -0.312  -0.305  -0.300  -0.230  -0.188

 Beta MOs
 -- Occupied --
*******-101.537 -10.246 -10.230 -10.200  -9.458  -9.453  -7.222
 -7.216  -7.212  -7.211  -7.207  -7.207  -0.855  -0.836  -0.706
 -0.680  -0.565  -0.455  -0.453  -0.439  -0.425  -0.411  -0.401
 -0.323  -0.304  -0.301  -0.294

          Ground-State Mulliken Net Atomic Charges

     Atom                 Charge (a.u.)    Spin (a.u.)
  --------------------------------------------------------
      1 Cl                   -0.056666       0.060475
      2 Cl                   -0.082300       0.148777
      3 C                    -0.186833       0.974553
      4 C                    -0.200357       0.841472
      5 C                    -0.401571      -0.002345
      6 H                     0.125103      -0.000225
      7 H                     0.135105      -0.015352
      8 H                     0.158023      -0.009716
      9 H                     0.180855       0.002116
     10 H                     0.165378       0.000123
     11 H                     0.163263       0.000121
  --------------------------------------------------------
  Sum of atomic charges =    -0.000000

                    Cartesian Multipole Moments
 -----------------------------------------------------------------
    Charge (ESU x 10^10)
                -0.0000
    Dipole Moment (Debye)
         X       0.2088      Y      -0.8338      Z      -0.7520
       Tot       1.1421
    Quadrupole Moments (Debye-Ang)
        XX     -44.1339     XY       1.9275     YY     -50.6178
        XZ       1.0617     YZ       1.7908     ZZ     -37.2300

 Final energy is   -1038.19257554678
 **  OPTIMIZATION CONVERGED  **
 Total job time:  55.39s(wall), 616.25s(cpu)
        *  Thank you very much for using Q-Chem.  Have a nice day.  *
