 Q-Chem 5.1, Q-Chem, Inc., Pleasanton, CA (2018)
 Q-Chem 5.1.1 for Intel X86 EM64T Linux

User input:
--------------------------------------------------------------

$comment
potential surface scanner
$end

$rem
JOBTYPE  PES_SCAN
UNRESTRICTED TRUE
SYM_IGNORE  TRUE
GEOM_OPT_MAX_CYCLES 400
SCF_MAX_CYCLES 400
METHOD   B3LYP
BASIS   6-31G**
PDB_PRINT 2
SCF_CONVERGENCE 6
THRESH 14
SCF_PRINT 1
$end
$molecule
0 1
Cl 0.057193 -2.811992 -1.773797
Cl 0.964350 1.959183 -0.051771
C -0.974104 0.205695 0.829289
C 0.320774 0.832432 1.020608
C -1.442606 -0.212540 -0.578799
H -1.700142 0.988484 1.144246
H -1.073720 -0.607124 1.555047
H 0.944154 0.638765 1.887858
H -0.886419 -1.130521 -0.887546
H -2.511954 -0.433104 -0.548953
H -1.269628 0.570722 -1.320784
$end
$scan
stre 1 4 4.700000 4.701000 0.100000
$end
--------------------------------------------------------------

   15   -1038.2181072363      4.84e-07  Convergence criterion met
 Total energy in the final basis set =    -1038.2181072363
   15   -1038.2172918393      6.96e-07  Convergence criterion met
 Total energy in the final basis set =    -1038.2172918393
   15   -1038.2173461872      6.97e-07  Convergence criterion met
 Total energy in the final basis set =    -1038.2173461872
   16   -1038.2173911971      6.53e-07  Convergence criterion met
 Total energy in the final basis set =    -1038.2173911971
   16   -1038.2174022769      6.21e-07  Convergence criterion met
 Total energy in the final basis set =    -1038.2174022769
   14   -1038.2174226751      8.32e-07  Convergence criterion met
 Total energy in the final basis set =    -1038.2174226751
   14   -1038.2174285781      4.06e-07  Convergence criterion met
 Total energy in the final basis set =    -1038.2174285781
   14   -1038.2174319287      3.80e-07  Convergence criterion met
 Total energy in the final basis set =    -1038.2174319287
   14   -1038.2174333685      4.28e-07  Convergence criterion met
 Total energy in the final basis set =    -1038.2174333685
   14   -1038.2174345413      4.57e-07  Convergence criterion met
 Total energy in the final basis set =    -1038.2174345413

             Standard Nuclear Orientation (Angstroms)
    I     Atom           X                Y                Z
 ----------------------------------------------------------------
    1      Cl     -0.0265551768    -2.8475367268    -1.8335310382
    2      Cl      0.9530373792     1.9867031992    -0.0375775028
    3      C      -0.9656873776     0.2062647502     0.8331715470
    4      C       0.3142918993     0.8586012701     1.0367239295
    5      C      -1.4185035914    -0.2234017100    -0.5775763652
    6      H      -1.7085700012     0.9770110364     1.1388621411
    7      H      -1.0587011775    -0.6047160877     1.5620078641
    8      H       0.9304331375     0.6815216640     1.9126100595
    9      H      -0.8659059207    -1.1462732141    -0.8788306137
   10      H      -2.4882636896    -0.4426767488    -0.5572396389
   11      H      -1.2376774810     0.5545025675    -1.3232223825
 ----------------------------------------------------------------

   14   -1038.2174352614      4.47e-07  Convergence criterion met
 Total energy in the final basis set =    -1038.2174352614

                    Orbital Energies (a.u.)
 --------------------------------------------------------------

 Alpha MOs
 -- Occupied --
*******-101.440 -10.352 -10.264 -10.209  -9.554  -9.353  -7.318
 -7.310  -7.307  -7.115  -7.109  -7.109  -0.965  -0.838  -0.724
 -0.685  -0.634  -0.553  -0.513  -0.490  -0.437  -0.416  -0.401
 -0.388  -0.377  -0.221  -0.220  -0.219

 Beta MOs
 -- Occupied --
*******-101.440 -10.352 -10.264 -10.209  -9.554  -9.353  -7.318
 -7.310  -7.307  -7.115  -7.109  -7.109  -0.965  -0.838  -0.724
 -0.685  -0.634  -0.553  -0.513  -0.490  -0.437  -0.416  -0.401
 -0.388  -0.377  -0.221  -0.220  -0.219

          Ground-State Mulliken Net Atomic Charges

     Atom                 Charge (a.u.)    Spin (a.u.)
  --------------------------------------------------------
      1 Cl                   -0.501180       0.000000
      2 Cl                    0.167737      -0.000000
      3 C                    -0.238763       0.000000
      4 C                    -0.126912      -0.000000
      5 C                    -0.308432       0.000000
      6 H                     0.191255      -0.000000
      7 H                     0.173783      -0.000000
      8 H                     0.205917       0.000000
      9 H                     0.174460      -0.000000
     10 H                     0.131098      -0.000000
     11 H                     0.131035       0.000000
  --------------------------------------------------------
  Sum of atomic charges =    -0.000000

                    Cartesian Multipole Moments
 -----------------------------------------------------------------
    Charge (ESU x 10^10)
                 0.0000
    Dipole Moment (Debye)
         X      -0.7806      Y       8.0456      Z       6.3823
       Tot      10.2992
    Quadrupole Moments (Debye-Ang)
        XX     -41.6178     XY       0.5498     YY     -61.8221
        XZ      -0.1059     YZ     -11.7077     ZZ     -48.9866

 Final energy is   -1038.21743526143
 **  OPTIMIZATION CONVERGED  **
 Total job time:  47.65s(wall), 550.13s(cpu)
        *  Thank you very much for using Q-Chem.  Have a nice day.  *
