 Q-Chem 5.1, Q-Chem, Inc., Pleasanton, CA (2018)
 Q-Chem 5.1.1 for Intel X86 EM64T Linux

User input:
--------------------------------------------------------------

$comment
potential surface scanner
$end

$rem
JOBTYPE  PES_SCAN
UNRESTRICTED TRUE
SYM_IGNORE  TRUE
GEOM_OPT_MAX_CYCLES 400
SCF_MAX_CYCLES 400
METHOD   B3LYP
BASIS   6-31G**
PDB_PRINT 2
SCF_CONVERGENCE 6
THRESH 14
SCF_PRINT 1
$end
$molecule
0 1
Cl 1.078017 -2.413730 -0.724787
Cl 1.018052 1.718442 -0.181825
C -1.050742 0.154761 0.768122
C 0.388470 0.461000 0.741654
C -1.726278 -0.001939 -0.608577
H -1.535014 0.986780 1.314510
H -1.175567 -0.751301 1.366040
H 1.105063 -0.012575 1.404610
H -1.259265 -0.844050 -1.126261
H -2.791089 -0.199409 -0.464001
H -1.623749 0.902021 -1.214090
$end
$scan
stre 1 4 3.400000 3.401000 0.100000
$end
--------------------------------------------------------------

   11   -1038.2477850127      6.82e-07  Convergence criterion met
 Total energy in the final basis set =    -1038.2477850127
   11   -1038.2436893718      5.42e-07  Convergence criterion met
 Total energy in the final basis set =    -1038.2436893718
   11   -1038.2436425376      5.42e-07  Convergence criterion met
 Total energy in the final basis set =    -1038.2436425376
   11   -1038.2436673877      5.52e-07  Convergence criterion met
 Total energy in the final basis set =    -1038.2436673877
   11   -1038.2436702837      5.53e-07  Convergence criterion met
 Total energy in the final basis set =    -1038.2436702837
   11   -1038.2436806697      5.60e-07  Convergence criterion met
 Total energy in the final basis set =    -1038.2436806697
   11   -1038.2436836119      5.62e-07  Convergence criterion met
 Total energy in the final basis set =    -1038.2436836119
   11   -1038.2436884841      5.67e-07  Convergence criterion met
   11   -1038.2436927889      5.74e-07  Convergence criterion met
 Total energy in the final basis set =    -1038.2436927889
   11   -1038.2436938982      5.74e-07  Convergence criterion met
 Total energy in the final basis set =    -1038.2436938982
   11   -1038.2436952622      5.72e-07  Convergence criterion met
 Total energy in the final basis set =    -1038.2436952622
   11   -1038.2436967871      5.68e-07  Convergence criterion met
 Total energy in the final basis set =    -1038.2436967871
   11   -1038.2436983585      5.61e-07  Convergence criterion met
 Total energy in the final basis set =    -1038.2436983585
   11   -1038.2436996219      5.53e-07  Convergence criterion met
 Total energy in the final basis set =    -1038.2436996219

             Standard Nuclear Orientation (Angstroms)
    I     Atom           X                Y                Z
 ----------------------------------------------------------------
    1      Cl      1.0336383038    -2.4765415992    -0.7780606019
    2      Cl      1.0020142934     1.7686279494    -0.1404008785
    3      C      -1.0514782391     0.1694860544     0.7779111867
    4      C       0.3836133337     0.4872623397     0.7559967455
    5      C      -1.7111888736    -0.0133937538    -0.6076662958
    6      H      -1.5521497448     1.0058009261     1.3016369148
    7      H      -1.1749857369    -0.7306974257     1.3843837493
    8      H       1.1125875949    -0.0192035930     1.3804650056
    9      H      -1.2256393148    -0.8556755590    -1.1090328676
   10      H      -2.7747549602    -0.2217543339    -0.4694614107
   11      H      -1.6137586563     0.8860889951    -1.2203765474
 ----------------------------------------------------------------

   11   -1038.2437003949      5.46e-07  Convergence criterion met
 Total energy in the final basis set =    -1038.2437003949

                    Orbital Energies (a.u.)
 --------------------------------------------------------------

 Alpha MOs
 -- Occupied --
*******-101.453 -10.361 -10.255 -10.211  -9.551  -9.365  -7.315
 -7.307  -7.304  -7.127  -7.121  -7.121  -0.963  -0.831  -0.718
 -0.692  -0.633  -0.548  -0.509  -0.482  -0.437  -0.412  -0.400
 -0.387  -0.374  -0.238  -0.229  -0.228

 Beta MOs
 -- Occupied --
*******-101.453 -10.361 -10.255 -10.211  -9.551  -9.365  -7.315
 -7.307  -7.304  -7.127  -7.121  -7.121  -0.963  -0.831  -0.718
 -0.692  -0.633  -0.548  -0.509  -0.482  -0.437  -0.412  -0.400
 -0.387  -0.374  -0.238  -0.229  -0.228

          Ground-State Mulliken Net Atomic Charges

     Atom                 Charge (a.u.)    Spin (a.u.)
  --------------------------------------------------------
      1 Cl                   -0.539915      -0.000000
      2 Cl                    0.174208       0.000000
      3 C                    -0.222420       0.000000
      4 C                    -0.095192       0.000000
      5 C                    -0.329970      -0.000000
      6 H                     0.157702      -0.000000
      7 H                     0.176377      -0.000000
      8 H                     0.234488       0.000000
      9 H                     0.193237      -0.000000
     10 H                     0.127319       0.000000
     11 H                     0.124166       0.000000
  --------------------------------------------------------
  Sum of atomic charges =    -0.000000

                    Cartesian Multipole Moments
 -----------------------------------------------------------------
    Charge (ESU x 10^10)
                -0.0000
    Dipole Moment (Debye)
         X      -2.8450      Y       6.7889      Z       3.5375
       Tot       8.1669
    Quadrupole Moments (Debye-Ang)
        XX     -44.2240     XY       7.0336     YY     -57.1462
        XZ       2.2509     YZ      -4.5148     ZZ     -43.5216

 Final energy is   -1038.24370039493
 **  OPTIMIZATION CONVERGED  **
 Total job time:  61.91s(wall), 686.17s(cpu)
        *  Thank you very much for using Q-Chem.  Have a nice day.  *
