 Q-Chem 5.1, Q-Chem, Inc., Pleasanton, CA (2018)
 Q-Chem 5.1.1 for Intel X86 EM64T Linux

User input:
--------------------------------------------------------------

$comment
potential surface scanner
$end

$rem
JOBTYPE  PES_SCAN
UNRESTRICTED TRUE
SYM_IGNORE  TRUE
GEOM_OPT_MAX_CYCLES 400
SCF_MAX_CYCLES 400
METHOD   B3LYP
BASIS   6-31G**
PDB_PRINT 2
SCF_CONVERGENCE 6
THRESH 14
SCF_PRINT 1
$end
$molecule
0 1
Cl 1.116811 -1.487890 -0.297674
Cl 1.116723 1.487948 -0.297811
C -1.001691 0.000017 0.686110
C 0.516784 0.000065 0.544144
C -1.798478 -0.000063 -0.617334
H -1.254734 0.881037 1.288339
H -1.254672 -0.880971 1.288410
H 1.009290 0.000112 1.514472
H -1.576223 -0.885775 -1.218175
H -2.869628 -0.000091 -0.396831
H -1.576282 0.885612 -1.218250
$end
$scan
stre 1 4 1.100000 1.101000 0.100000
$end
--------------------------------------------------------------

    9   -1038.3381067175      4.42e-07  Convergence criterion met
 Total energy in the final basis set =    -1038.3381067175
    9   -1038.3286526835      4.29e-07  Convergence criterion met
 Total energy in the final basis set =    -1038.3286526835
    9   -1038.2898121648      4.77e-07  Convergence criterion met
 Total energy in the final basis set =    -1038.2898121648
    9   -1038.2146614532      4.46e-07  Convergence criterion met
 Total energy in the final basis set =    -1038.2146614532
    9   -1038.0988519361      4.85e-07  Convergence criterion met
 Total energy in the final basis set =    -1038.0988519361
    9   -1037.9016816475      7.69e-07  Convergence criterion met
 Total energy in the final basis set =    -1037.9016816475
    9   -1037.7345042070      6.10e-07  Convergence criterion met
 Total energy in the final basis set =    -1037.7345042070
    9   -1037.6863404375      6.59e-07  Convergence criterion met
   10   -1037.6922428349      4.45e-07  Convergence criterion met
 Total energy in the final basis set =    -1037.6922428349
   10   -1037.6922598331      4.57e-07  Convergence criterion met
 Total energy in the final basis set =    -1037.6922598331
   10   -1037.6922667196      4.66e-07  Convergence criterion met
 Total energy in the final basis set =    -1037.6922667196
   10   -1037.6922728428      4.71e-07  Convergence criterion met
 Total energy in the final basis set =    -1037.6922728428
   10   -1037.6922769504      4.71e-07  Convergence criterion met
 Total energy in the final basis set =    -1037.6922769504
   10   -1037.6922786331      4.67e-07  Convergence criterion met
 Total energy in the final basis set =    -1037.6922786331

             Standard Nuclear Orientation (Angstroms)
    I     Atom           X                Y                Z
 ----------------------------------------------------------------
    1      Cl      0.9685970078    -1.1272729117    -0.2048458472
    2      Cl      1.1538317926     1.8195609545    -0.2526107483
    3      C      -1.0009390930    -0.0838897833     0.6894974873
    4      C       0.5317575421    -0.3993939788     0.4946994902
    5      C      -1.7866058517    -0.0489104530    -0.6166337546
    6      H      -1.0817304323     0.8548682123     1.2341841445
    7      H      -1.3692263795    -0.8936454118     1.3411495040
    8      H       0.9927992114    -0.0133420155     1.4239864443
    9      H      -1.7065302710    -0.9865718443    -1.1799294046
   10      H      -2.8482865583     0.1088817838    -0.4094768033
   11      H      -1.4257669682     0.7697164479    -1.2446205124
 ----------------------------------------------------------------

   10   -1037.6922795727      4.64e-07  Convergence criterion met
 Total energy in the final basis set =    -1037.6922795727

                    Orbital Energies (a.u.)
 --------------------------------------------------------------

 Alpha MOs
 -- Occupied --
*******-101.442 -10.314 -10.216 -10.192  -9.597  -9.357  -7.361
 -7.347  -7.342  -7.118  -7.113  -7.113  -1.173  -0.795  -0.710
 -0.681  -0.639  -0.616  -0.583  -0.516  -0.457  -0.413  -0.383
 -0.368  -0.297  -0.244  -0.235  -0.232

 Beta MOs
 -- Occupied --
*******-101.442 -10.314 -10.216 -10.192  -9.597  -9.357  -7.361
 -7.347  -7.342  -7.118  -7.113  -7.113  -1.173  -0.795  -0.710
 -0.681  -0.639  -0.616  -0.583  -0.516  -0.457  -0.413  -0.383
 -0.368  -0.297  -0.244  -0.235  -0.232

          Ground-State Mulliken Net Atomic Charges

     Atom                 Charge (a.u.)    Spin (a.u.)
  --------------------------------------------------------
      1 Cl                    0.492413      -0.000000
      2 Cl                   -0.562251      -0.000000
      3 C                    -0.209723       0.000000
      4 C                    -0.197545       0.000000
      5 C                    -0.347210      -0.000000
      6 H                     0.160926      -0.000000
      7 H                     0.103087      -0.000000
      8 H                     0.174262      -0.000000
      9 H                     0.099327       0.000000
     10 H                     0.122855       0.000000
     11 H                     0.163859      -0.000000
  --------------------------------------------------------
  Sum of atomic charges =    -0.000000

                    Cartesian Multipole Moments
 -----------------------------------------------------------------
    Charge (ESU x 10^10)
                 0.0000
    Dipole Moment (Debye)
         X      -1.7989      Y      -6.2982      Z       1.3757
       Tot       6.6929
    Quadrupole Moments (Debye-Ang)
        XX     -44.8571     XY      -7.5839     YY     -50.5917
        XZ       0.7749     YZ       1.0584     ZZ     -42.7048

 Final energy is   -1037.69227957270
 **  OPTIMIZATION CONVERGED  **
 Total job time:  95.98s(wall), 1026.64s(cpu)
        *  Thank you very much for using Q-Chem.  Have a nice day.  *
