 Q-Chem 5.1, Q-Chem, Inc., Pleasanton, CA (2018)
 Q-Chem 5.1.1 for Intel X86 EM64T Linux

User input:
--------------------------------------------------------------

$comment
potential surface scanner
$end

$rem
JOBTYPE  PES_SCAN
UNRESTRICTED TRUE
SYM_IGNORE  TRUE
GEOM_OPT_MAX_CYCLES 400
SCF_MAX_CYCLES 400
METHOD   B3LYP
BASIS   6-31G**
PDB_PRINT 2
SCF_CONVERGENCE 6
THRESH 14
SCF_PRINT 1
$end
$molecule
0 1
Cl 1.116811 -1.487890 -0.297674
Cl 1.116723 1.487948 -0.297811
C -1.001691 0.000017 0.686110
C 0.516784 0.000065 0.544144
C -1.798478 -0.000063 -0.617334
H -1.254734 0.881037 1.288339
H -1.254672 -0.880971 1.288410
H 1.009290 0.000112 1.514472
H -1.576223 -0.885775 -1.218175
H -2.869628 -0.000091 -0.396831
H -1.576282 0.885612 -1.218250
$end
$scan
stre 1 4 1.500000 1.501000 0.100000
$end
--------------------------------------------------------------

    9   -1038.3381067175      4.42e-07  Convergence criterion met
 Total energy in the final basis set =    -1038.3381067175
    9   -1038.3286526835      4.29e-07  Convergence criterion met
 Total energy in the final basis set =    -1038.3286526835
    9   -1038.2898121648      4.77e-07  Convergence criterion met
 Total energy in the final basis set =    -1038.2898121648
    9   -1038.2870376545      5.86e-07  Convergence criterion met
 Total energy in the final basis set =    -1038.2870376545
    9   -1038.2887483641      4.43e-07  Convergence criterion met
 Total energy in the final basis set =    -1038.2887483641
    9   -1038.2889083073      4.38e-07  Convergence criterion met
 Total energy in the final basis set =    -1038.2889083073
    9   -1038.2891427841      4.36e-07  Convergence criterion met
 Total energy in the final basis set =    -1038.2891427841
    9   -1038.2891595084      4.37e-07  Convergence criterion met
 Total energy in the final basis set =    -1038.2891595084
    9   -1038.2891698320      4.39e-07  Convergence criterion met
 Total energy in the final basis set =    -1038.2891698320
    9   -1038.2891716844      4.40e-07  Convergence criterion met
 Total energy in the final basis set =    -1038.2891716844
    9   -1038.2891728332      4.40e-07  Convergence criterion met
 Total energy in the final basis set =    -1038.2891728332

             Standard Nuclear Orientation (Angstroms)
    I     Atom           X                Y                Z
 ----------------------------------------------------------------
    1      Cl      1.0642141433    -1.3152511348    -0.2442465587
    2      Cl      1.1145311187     1.5338826947    -0.2652873569
    3      C      -0.9873051243    -0.0232072390     0.6767353655
    4      C       0.5462390452    -0.1238445236     0.5055885733
    5      C      -1.7971368686    -0.0151334858    -0.6188602758
    6      H      -1.1931946244     0.8752460040     1.2652037678
    7      H      -1.2763206207    -0.8854089589     1.2936990418
    8      H       0.9915705633    -0.0102322349     1.4983775139
    9      H      -1.6310187614    -0.9218603075    -1.2084587393
   10      H      -2.8651267004     0.0383675211    -0.3890417607
   11      H      -1.5385521707     0.8474426646    -1.2383095709
 ----------------------------------------------------------------

    9   -1038.2891736170      4.40e-07  Convergence criterion met
 Total energy in the final basis set =    -1038.2891736170

                    Orbital Energies (a.u.)
 --------------------------------------------------------------

 Alpha MOs
 -- Occupied --
*******-101.523 -10.298 -10.210 -10.185  -9.494  -9.440  -7.257
 -7.248  -7.247  -7.204  -7.194  -7.194  -0.979  -0.812  -0.774
 -0.674  -0.592  -0.517  -0.485  -0.470  -0.430  -0.391  -0.376
 -0.358  -0.318  -0.316  -0.294  -0.288

 Beta MOs
 -- Occupied --
*******-101.523 -10.298 -10.210 -10.185  -9.494  -9.440  -7.257
 -7.248  -7.247  -7.204  -7.194  -7.194  -0.979  -0.812  -0.774
 -0.674  -0.592  -0.517  -0.485  -0.470  -0.430  -0.391  -0.376
 -0.358  -0.318  -0.316  -0.294  -0.288

          Ground-State Mulliken Net Atomic Charges

     Atom                 Charge (a.u.)    Spin (a.u.)
  --------------------------------------------------------
      1 Cl                    0.126693       0.000000
      2 Cl                   -0.140410      -0.000000
      3 C                    -0.177283       0.000000
      4 C                    -0.284087      -0.000000
      5 C                    -0.325485      -0.000000
      6 H                     0.129635      -0.000000
      7 H                     0.115912      -0.000000
      8 H                     0.186026       0.000000
      9 H                     0.118847      -0.000000
     10 H                     0.113041       0.000000
     11 H                     0.137111       0.000000
  --------------------------------------------------------
  Sum of atomic charges =     0.000000

                    Cartesian Multipole Moments
 -----------------------------------------------------------------
    Charge (ESU x 10^10)
                 0.0000
    Dipole Moment (Debye)
         X      -1.4124      Y      -1.5389      Z       1.3184
       Tot       2.4701
    Quadrupole Moments (Debye-Ang)
        XX     -44.9748     XY      -1.8724     YY     -46.7982
        XZ       0.7253     YZ       0.3047     ZZ     -43.2252

 Final energy is   -1038.28917361701
 **  OPTIMIZATION CONVERGED  **
 Total job time:  46.64s(wall), 488.42s(cpu)
        *  Thank you very much for using Q-Chem.  Have a nice day.  *
