 Q-Chem 5.1, Q-Chem, Inc., Pleasanton, CA (2018)
 Q-Chem 5.1.1 for Intel X86 EM64T Linux

User input:
--------------------------------------------------------------

$comment
potential surface scanner
$end

$rem
JOBTYPE  PES_SCAN
UNRESTRICTED TRUE
SYM_IGNORE  TRUE
GEOM_OPT_MAX_CYCLES 400
SCF_MAX_CYCLES 400
METHOD   B3LYP
BASIS   6-31G**
PDB_PRINT 2
SCF_CONVERGENCE 6
THRESH 14
SCF_PRINT 1
$end
$molecule
0 1
Cl 1.182204 -1.919886 -0.400447
Cl 1.096860 1.486091 -0.340926
C -1.030644 0.056912 0.711511
C 0.445332 0.234435 0.631988
C -1.788931 0.031809 -0.616134
H -1.386671 0.894582 1.338108
H -1.204873 -0.858916 1.283840
H 1.059158 0.013002 1.496922
H -1.428629 -0.797110 -1.229547
H -2.856705 -0.104126 -0.426415
H -1.659202 0.963208 -1.173506
$end
$scan
stre 1 4 2.600000 2.601000 0.100000
$end
--------------------------------------------------------------

   10   -1038.2939846419      4.92e-07  Convergence criterion met
 Total energy in the final basis set =    -1038.2939846419
   10   -1038.2867402484      7.19e-07  Convergence criterion met
 Total energy in the final basis set =    -1038.2867402484
   10   -1038.2867264814      7.26e-07  Convergence criterion met
 Total energy in the final basis set =    -1038.2867264814
   10   -1038.2869059845      7.36e-07  Convergence criterion met
 Total energy in the final basis set =    -1038.2869059845
   10   -1038.2869108845      7.39e-07  Convergence criterion met
 Total energy in the final basis set =    -1038.2869108845

             Standard Nuclear Orientation (Angstroms)
    I     Atom           X                Y                Z
 ----------------------------------------------------------------
    1      Cl      1.1886031335    -1.9841707264    -0.4209846595
    2      Cl      1.0913344780     1.4965951909    -0.3382602397
    3      C      -1.0343628160     0.0671379061     0.7162047369
    4      C       0.4357971367     0.2649606191     0.6442334295
    5      C      -1.7860346620     0.0343058285    -0.6157982856
    6      H      -1.4051569745     0.8999244722     1.3422529573
    7      H      -1.1989098298    -0.8513697762     1.2868051294
    8      H       1.0646218956     0.0109360676     1.4889639829
    9      H      -1.4077621446    -0.7886202262    -1.2265853429
   10      H      -2.8522450243    -0.1184470033    -0.4307834939
   11      H      -1.6679861926     0.9687486477    -1.1706542144
 ----------------------------------------------------------------

   10   -1038.2869120517      7.40e-07  Convergence criterion met
 Total energy in the final basis set =    -1038.2869120517

                    Orbital Energies (a.u.)
 --------------------------------------------------------------

 Alpha MOs
 -- Occupied --
*******-101.485 -10.347 -10.240 -10.201  -9.520  -9.398  -7.283
 -7.275  -7.273  -7.161  -7.153  -7.153  -0.932  -0.815  -0.729
 -0.705  -0.614  -0.524  -0.493  -0.471  -0.413  -0.400  -0.389
 -0.374  -0.351  -0.280  -0.258  -0.258

 Beta MOs
 -- Occupied --
*******-101.485 -10.347 -10.240 -10.201  -9.520  -9.398  -7.283
 -7.275  -7.273  -7.161  -7.153  -7.153  -0.932  -0.815  -0.729
 -0.705  -0.614  -0.524  -0.493  -0.471  -0.413  -0.400  -0.389
 -0.374  -0.351  -0.280  -0.258  -0.258

          Ground-State Mulliken Net Atomic Charges

     Atom                 Charge (a.u.)    Spin (a.u.)
  --------------------------------------------------------
      1 Cl                   -0.420035       0.000000
      2 Cl                    0.119876       0.000000
      3 C                    -0.198691      -0.000000
      4 C                    -0.116878      -0.000000
      5 C                    -0.327699       0.000000
      6 H                     0.144703      -0.000000
      7 H                     0.167333       0.000000
      8 H                     0.218966       0.000000
      9 H                     0.167905      -0.000000
     10 H                     0.119766      -0.000000
     11 H                     0.124753      -0.000000
  --------------------------------------------------------
  Sum of atomic charges =     0.000000

                    Cartesian Multipole Moments
 -----------------------------------------------------------------
    Charge (ESU x 10^10)
                 0.0000
    Dipole Moment (Debye)
         X      -2.7155      Y       4.0173      Z       2.3938
       Tot       5.4077
    Quadrupole Moments (Debye-Ang)
        XX     -45.2716     XY       4.9005     YY     -51.3423
        XZ       1.2586     YZ      -1.5213     ZZ     -42.5108

 Final energy is   -1038.28691205173
 **  OPTIMIZATION CONVERGED  **
 Total job time:  22.49s(wall), 246.75s(cpu)
        *  Thank you very much for using Q-Chem.  Have a nice day.  *
