 Q-Chem 5.1, Q-Chem, Inc., Pleasanton, CA (2018)
 Q-Chem 5.1.1 for Intel X86 EM64T Linux

User input:
--------------------------------------------------------------

$comment
potential surface scanner
$end

$rem
JOBTYPE  PES_SCAN
UNRESTRICTED TRUE
SYM_IGNORE  TRUE
GEOM_OPT_MAX_CYCLES 400
SCF_MAX_CYCLES 400
METHOD   B3LYP
BASIS   6-31G**
PDB_PRINT 2
SCF_CONVERGENCE 6
THRESH 14
SCF_PRINT 1
$end
$molecule
0 1
Cl -0.279011 -2.929855 -1.925274
Cl 0.826739 2.185423 0.098624
C -0.961555 0.231830 0.854148
C 0.299095 0.907475 1.066497
C -1.339566 -0.264121 -0.580412
H -1.744625 0.986713 1.069522
H -1.063580 -0.569443 1.590012
H 0.994252 0.637014 1.854854
H -0.773105 -1.192124 -0.811880
H -2.408802 -0.483746 -0.601332
H -1.121943 0.490834 -1.339361
$end
$scan
stre 1 4 5.000000 5.001000 0.100000
$end
--------------------------------------------------------------

   16   -1038.2162760938      1.69e-07  Convergence criterion met
 Total energy in the final basis set =    -1038.2162760938
   17   -1038.2156593118      1.57e-07  Convergence criterion met
 Total energy in the final basis set =    -1038.2156593118
   17   -1038.2157381322      1.14e-07  Convergence criterion met
 Total energy in the final basis set =    -1038.2157381322
   17   -1038.2157963584      1.71e-07  Convergence criterion met
 Total energy in the final basis set =    -1038.2157963584
   16   -1038.2158063867      9.56e-07  Convergence criterion met
 Total energy in the final basis set =    -1038.2158063867
   16   -1038.2158190029      8.20e-07  Convergence criterion met
 Total energy in the final basis set =    -1038.2158190029
   16   -1038.2158216801      7.77e-07  Convergence criterion met
 Total energy in the final basis set =    -1038.2158216801
   16   -1038.2158259511      7.42e-07  Convergence criterion met
    9   -1038.3041354942      9.58e-07  Convergence criterion met
 Total energy in the final basis set =    -1038.3041354942
    9   -1038.3041338276      9.63e-07  Convergence criterion met
 Total energy in the final basis set =    -1038.3041338276
    9   -1038.3041483602      9.54e-07  Convergence criterion met
 Total energy in the final basis set =    -1038.3041483602
    9   -1038.3041515520      9.54e-07  Convergence criterion met
 Total energy in the final basis set =    -1038.3041515520
    9   -1038.3041538522      9.57e-07  Convergence criterion met
 Total energy in the final basis set =    -1038.3041538522
    9   -1038.3041563564      9.52e-07  Convergence criterion met
 Total energy in the final basis set =    -1038.3041563564

             Standard Nuclear Orientation (Angstroms)
    I     Atom           X                Y                Z
 ----------------------------------------------------------------
    1      Cl      0.1617018983    -2.5783210397    -1.7730259605
    2      Cl     -1.0289262407     1.7995931115     0.2370724001
    3      C      -0.2983221322     1.6041664488     2.8490166576
    4      C      -0.3726466262     1.0135100092     1.6640130014
    5      C      -1.1782476045    -1.5283745361    -2.3797651974
    6      H      -0.6402181262     2.6187225637     3.0188510977
    7      H       0.1212301070     1.0581542882     3.6880380468
    8      H      -0.0391999609     0.0036943994     1.4578650523
    9      H      -2.1200265253    -2.0523038524    -2.2229906828
   10      H      -1.0155458703    -1.3460955888    -3.4408580247
   11      H      -1.1618999189    -0.5927458039    -1.8228183904
 ----------------------------------------------------------------

    9   -1038.3041571392      9.53e-07  Convergence criterion met
 Total energy in the final basis set =    -1038.3041571392

                    Orbital Energies (a.u.)
 --------------------------------------------------------------

 Alpha MOs
 -- Occupied --
*******-101.534 -10.256 -10.242 -10.205  -9.471  -9.450  -7.235
 -7.225  -7.225  -7.214  -7.204  -7.204  -0.874  -0.846  -0.754
 -0.677  -0.588  -0.490  -0.453  -0.448  -0.448  -0.409  -0.388
 -0.367  -0.318  -0.295  -0.295  -0.266

 Beta MOs
 -- Occupied --
*******-101.534 -10.256 -10.242 -10.205  -9.471  -9.450  -7.235
 -7.225  -7.225  -7.214  -7.204  -7.204  -0.874  -0.846  -0.754
 -0.677  -0.588  -0.490  -0.453  -0.448  -0.448  -0.409  -0.388
 -0.367  -0.318  -0.295  -0.295  -0.266

          Ground-State Mulliken Net Atomic Charges

     Atom                 Charge (a.u.)    Spin (a.u.)
  --------------------------------------------------------
      1 Cl                   -0.102347      -0.000000
      2 Cl                   -0.036419       0.000000
      3 C                    -0.196960       0.000000
      4 C                    -0.176329       0.000000
      5 C                    -0.405007       0.000000
      6 H                     0.129851       0.000000
      7 H                     0.125331       0.000000
      8 H                     0.160260      -0.000000
      9 H                     0.162499      -0.000000
     10 H                     0.163278      -0.000000
     11 H                     0.175844      -0.000000
  --------------------------------------------------------
  Sum of atomic charges =    -0.000000

                    Cartesian Multipole Moments
 -----------------------------------------------------------------
    Charge (ESU x 10^10)
                -0.0000
    Dipole Moment (Debye)
         X      -0.9390      Y       0.6805      Z       0.8214
       Tot       1.4211
    Quadrupole Moments (Debye-Ang)
        XX     -44.5574     XY       2.3970     YY     -49.9216
        XZ       4.3303     YZ       0.3051     ZZ     -36.4257

 Final energy is   -1038.30415713915
 **  OPTIMIZATION CONVERGED  **
 Total job time:  650.47s(wall), 7323.22s(cpu)
        *  Thank you very much for using Q-Chem.  Have a nice day.  *
