 Q-Chem 5.1, Q-Chem, Inc., Pleasanton, CA (2018)
 Q-Chem 5.1.1 for Intel X86 EM64T Linux

User input:
--------------------------------------------------------------

$comment
potential surface scanner
$end

$rem
JOBTYPE  PES_SCAN
UNRESTRICTED TRUE
SYM_IGNORE  TRUE
GEOM_OPT_MAX_CYCLES 400
SCF_MAX_CYCLES 400
METHOD   B3LYP
BASIS   6-31G**
PDB_PRINT 2
SCF_CONVERGENCE 6
THRESH 14
SCF_PRINT 1
$end
$molecule
0 1
Cl 0.161702 -2.578321 -1.773026
Cl -1.028926 1.799593 0.237072
C -0.298322 1.604166 2.849017
C -0.372647 1.013510 1.664013
C -1.178248 -1.528375 -2.379765
H -0.640218 2.618723 3.018851
H 0.121230 1.058154 3.688038
H -0.039200 0.003694 1.457865
H -2.120027 -2.052304 -2.222991
H -1.015546 -1.346096 -3.440858
H -1.161900 -0.592746 -1.822818
$end
$scan
stre 1 4 5.100000 5.101000 0.100000
$end
--------------------------------------------------------------

    9   -1038.3041571395      9.53e-07  Convergence criterion met
 Total energy in the final basis set =    -1038.3041571395
    9   -1038.3040426836      9.69e-07  Convergence criterion met
 Total energy in the final basis set =    -1038.3040426836
    9   -1038.3040757223      9.61e-07  Convergence criterion met
 Total energy in the final basis set =    -1038.3040757223
    9   -1038.3040939649      9.51e-07  Convergence criterion met
 Total energy in the final basis set =    -1038.3040939649
    9   -1038.3040950708      9.53e-07  Convergence criterion met
 Total energy in the final basis set =    -1038.3040950708
    9   -1038.3041022504      9.63e-07  Convergence criterion met
 Total energy in the final basis set =    -1038.3041022504
    9   -1038.3041052063      9.65e-07  Convergence criterion met
 Total energy in the final basis set =    -1038.3041052063
    9   -1038.3041080043      9.62e-07  Convergence criterion met
 Total energy in the final basis set =    -1038.3041080043

             Standard Nuclear Orientation (Angstroms)
    I     Atom           X                Y                Z
 ----------------------------------------------------------------
    1      Cl      0.1033757775    -2.6448179740    -1.8295979290
    2      Cl     -1.0088231331     1.6959727569     0.2443666586
    3      C      -0.3159295149     1.6369036521     2.8720979709
    4      C      -0.3196252656     1.0072400700     1.7050225029
    5      C      -1.1944082744    -1.5307993466    -2.4143931382
    6      H      -0.7411758845     2.6254095343     3.0044274216
    7      H       0.1294014021     1.1514006889     3.7345484178
    8      H       0.0967949850     0.0212588585     1.5363287386
    9      H      -2.1546993954    -2.0280414155    -2.2846839461
   10      H      -1.0131124343    -1.3190704927    -3.4672590049
   11      H      -1.1539002624    -0.6154583320    -1.8254596921
 ----------------------------------------------------------------

    9   -1038.3041086358      9.59e-07  Convergence criterion met
 Total energy in the final basis set =    -1038.3041086358

                    Orbital Energies (a.u.)
 --------------------------------------------------------------

 Alpha MOs
 -- Occupied --
*******-101.533 -10.256 -10.242 -10.205  -9.471  -9.449  -7.235
 -7.225  -7.225  -7.214  -7.203  -7.203  -0.874  -0.845  -0.754
 -0.676  -0.588  -0.490  -0.454  -0.447  -0.447  -0.408  -0.388
 -0.367  -0.318  -0.294  -0.294  -0.267

 Beta MOs
 -- Occupied --
*******-101.533 -10.256 -10.242 -10.205  -9.471  -9.449  -7.235
 -7.225  -7.225  -7.214  -7.203  -7.203  -0.874  -0.845  -0.754
 -0.676  -0.588  -0.490  -0.454  -0.447  -0.447  -0.408  -0.388
 -0.367  -0.318  -0.294  -0.294  -0.267

          Ground-State Mulliken Net Atomic Charges

     Atom                 Charge (a.u.)    Spin (a.u.)
  --------------------------------------------------------
      1 Cl                   -0.102848      -0.000000
      2 Cl                   -0.036079      -0.000000
      3 C                    -0.196973      -0.000000
      4 C                    -0.175306       0.000000
      5 C                    -0.404945       0.000000
      6 H                     0.129949      -0.000000
      7 H                     0.125303      -0.000000
      8 H                     0.159607      -0.000000
      9 H                     0.162291      -0.000000
     10 H                     0.162677      -0.000000
     11 H                     0.176324       0.000000
  --------------------------------------------------------
  Sum of atomic charges =    -0.000000

                    Cartesian Multipole Moments
 -----------------------------------------------------------------
    Charge (ESU x 10^10)
                -0.0000
    Dipole Moment (Debye)
         X      -0.8673      Y       0.8621      Z       0.8985
       Tot       1.5175
    Quadrupole Moments (Debye-Ang)
        XX     -44.3459     XY       1.9957     YY     -50.1733
        XZ       4.3068     YZ       0.1501     ZZ     -36.3746

 Final energy is   -1038.30410863576
 **  OPTIMIZATION CONVERGED  **
 Total job time:  26.98s(wall), 296.97s(cpu)
        *  Thank you very much for using Q-Chem.  Have a nice day.  *
