 Q-Chem 5.1, Q-Chem, Inc., Pleasanton, CA (2018)
 Q-Chem 5.1.1 for Intel X86 EM64T Linux

User input:
--------------------------------------------------------------

$comment
potential surface scanner
$end

$rem
JOBTYPE  PES_SCAN
UNRESTRICTED TRUE
SYM_IGNORE  TRUE
GEOM_OPT_MAX_CYCLES 400
SCF_MAX_CYCLES 400
METHOD   B3LYP
BASIS   6-31G**
PDB_PRINT 2
SCF_CONVERGENCE 6
THRESH 14
SCF_PRINT 1
$end
$molecule
0 1
Cl 0.262977 -2.785717 -1.608201
Cl 0.959549 1.946309 -0.053606
C -0.996164 0.208675 0.821622
C 0.334195 0.773480 0.977732
C -1.497274 -0.178719 -0.587195
H -1.684015 1.010745 1.167810
H -1.103088 -0.618286 1.529273
H 0.997507 0.501173 1.792788
H -0.946914 -1.088883 -0.909721
H -2.568464 -0.387471 -0.539609
H -1.330411 0.618696 -1.315494
$end
$scan
stre 1 4 4.500000 4.501000 0.100000
$end
--------------------------------------------------------------

   18   -1038.2196042286      3.44e-07  Convergence criterion met
 Total energy in the final basis set =    -1038.2196042286
   16   -1038.2186157643      4.88e-07  Convergence criterion met
 Total energy in the final basis set =    -1038.2186157643
   16   -1038.2186517594      4.72e-07  Convergence criterion met
 Total energy in the final basis set =    -1038.2186517594
   15   -1038.2186980538      9.17e-07  Convergence criterion met
 Total energy in the final basis set =    -1038.2186980538
   15   -1038.2187108531      9.42e-07  Convergence criterion met
 Total energy in the final basis set =    -1038.2187108531
   15   -1038.2187407549      9.60e-07  Convergence criterion met
 Total energy in the final basis set =    -1038.2187407549
   16   -1038.2187541087      4.46e-07  Convergence criterion met
 Total energy in the final basis set =    -1038.2187541087
   16   -1038.2187668823      6.92e-07  Convergence criterion met
   15   -1038.2187798430      7.53e-07  Convergence criterion met
 Total energy in the final basis set =    -1038.2187798430
   15   -1038.2187828045      6.30e-07  Convergence criterion met
 Total energy in the final basis set =    -1038.2187828045
   15   -1038.2187848791      5.64e-07  Convergence criterion met
 Total energy in the final basis set =    -1038.2187848791
   15   -1038.2187873638      5.31e-07  Convergence criterion met
 Total energy in the final basis set =    -1038.2187873638
   15   -1038.2187901556      5.32e-07  Convergence criterion met
 Total energy in the final basis set =    -1038.2187901556
   15   -1038.2187922550      5.77e-07  Convergence criterion met
 Total energy in the final basis set =    -1038.2187922550

             Standard Nuclear Orientation (Angstroms)
    I     Atom           X                Y                Z
 ----------------------------------------------------------------
    1      Cl      0.1486232842    -2.7813542193    -1.7112584737
    2      Cl      0.9729528442     1.9349716911    -0.0633597366
    3      C      -0.9843806736     0.2070291990     0.8259079548
    4      C       0.3273164438     0.8038974802     1.0024176894
    5      C      -1.4681105779    -0.2005772393    -0.5804694500
    6      H      -1.6908141304     1.0032326296     1.1509473307
    7      H      -1.0919777461    -0.6073716640     1.5484294986
    8      H       0.9614224498     0.5864767725     1.8561551573
    9      H      -0.9069953174    -1.1116966394    -0.8947618903
   10      H      -2.5366212936    -0.4235310632    -0.5409104649
   11      H      -1.3035172829     0.5889250528    -1.3176986152
 ----------------------------------------------------------------

   15   -1038.2187930330      6.22e-07  Convergence criterion met
 Total energy in the final basis set =    -1038.2187930330

                    Orbital Energies (a.u.)
 --------------------------------------------------------------

 Alpha MOs
 -- Occupied --
*******-101.440 -10.353 -10.263 -10.208  -9.555  -9.353  -7.318
 -7.310  -7.307  -7.115  -7.109  -7.108  -0.965  -0.838  -0.723
 -0.685  -0.634  -0.553  -0.513  -0.490  -0.437  -0.416  -0.401
 -0.388  -0.377  -0.221  -0.220  -0.219

 Beta MOs
 -- Occupied --
*******-101.440 -10.353 -10.263 -10.208  -9.555  -9.353  -7.318
 -7.310  -7.307  -7.115  -7.109  -7.108  -0.965  -0.838  -0.723
 -0.685  -0.634  -0.553  -0.513  -0.490  -0.437  -0.416  -0.401
 -0.388  -0.377  -0.221  -0.220  -0.219

          Ground-State Mulliken Net Atomic Charges

     Atom                 Charge (a.u.)    Spin (a.u.)
  --------------------------------------------------------
      1 Cl                   -0.508051      -0.000000
      2 Cl                    0.171097       0.000000
      3 C                    -0.237534      -0.000000
      4 C                    -0.121129       0.000000
      5 C                    -0.308728      -0.000000
      6 H                     0.187981       0.000000
      7 H                     0.173821       0.000000
      8 H                     0.207772      -0.000000
      9 H                     0.175973       0.000000
     10 H                     0.129059       0.000000
     11 H                     0.129738      -0.000000
  --------------------------------------------------------
  Sum of atomic charges =    -0.000000

                    Cartesian Multipole Moments
 -----------------------------------------------------------------
    Charge (ESU x 10^10)
                 0.0000
    Dipole Moment (Debye)
         X      -1.1380      Y       7.9373      Z       6.1087
       Tot      10.0803
    Quadrupole Moments (Debye-Ang)
        XX     -41.5663     XY       1.7154     YY     -61.1930
        XZ       0.6484     YZ     -10.8754     ZZ     -48.1567

 Final energy is   -1038.21879303298
 **  OPTIMIZATION CONVERGED  **
 Total job time:  73.07s(wall), 834.84s(cpu)
        *  Thank you very much for using Q-Chem.  Have a nice day.  *
