 Q-Chem 5.1, Q-Chem, Inc., Pleasanton, CA (2018)
 Q-Chem 5.1.1 for Intel X86 EM64T Linux

User input:
--------------------------------------------------------------

$comment
potential surface scanner
$end

$rem
JOBTYPE  PES_SCAN
UNRESTRICTED TRUE
SYM_IGNORE  TRUE
GEOM_OPT_MAX_CYCLES 400
SCF_MAX_CYCLES 400
METHOD   B3LYP
BASIS   6-31G**
PDB_PRINT 2
SCF_CONVERGENCE 6
THRESH 14
SCF_PRINT 1
$end
$molecule
0 3
Cl -0.774280 -2.325404 -0.614529
Cl -0.287158 2.347110 0.126745
C -0.804302 0.451862 2.090417
C 0.177402 1.309505 1.476342
C -1.095128 -1.084551 -1.889435
H -1.505183 0.833576 2.833478
H -0.952066 -0.567434 1.738293
H 1.131578 1.590154 1.907289
H -1.145199 -0.106764 -1.412917
H -2.040045 -1.329688 -2.372175
H -0.277722 -1.118361 -2.608105
$end
$scan
stre 1 4 4.200000 4.201000 0.100000
$end
--------------------------------------------------------------

   10   -1038.2075836662      9.17e-07  Convergence criterion met
 Total energy in the final basis set =    -1038.2075836662
   10   -1038.2068391164      8.93e-07  Convergence criterion met
 Total energy in the final basis set =    -1038.2068391164
   10   -1038.2072701723      9.05e-07  Convergence criterion met
 Total energy in the final basis set =    -1038.2072701723
   10   -1038.2074424571      9.17e-07  Convergence criterion met
 Total energy in the final basis set =    -1038.2074424571
   10   -1038.2074578309      9.18e-07  Convergence criterion met
 Total energy in the final basis set =    -1038.2074578309
   10   -1038.2074660741      9.17e-07  Convergence criterion met
 Total energy in the final basis set =    -1038.2074660741
   10   -1038.2074682517      9.17e-07  Convergence criterion met
 Total energy in the final basis set =    -1038.2074682517
   10   -1038.2074707808      9.16e-07  Convergence criterion met
   10   -1038.2074774179      9.16e-07  Convergence criterion met
 Total energy in the final basis set =    -1038.2074774179
   10   -1038.2074821103      9.17e-07  Convergence criterion met
 Total energy in the final basis set =    -1038.2074821103
   10   -1038.2074871863      9.18e-07  Convergence criterion met
 Total energy in the final basis set =    -1038.2074871863
   10   -1038.2074915383      9.20e-07  Convergence criterion met
 Total energy in the final basis set =    -1038.2074915383
   10   -1038.2074945545      9.20e-07  Convergence criterion met
 Total energy in the final basis set =    -1038.2074945545
   10   -1038.2074961408      9.19e-07  Convergence criterion met
 Total energy in the final basis set =    -1038.2074961408

             Standard Nuclear Orientation (Angstroms)
    I     Atom           X                Y                Z
 ----------------------------------------------------------------
    1      Cl     -0.7038662453    -2.2858761859    -0.6082587746
    2      Cl     -0.3098260262     2.3285950027     0.1225042434
    3      C      -0.8274062871     0.4631965124     2.1145301268
    4      C       0.1661002844     1.2693996949     1.4516383045
    5      C      -1.0821334558    -1.0735322272    -1.8953513529
    6      H      -1.4719361222     0.8801013010     2.8889584948
    7      H      -1.0375965969    -0.5501364817     1.7775718649
    8      H       1.1500467852     1.5067577504     1.8396392359
    9      H      -1.1725435469    -0.0945027335    -1.4276546152
   10      H      -2.0170546659    -1.3643830052    -2.3721451855
   11      H      -0.2658871232    -1.0796146280    -2.6160293422
 ----------------------------------------------------------------

   10   -1038.2074969640      9.18e-07  Convergence criterion met
 Total energy in the final basis set =    -1038.2074969640

                    Orbital Energies (a.u.)
 --------------------------------------------------------------

 Alpha MOs
 -- Occupied --
*******-101.536 -10.255 -10.243 -10.219  -9.470  -9.453  -7.234
 -7.226  -7.224  -7.217  -7.207  -7.207  -0.872  -0.848  -0.750
 -0.678  -0.603  -0.465  -0.456  -0.449  -0.446  -0.439  -0.411
 -0.356  -0.316  -0.298  -0.297  -0.237  -0.208

 Beta MOs
 -- Occupied --
*******-101.536 -10.243 -10.242 -10.206  -9.469  -9.453  -7.232
 -7.223  -7.223  -7.217  -7.207  -7.207  -0.855  -0.848  -0.710
 -0.678  -0.571  -0.450  -0.449  -0.445  -0.428  -0.422  -0.410
 -0.334  -0.311  -0.297  -0.297

          Ground-State Mulliken Net Atomic Charges

     Atom                 Charge (a.u.)    Spin (a.u.)
  --------------------------------------------------------
      1 Cl                   -0.103106       0.000076
      2 Cl                   -0.036960       0.136395
      3 C                    -0.203165       0.970953
      4 C                    -0.205247       0.907775
      5 C                    -0.403612       0.000491
      6 H                     0.130039       0.007124
      7 H                     0.155237      -0.004773
      8 H                     0.160665      -0.017958
      9 H                     0.179392      -0.000115
     10 H                     0.162099       0.000003
     11 H                     0.164657       0.000029
  --------------------------------------------------------
  Sum of atomic charges =     0.000000

                    Cartesian Multipole Moments
 -----------------------------------------------------------------
    Charge (ESU x 10^10)
                 0.0000
    Dipole Moment (Debye)
         X      -0.3179      Y       0.5021      Z      -0.1013
       Tot       0.6028
    Quadrupole Moments (Debye-Ang)
        XX     -43.1724     XY       0.5419     YY     -51.7870
        XZ       1.6037     YZ       1.4330     ZZ     -37.5225

 Final energy is   -1038.20749696397
 **  OPTIMIZATION CONVERGED  **
 Total job time:  52.24s(wall), 593.41s(cpu)
        *  Thank you very much for using Q-Chem.  Have a nice day.  *
