 Q-Chem 5.1, Q-Chem, Inc., Pleasanton, CA (2018)
 Q-Chem 5.1.1 for Intel X86 EM64T Linux

User input:
--------------------------------------------------------------

$comment
potential surface scanner
$end

$rem
JOBTYPE  PES_SCAN
UNRESTRICTED TRUE
SYM_IGNORE  TRUE
GEOM_OPT_MAX_CYCLES 400
SCF_MAX_CYCLES 400
METHOD   B3LYP
BASIS   6-31G**
PDB_PRINT 2
SCF_CONVERGENCE 6
THRESH 14
SCF_PRINT 1
$end
$molecule
0 1
Cl 1.205296 -2.179793 -0.492819
Cl 1.067117 1.553684 -0.311171
C -1.043213 0.097218 0.731164
C 0.411263 0.350931 0.679762
C -1.775150 0.037009 -0.614460
H -1.459503 0.917622 1.347892
H -1.181795 -0.826297 1.299805
H 1.079710 0.003039 1.458567
H -1.360751 -0.780178 -1.209994
H -2.838474 -0.145040 -0.440983
H -1.676601 0.971805 -1.172368
$end
$scan
stre 1 4 3.000000 3.001000 0.100000
$end
--------------------------------------------------------------

   11   -1038.2678738629      7.40e-07  Convergence criterion met
 Total energy in the final basis set =    -1038.2678738629
   11   -1038.2620987444      7.69e-07  Convergence criterion met
 Total energy in the final basis set =    -1038.2620987444
   11   -1038.2620816611      7.72e-07  Convergence criterion met
 Total energy in the final basis set =    -1038.2620816611
   11   -1038.2622381147      7.60e-07  Convergence criterion met
 Total energy in the final basis set =    -1038.2622381147
   11   -1038.2622441673      7.61e-07  Convergence criterion met
 Total energy in the final basis set =    -1038.2622441673
   11   -1038.2622544151      7.68e-07  Convergence criterion met
 Total energy in the final basis set =    -1038.2622544151
   11   -1038.2622570380      7.69e-07  Convergence criterion met
 Total energy in the final basis set =    -1038.2622570380
   11   -1038.2622620720      7.67e-07  Convergence criterion met
 Total energy in the final basis set =    -1038.2622620720
   11   -1038.2622639405      7.64e-07  Convergence criterion met
 Total energy in the final basis set =    -1038.2622639405
   11   -1038.2622652710      7.61e-07  Convergence criterion met
 Total energy in the final basis set =    -1038.2622652710

             Standard Nuclear Orientation (Angstroms)
    I     Atom           X                Y                Z
 ----------------------------------------------------------------
    1      Cl      1.1632105403    -2.2392564946    -0.5515054282
    2      Cl      1.0546443048     1.5969195067    -0.2790299249
    3      C      -1.0450928718     0.1128120886     0.7410798502
    4      C       0.4054239661     0.3816843030     0.6960631688
    5      C      -1.7618915406     0.0270940824    -0.6135083521
    6      H      -1.4803370520     0.9346189366     1.3425333641
    7      H      -1.1776434384    -0.8079486377     1.3152960215
    8      H       1.0888274951    -0.0015873090     1.4452233462
    9      H      -1.3291645708    -0.7958854867    -1.1875338337
   10      H      -2.8252359465    -0.1626884168    -0.4490793510
   11      H      -1.6648418862     0.9542374274    -1.1841438608
 ----------------------------------------------------------------

   11   -1038.2622661048      7.61e-07  Convergence criterion met
 Total energy in the final basis set =    -1038.2622661048

                    Orbital Energies (a.u.)
 --------------------------------------------------------------

 Alpha MOs
 -- Occupied --
*******-101.464 -10.357 -10.249 -10.206  -9.539  -9.376  -7.303
 -7.295  -7.292  -7.139  -7.132  -7.132  -0.951  -0.825  -0.715
 -0.703  -0.625  -0.538  -0.502  -0.480  -0.425  -0.408  -0.396
 -0.383  -0.365  -0.254  -0.239  -0.238

 Beta MOs
 -- Occupied --
*******-101.464 -10.357 -10.249 -10.206  -9.539  -9.376  -7.303
 -7.295  -7.292  -7.139  -7.132  -7.132  -0.951  -0.825  -0.715
 -0.703  -0.625  -0.538  -0.502  -0.480  -0.425  -0.408  -0.396
 -0.383  -0.365  -0.254  -0.239  -0.238

          Ground-State Mulliken Net Atomic Charges

     Atom                 Charge (a.u.)    Spin (a.u.)
  --------------------------------------------------------
      1 Cl                   -0.509503      -0.000000
      2 Cl                    0.158736       0.000000
      3 C                    -0.213164      -0.000000
      4 C                    -0.092573      -0.000000
      5 C                    -0.330807       0.000000
      6 H                     0.152512      -0.000000
      7 H                     0.176984      -0.000000
      8 H                     0.228093       0.000000
      9 H                     0.181684       0.000000
     10 H                     0.124074      -0.000000
     11 H                     0.123963      -0.000000
  --------------------------------------------------------
  Sum of atomic charges =    -0.000000

                    Cartesian Multipole Moments
 -----------------------------------------------------------------
    Charge (ESU x 10^10)
                -0.0000
    Dipole Moment (Debye)
         X      -2.9800      Y       5.6589      Z       2.8871
       Tot       7.0170
    Quadrupole Moments (Debye-Ang)
        XX     -45.0082     XY       6.6215     YY     -54.3499
        XZ       1.6858     YZ      -2.7402     ZZ     -42.6417

 Final energy is   -1038.26226610480
 **  OPTIMIZATION CONVERGED  **
 Total job time:  44.63s(wall), 479.98s(cpu)
        *  Thank you very much for using Q-Chem.  Have a nice day.  *
