 Q-Chem 5.1, Q-Chem, Inc., Pleasanton, CA (2018)
 Q-Chem 5.1.1 for Intel X86 EM64T Linux

User input:
--------------------------------------------------------------

$comment
potential surface scanner
$end

$rem
JOBTYPE  PES_SCAN
UNRESTRICTED TRUE
SYM_IGNORE  TRUE
GEOM_OPT_MAX_CYCLES 400
SCF_MAX_CYCLES 400
METHOD   B3LYP
BASIS   6-31G**
PDB_PRINT 2
SCF_CONVERGENCE 6
THRESH 14
SCF_PRINT 1
$end
$molecule
0 1
Cl 0.948427 -2.622798 -0.845342
Cl 0.962915 1.872708 -0.062165
C -1.048225 0.189603 0.790168
C 0.376740 0.539821 0.776697
C -1.683930 -0.026300 -0.608171
H -1.583309 1.018349 1.288930
H -1.158938 -0.710485 1.399114
H 1.129347 -0.010761 1.333075
H -1.175518 -0.866942 -1.090542
H -2.744995 -0.252105 -0.478040
H -1.594617 0.868907 -1.228327
$end
$scan
stre 1 4 3.700000 3.701000 0.100000
$end
--------------------------------------------------------------

   12   -1038.2365062577      8.88e-07  Convergence criterion met
 Total energy in the final basis set =    -1038.2365062577
   15   -1038.2333562272      3.32e-07  Convergence criterion met
 Total energy in the final basis set =    -1038.2333562272
   15   -1038.2333269345      3.48e-07  Convergence criterion met
 Total energy in the final basis set =    -1038.2333269345
   15   -1038.2333439158      3.55e-07  Convergence criterion met
 Total energy in the final basis set =    -1038.2333439158
   15   -1038.2333464651      3.56e-07  Convergence criterion met
 Total energy in the final basis set =    -1038.2333464651
   15   -1038.2333556752      3.58e-07  Convergence criterion met
 Total energy in the final basis set =    -1038.2333556752
   15   -1038.2333584123      3.54e-07  Convergence criterion met
 Total energy in the final basis set =    -1038.2333584123
   15   -1038.2333617127      3.44e-07  Convergence criterion met
   15   -1038.2333937509      2.77e-07  Convergence criterion met
 Total energy in the final basis set =    -1038.2333937509
   15   -1038.2333951708      2.87e-07  Convergence criterion met
 Total energy in the final basis set =    -1038.2333951708
   15   -1038.2333973201      3.06e-07  Convergence criterion met
 Total energy in the final basis set =    -1038.2333973201
   15   -1038.2334003008      3.43e-07  Convergence criterion met
 Total energy in the final basis set =    -1038.2334003008
   15   -1038.2334034430      3.97e-07  Convergence criterion met
 Total energy in the final basis set =    -1038.2334034430
   15   -1038.2334055812      4.48e-07  Convergence criterion met
 Total energy in the final basis set =    -1038.2334055812

             Standard Nuclear Orientation (Angstroms)
    I     Atom           X                Y                Z
 ----------------------------------------------------------------
    1      Cl      0.8998180237    -2.6320224884    -0.9958754067
    2      Cl      0.9581867092     1.9393622711     0.0379503262
    3      C      -1.0582090931     0.2308805715     0.8116432757
    4      C       0.3687089768     0.5608046568     0.7968256183
    5      C      -1.6599319348    -0.0693960620    -0.5955488988
    6      H      -1.6035044954     1.0903078529     1.2357095376
    7      H      -1.1934830105    -0.6370251133     1.4614179286
    8      H       1.1276113551    -0.0533913676     1.2727424611
    9      H      -1.1401810383    -0.9387893044    -1.0106028967
   10      H      -2.7258186968    -0.2788403105    -0.4759878807
   11      H      -1.5452997959     0.7881062937    -1.2628770646
 ----------------------------------------------------------------

   15   -1038.2334064485      4.69e-07  Convergence criterion met
 Total energy in the final basis set =    -1038.2334064485

                    Orbital Energies (a.u.)
 --------------------------------------------------------------

 Alpha MOs
 -- Occupied --
*******-101.448 -10.362 -10.258 -10.214  -9.557  -9.360  -7.321
 -7.313  -7.310  -7.122  -7.116  -7.115  -0.968  -0.834  -0.719
 -0.688  -0.638  -0.553  -0.514  -0.478  -0.447  -0.414  -0.404
 -0.389  -0.379  -0.231  -0.225  -0.224

 Beta MOs
 -- Occupied --
*******-101.448 -10.362 -10.258 -10.214  -9.557  -9.360  -7.321
 -7.313  -7.310  -7.122  -7.116  -7.115  -0.968  -0.834  -0.719
 -0.688  -0.638  -0.553  -0.514  -0.478  -0.447  -0.414  -0.404
 -0.389  -0.379  -0.231  -0.225  -0.224

          Ground-State Mulliken Net Atomic Charges

     Atom                 Charge (a.u.)    Spin (a.u.)
  --------------------------------------------------------
      1 Cl                   -0.544502      -0.000000
      2 Cl                    0.176758       0.000000
      3 C                    -0.230266      -0.000000
      4 C                    -0.101732       0.000000
      5 C                    -0.325964       0.000000
      6 H                     0.159297       0.000000
      7 H                     0.172686       0.000000
      8 H                     0.238709      -0.000000
      9 H                     0.199347       0.000000
     10 H                     0.130114       0.000000
     11 H                     0.125553      -0.000000
  --------------------------------------------------------
  Sum of atomic charges =    -0.000000

                    Cartesian Multipole Moments
 -----------------------------------------------------------------
    Charge (ESU x 10^10)
                -0.0000
    Dipole Moment (Debye)
         X      -2.6231      Y       7.3813      Z       4.0817
       Tot       8.8332
    Quadrupole Moments (Debye-Ang)
        XX     -43.4743     XY       6.6972     YY     -58.9829
        XZ       2.6091     YZ      -6.2151     ZZ     -44.8586

 Final energy is   -1038.23340644851
 **  OPTIMIZATION CONVERGED  **
 Total job time:  116.40s(wall), 1308.26s(cpu)
        *  Thank you very much for using Q-Chem.  Have a nice day.  *
