 Q-Chem 5.1, Q-Chem, Inc., Pleasanton, CA (2018)
 Q-Chem 5.1.1 for Intel X86 EM64T Linux

User input:
--------------------------------------------------------------

$comment
potential surface scanner
$end

$rem
JOBTYPE  PES_SCAN
UNRESTRICTED TRUE
SYM_IGNORE  TRUE
GEOM_OPT_MAX_CYCLES 400
SCF_MAX_CYCLES 400
METHOD   B3LYP
BASIS   6-31G**
PDB_PRINT 2
SCF_CONVERGENCE 6
THRESH 14
SCF_PRINT 1
$end
$molecule
0 3
Cl -1.367639 -2.774018 -0.983144
Cl 0.085552 2.432417 0.135632
C -0.559483 0.444196 1.958836
C 0.205507 1.639151 1.701842
C -1.237721 -1.207846 -1.875617
H -1.604103 0.492320 2.267006
H -0.150203 -0.545071 1.759399
H 0.695201 2.251447 2.450042
H -1.013058 -0.418393 -1.159493
H -2.188885 -1.016831 -2.370483
H -0.437265 -1.297371 -2.608615
$end
$scan
stre 1 4 5.300000 5.301000 0.100000
$end
--------------------------------------------------------------

   10   -1038.2073217291      9.06e-07  Convergence criterion met
 Total energy in the final basis set =    -1038.2073217291
   10   -1038.2071715713      9.02e-07  Convergence criterion met
 Total energy in the final basis set =    -1038.2071715713
   10   -1038.2072438413      9.03e-07  Convergence criterion met
 Total energy in the final basis set =    -1038.2072438413
   10   -1038.2073979423      9.09e-07  Convergence criterion met
 Total energy in the final basis set =    -1038.2073979423
   10   -1038.2074049507      9.09e-07  Convergence criterion met
 Total energy in the final basis set =    -1038.2074049507
   10   -1038.2074112603      9.08e-07  Convergence criterion met
 Total energy in the final basis set =    -1038.2074112603
   10   -1038.2074123241      9.07e-07  Convergence criterion met
 Total energy in the final basis set =    -1038.2074123241

             Standard Nuclear Orientation (Angstroms)
    I     Atom           X                Y                Z
 ----------------------------------------------------------------
    1      Cl     -1.3564571447    -2.7311646649    -0.9186919393
    2      Cl      0.0740942876     2.4271740833     0.1207274515
    3      C      -0.5663340036     0.4219942226     1.9273017678
    4      C       0.1987223379     1.6187912213     1.6792498119
    5      C      -1.2284199637    -1.1854176774    -1.8472667885
    6      H      -1.6111889537     0.4682512623     2.2348630848
    7      H      -0.1578265406    -0.5658532950     1.7191320004
    8      H       0.6879026506     2.2253805562     2.4324230620
    9      H      -0.9997632208    -0.3814300854    -1.1496326283
   10      H      -2.1817921803    -1.0047546623    -2.3416134851
   11      H      -0.4310342687    -1.2929699607    -2.5810873372
 ----------------------------------------------------------------

   10   -1038.2074131645      9.06e-07  Convergence criterion met
 Total energy in the final basis set =    -1038.2074131645

                    Orbital Energies (a.u.)
 --------------------------------------------------------------

 Alpha MOs
 -- Occupied --
*******-101.535 -10.258 -10.243 -10.225  -9.473  -9.451  -7.237
 -7.229  -7.227  -7.215  -7.205  -7.205  -0.877  -0.846  -0.754
 -0.678  -0.608  -0.470  -0.459  -0.449  -0.448  -0.443  -0.410
 -0.359  -0.320  -0.296  -0.296  -0.243  -0.211

 Beta MOs
 -- Occupied --
*******-101.535 -10.245 -10.243 -10.213  -9.472  -9.451  -7.235
 -7.226  -7.226  -7.215  -7.205  -7.205  -0.859  -0.846  -0.715
 -0.678  -0.575  -0.451  -0.449  -0.448  -0.434  -0.426  -0.410
 -0.336  -0.315  -0.296  -0.296

          Ground-State Mulliken Net Atomic Charges

     Atom                 Charge (a.u.)    Spin (a.u.)
  --------------------------------------------------------
      1 Cl                   -0.103596       0.000259
      2 Cl                   -0.026947       0.138016
      3 C                    -0.203286       0.969154
      4 C                    -0.209335       0.904673
      5 C                    -0.404305       0.002377
      6 H                     0.136127       0.006326
      7 H                     0.149130      -0.004348
      8 H                     0.161691      -0.017975
      9 H                     0.173266       0.001376
     10 H                     0.163127       0.000041
     11 H                     0.164128       0.000101
  --------------------------------------------------------
  Sum of atomic charges =    -0.000000

                    Cartesian Multipole Moments
 -----------------------------------------------------------------
    Charge (ESU x 10^10)
                -0.0000
    Dipole Moment (Debye)
         X      -0.0431      Y       1.0585      Z       0.4022
       Tot       1.1331
    Quadrupole Moments (Debye-Ang)
        XX     -44.9807     XY      -2.2854     YY     -53.0975
        XZ       0.8430     YZ       0.9111     ZZ     -38.2424

 Final energy is   -1038.20741316448
 **  OPTIMIZATION CONVERGED  **
 Total job time:  26.35s(wall), 295.33s(cpu)
        *  Thank you very much for using Q-Chem.  Have a nice day.  *
