 Q-Chem 5.1, Q-Chem, Inc., Pleasanton, CA (2018)
 Q-Chem 5.1.1 for Intel X86 EM64T Linux

User input:
--------------------------------------------------------------

$comment
potential surface scanner
$end

$rem
JOBTYPE  PES_SCAN
UNRESTRICTED TRUE
SYM_IGNORE  TRUE
GEOM_OPT_MAX_CYCLES 400
SCF_MAX_CYCLES 400
METHOD   B3LYP
BASIS   6-31G**
PDB_PRINT 2
SCF_CONVERGENCE 6
THRESH 14
SCF_PRINT 1
$end
$molecule
0 3
Cl -0.379712 -1.964081 -0.559236
Cl -0.544815 2.276190 0.194707
C -0.913919 0.568457 2.349944
C 0.038737 1.213826 1.481795
C -0.960813 -1.041654 -2.001043
H -1.218667 1.026279 3.289062
H -1.432917 -0.337719 2.038855
H 1.049203 0.865692 1.299665
H -1.057768 0.005382 -1.718198
H -1.923405 -1.452243 -2.302283
H -0.228028 -1.160120 -2.797862
$end
$scan
stre 1 4 3.700000 3.701000 0.100000
$end
--------------------------------------------------------------

   10   -1038.2073344571      9.27e-07  Convergence criterion met
 Total energy in the final basis set =    -1038.2073344571
   10   -1038.2070710616      9.19e-07  Convergence criterion met
 Total energy in the final basis set =    -1038.2070710616
   10   -1038.2071850794      9.23e-07  Convergence criterion met
 Total energy in the final basis set =    -1038.2071850794
   10   -1038.2072226638      9.26e-07  Convergence criterion met
 Total energy in the final basis set =    -1038.2072226638
   10   -1038.2072244513      9.25e-07  Convergence criterion met
 Total energy in the final basis set =    -1038.2072244513
   10   -1038.2072278011      9.24e-07  Convergence criterion met
 Total energy in the final basis set =    -1038.2072278011
   10   -1038.2072299762      9.24e-07  Convergence criterion met
 Total energy in the final basis set =    -1038.2072299762
   10   -1038.2072332561      9.24e-07  Convergence criterion met
 Total energy in the final basis set =    -1038.2072332561
   10   -1038.2072365371      9.24e-07  Convergence criterion met
 Total energy in the final basis set =    -1038.2072365371
   10   -1038.2072409537      9.26e-07  Convergence criterion met
 Total energy in the final basis set =    -1038.2072409537
   10   -1038.2072452296      9.28e-07  Convergence criterion met
 Total energy in the final basis set =    -1038.2072452296
   10   -1038.2072482690      9.28e-07  Convergence criterion met
 Total energy in the final basis set =    -1038.2072482690
   10   -1038.2072494584      9.28e-07  Convergence criterion met
 Total energy in the final basis set =    -1038.2072494584

             Standard Nuclear Orientation (Angstroms)
    I     Atom           X                Y                Z
 ----------------------------------------------------------------
    1      Cl     -0.3291655522    -1.9131767863    -0.5599732224
    2      Cl     -0.5840592751     2.2571203349     0.2001651350
    3      C      -0.9198262417     0.5905454601     2.3917705149
    4      C       0.0154304914     1.1680777162     1.4592161680
    5      C      -0.9358578773    -1.0312249787    -2.0163406565
    6      H      -1.1314471940     1.0697398844     3.3456299725
    7      H      -1.5154722702    -0.2818655745     2.1241026789
    8      H       0.9776849199     0.7390856206     1.2034719458
    9      H      -1.0667303257     0.0163109949    -1.7493591475
   10      H      -1.8844812268    -1.4762661430    -2.3130426635
   11      H      -0.1981794484    -1.1383375287    -2.8102347253
 ----------------------------------------------------------------

   10   -1038.2072501125      9.27e-07  Convergence criterion met
 Total energy in the final basis set =    -1038.2072501125

                    Orbital Energies (a.u.)
 --------------------------------------------------------------

 Alpha MOs
 -- Occupied --
*******-101.538 -10.252 -10.244 -10.218  -9.467  -9.454  -7.230
 -7.222  -7.220  -7.218  -7.208  -7.208  -0.869  -0.849  -0.748
 -0.680  -0.600  -0.464  -0.453  -0.451  -0.448  -0.436  -0.412
 -0.352  -0.313  -0.299  -0.299  -0.236  -0.207

 Beta MOs
 -- Occupied --
*******-101.538 -10.244 -10.239 -10.205  -9.465  -9.454  -7.228
 -7.219  -7.219  -7.218  -7.208  -7.208  -0.852  -0.849  -0.709
 -0.679  -0.568  -0.452  -0.451  -0.442  -0.428  -0.418  -0.412
 -0.330  -0.308  -0.299  -0.298

          Ground-State Mulliken Net Atomic Charges

     Atom                 Charge (a.u.)    Spin (a.u.)
  --------------------------------------------------------
      1 Cl                   -0.104301       0.001743
      2 Cl                   -0.044417       0.137964
      3 C                    -0.197616       0.973773
      4 C                    -0.196509       0.901619
      5 C                    -0.403791       0.000454
      6 H                     0.133447      -0.008861
      7 H                     0.142094       0.008754
      8 H                     0.165654      -0.015399
      9 H                     0.179143      -0.000140
     10 H                     0.162762       0.000068
     11 H                     0.163535       0.000025
  --------------------------------------------------------
  Sum of atomic charges =     0.000000

                    Cartesian Multipole Moments
 -----------------------------------------------------------------
    Charge (ESU x 10^10)
                -0.0000
    Dipole Moment (Debye)
         X      -0.5079      Y      -0.2688      Z      -0.5754
       Tot       0.8132
    Quadrupole Moments (Debye-Ang)
        XX     -43.2660     XY       1.1706     YY     -51.5070
        XZ       1.0577     YZ       0.9314     ZZ     -36.9856

 Final energy is   -1038.20725011246
 **  OPTIMIZATION CONVERGED  **
 Total job time:  45.62s(wall), 519.72s(cpu)
        *  Thank you very much for using Q-Chem.  Have a nice day.  *
