 Q-Chem 5.1, Q-Chem, Inc., Pleasanton, CA (2018)
 Q-Chem 5.1.1 for Intel X86 EM64T Linux

User input:
--------------------------------------------------------------

$comment
potential surface scanner
$end

$rem
JOBTYPE  PES_SCAN
UNRESTRICTED TRUE
SYM_IGNORE  TRUE
GEOM_OPT_MAX_CYCLES 400
SCF_MAX_CYCLES 400
METHOD   B3LYP
BASIS   6-31G**
PDB_PRINT 2
SCF_CONVERGENCE 6
THRESH 14
SCF_PRINT 1
$end
$molecule
0 1
Cl 1.163211 -2.239256 -0.551505
Cl 1.054644 1.596920 -0.279030
C -1.045093 0.112812 0.741080
C 0.405424 0.381684 0.696063
C -1.761892 0.027094 -0.613508
H -1.480337 0.934619 1.342533
H -1.177643 -0.807949 1.315296
H 1.088827 -0.001587 1.445223
H -1.329165 -0.795885 -1.187534
H -2.825236 -0.162688 -0.449079
H -1.664842 0.954237 -1.184144
$end
$scan
stre 1 4 3.100000 3.101000 0.100000
$end
--------------------------------------------------------------

   11   -1038.2622661500      7.61e-07  Convergence criterion met
 Total energy in the final basis set =    -1038.2622661500
   11   -1038.2568890327      8.17e-07  Convergence criterion met
 Total energy in the final basis set =    -1038.2568890327
   11   -1038.2568842036      8.21e-07  Convergence criterion met
 Total energy in the final basis set =    -1038.2568842036
   11   -1038.2570429928      8.35e-07  Convergence criterion met
 Total energy in the final basis set =    -1038.2570429928
   11   -1038.2570471711      8.33e-07  Convergence criterion met
 Total energy in the final basis set =    -1038.2570471711
   11   -1038.2570561681      8.25e-07  Convergence criterion met
 Total energy in the final basis set =    -1038.2570561681
   11   -1038.2570587566      8.22e-07  Convergence criterion met
 Total energy in the final basis set =    -1038.2570587566
   11   -1038.2570621365      8.18e-07  Convergence criterion met
 Total energy in the final basis set =    -1038.2570621365
   11   -1038.2570635300      8.17e-07  Convergence criterion met
 Total energy in the final basis set =    -1038.2570635300

             Standard Nuclear Orientation (Angstroms)
    I     Atom           X                Y                Z
 ----------------------------------------------------------------
    1      Cl      1.1366299106    -2.2965660985    -0.6098606413
    2      Cl      1.0437974766     1.6353618291    -0.2480875944
    3      C      -1.0469661693     0.1267823599     0.7500672470
    4      C       0.3996873983     0.4088635409     0.7120942883
    5      C      -1.7505421245     0.0176168276    -0.6120314657
    6      H      -1.4989552935     0.9526488426     1.3332990066
    7      H      -1.1770026498    -0.7887436542     1.3327986759
    8      H       1.0946109707    -0.0064338979     1.4335626854
    9      H      -1.3062900268    -0.8115896830    -1.1681258216
   10      H      -2.8142956381    -0.1753530247    -0.4540922545
   11      H      -1.6527758543     0.9374139582    -1.1942291258
 ----------------------------------------------------------------

   11   -1038.2570644012      8.16e-07  Convergence criterion met
 Total energy in the final basis set =    -1038.2570644012

                    Orbital Energies (a.u.)
 --------------------------------------------------------------

 Alpha MOs
 -- Occupied --
*******-101.461 -10.358 -10.251 -10.207  -9.543  -9.373  -7.306
 -7.298  -7.296  -7.135  -7.128  -7.128  -0.955  -0.827  -0.716
 -0.700  -0.627  -0.541  -0.504  -0.481  -0.428  -0.409  -0.397
 -0.384  -0.368  -0.249  -0.236  -0.235

 Beta MOs
 -- Occupied --
*******-101.461 -10.358 -10.251 -10.207  -9.543  -9.373  -7.306
 -7.298  -7.296  -7.135  -7.128  -7.128  -0.955  -0.827  -0.716
 -0.700  -0.627  -0.541  -0.504  -0.481  -0.428  -0.409  -0.397
 -0.384  -0.368  -0.249  -0.236  -0.235

          Ground-State Mulliken Net Atomic Charges

     Atom                 Charge (a.u.)    Spin (a.u.)
  --------------------------------------------------------
      1 Cl                   -0.521027      -0.000000
      2 Cl                    0.164362      -0.000000
      3 C                    -0.215807       0.000000
      4 C                    -0.091558       0.000000
      5 C                    -0.330735      -0.000000
      6 H                     0.154057      -0.000000
      7 H                     0.177215      -0.000000
      8 H                     0.229787      -0.000000
      9 H                     0.185049       0.000000
     10 H                     0.124753      -0.000000
     11 H                     0.123903       0.000000
  --------------------------------------------------------
  Sum of atomic charges =     0.000000

                    Cartesian Multipole Moments
 -----------------------------------------------------------------
    Charge (ESU x 10^10)
                -0.0000
    Dipole Moment (Debye)
         X      -2.9702      Y       5.9734      Z       3.0601
       Tot       7.3395
    Quadrupole Moments (Debye-Ang)
        XX     -44.8411     XY       6.8171     YY     -55.0307
        XZ       1.8498     YZ      -3.1675     ZZ     -42.8041

 Final energy is   -1038.25706440118
 **  OPTIMIZATION CONVERGED  **
 Total job time:  41.82s(wall), 446.04s(cpu)
        *  Thank you very much for using Q-Chem.  Have a nice day.  *
