 Q-Chem 5.1, Q-Chem, Inc., Pleasanton, CA (2018)
 Q-Chem 5.1.1 for Intel X86 EM64T Linux

User input:
--------------------------------------------------------------

$comment
potential surface scanner
$end

$rem
JOBTYPE  PES_SCAN
UNRESTRICTED TRUE
SYM_IGNORE  TRUE
GEOM_OPT_MAX_CYCLES 400
SCF_MAX_CYCLES 400
METHOD   B3LYP
BASIS   6-31G**
PDB_PRINT 2
SCF_CONVERGENCE 6
THRESH 14
SCF_PRINT 1
$end
$molecule
0 3
Cl -0.600975 -1.394131 -0.036399
Cl -0.988138 2.278287 0.157746
C -0.883839 0.341029 2.164000
C -0.364309 0.503430 0.831502
C -0.776600 -0.831629 -1.753217
H -0.324847 0.657717 3.041772
H -1.916672 0.037098 2.310641
H 0.714586 0.601773 0.729973
H -0.944166 0.244650 -1.714731
H -1.630024 -1.357491 -2.176431
H 0.142878 -1.080726 -2.279451
$end
$scan
stre 1 4 2.000000 2.001000 0.100000
$end
--------------------------------------------------------------

   11   -1038.1546804006      3.58e-07  Convergence criterion met
 Total energy in the final basis set =    -1038.1546804006
   11   -1038.1426843134      3.46e-07  Convergence criterion met
 Total energy in the final basis set =    -1038.1426843134
   11   -1038.1427351059      3.56e-07  Convergence criterion met
 Total energy in the final basis set =    -1038.1427351059
   11   -1038.1433327578      3.56e-07  Convergence criterion met
 Total energy in the final basis set =    -1038.1433327578
   11   -1038.1436491974      3.82e-07  Convergence criterion met
 Total energy in the final basis set =    -1038.1436491974
   11   -1038.1439295450      4.29e-07  Convergence criterion met
 Total energy in the final basis set =    -1038.1439295450
   11   -1038.1440179072      4.49e-07  Convergence criterion met
 Total energy in the final basis set =    -1038.1440179072
   11   -1038.1440527801      4.55e-07  Convergence criterion met
   11   -1038.1440763167      4.58e-07  Convergence criterion met
 Total energy in the final basis set =    -1038.1440763167
   11   -1038.1440899535      4.62e-07  Convergence criterion met
 Total energy in the final basis set =    -1038.1440899535
   11   -1038.1440970694      4.64e-07  Convergence criterion met
 Total energy in the final basis set =    -1038.1440970694
   11   -1038.1441017696      4.65e-07  Convergence criterion met
 Total energy in the final basis set =    -1038.1441017696
   11   -1038.1441053964      4.66e-07  Convergence criterion met
 Total energy in the final basis set =    -1038.1441053964
   11   -1038.1441072575      4.66e-07  Convergence criterion met
 Total energy in the final basis set =    -1038.1441072575

             Standard Nuclear Orientation (Angstroms)
    I     Atom           X                Y                Z
 ----------------------------------------------------------------
    1      Cl     -0.4335863717    -1.4041439730    -0.0388093645
    2      Cl     -0.9484351541     2.3456565780     0.0829914144
    3      C      -0.9119478580     0.3425984469     2.1169484036
    4      C      -0.2881048037     0.3852484576     0.8426166209
    5      C      -0.8073668619    -0.8154110197    -1.7264034639
    6      H      -0.3788959425     0.5983084882     3.0299511285
    7      H      -1.9754854514     0.1371087913     2.1992330298
    8      H       0.7861605366     0.5512631363     0.8057373093
    9      H      -1.0875047755     0.2330580803    -1.6192386039
   10      H      -1.6226701846    -1.4328193584    -2.0974964035
   11      H       0.0957308668    -0.9408606275    -2.3201250708
 ----------------------------------------------------------------

   11   -1038.1441078811      4.66e-07  Convergence criterion met
 Total energy in the final basis set =    -1038.1441078811

                    Orbital Energies (a.u.)
 --------------------------------------------------------------

 Alpha MOs
 -- Occupied --
*******-101.483 -10.266 -10.247 -10.218  -9.515  -9.397  -7.277
 -7.273  -7.268  -7.162  -7.152  -7.151  -0.916  -0.792  -0.737
 -0.710  -0.600  -0.493  -0.482  -0.468  -0.456  -0.424  -0.395
 -0.352  -0.340  -0.277  -0.262  -0.227  -0.172

 Beta MOs
 -- Occupied --
*******-101.479 -10.266 -10.234 -10.207  -9.514  -9.393  -7.276
 -7.269  -7.267  -7.153  -7.149  -7.149  -0.906  -0.765  -0.720
 -0.696  -0.577  -0.482  -0.479  -0.460  -0.444  -0.410  -0.377
 -0.342  -0.303  -0.259  -0.254

          Ground-State Mulliken Net Atomic Charges

     Atom                 Charge (a.u.)    Spin (a.u.)
  --------------------------------------------------------
      1 Cl                    0.136971       0.192281
      2 Cl                   -0.329570       0.417731
      3 C                    -0.153427       0.823753
      4 C                    -0.254441       0.591679
      5 C                    -0.403499       0.012023
      6 H                     0.129968      -0.011694
      7 H                     0.134604      -0.024838
      8 H                     0.165245      -0.005842
      9 H                     0.220807       0.005655
     10 H                     0.175762      -0.000409
     11 H                     0.177581      -0.000338
  --------------------------------------------------------
  Sum of atomic charges =    -0.000000

                    Cartesian Multipole Moments
 -----------------------------------------------------------------
    Charge (ESU x 10^10)
                 0.0000
    Dipole Moment (Debye)
         X       0.6650      Y      -4.3793      Z      -0.8279
       Tot       4.5062
    Quadrupole Moments (Debye-Ang)
        XX     -44.5821     XY       4.9087     YY     -55.6748
        XZ       1.2142     YZ       2.1058     ZZ     -36.8545

 Final energy is   -1038.14410788115
 **  OPTIMIZATION CONVERGED  **
 Total job time:  54.90s(wall), 627.43s(cpu)
        *  Thank you very much for using Q-Chem.  Have a nice day.  *
