 Q-Chem 5.1, Q-Chem, Inc., Pleasanton, CA (2018)
 Q-Chem 5.1.1 for Intel X86 EM64T Linux

User input:
--------------------------------------------------------------

$comment
potential surface scanner
$end

$rem
JOBTYPE  PES_SCAN
UNRESTRICTED TRUE
SYM_IGNORE  TRUE
GEOM_OPT_MAX_CYCLES 400
SCF_MAX_CYCLES 400
METHOD   B3LYP
BASIS   6-31G**
PDB_PRINT 2
SCF_CONVERGENCE 6
THRESH 14
SCF_PRINT 1
$end
$molecule
0 3
Cl -0.393430 -1.640198 -0.392901
Cl -0.649323 2.180093 0.156382
C -0.910409 0.544746 2.387236
C -0.041098 1.023992 1.344326
C -0.909579 -0.973462 -1.990966
H -0.993897 1.068843 3.338301
H -1.590164 -0.289251 2.215419
H 0.933512 0.629723 1.090194
H -1.103760 0.090334 -1.863245
H -1.810749 -1.498283 -2.304793
H -0.103209 -1.136530 -2.704548
$end
$scan
stre 1 4 3.100000 3.101000 0.100000
$end
--------------------------------------------------------------

   10   -1038.2050368743      9.11e-07  Convergence criterion met
 Total energy in the final basis set =    -1038.2050368743
   10   -1038.2034795693      8.91e-07  Convergence criterion met
 Total energy in the final basis set =    -1038.2034795693
   10   -1038.2038185950      9.03e-07  Convergence criterion met
 Total energy in the final basis set =    -1038.2038185950
   10   -1038.2039110814      9.11e-07  Convergence criterion met
 Total energy in the final basis set =    -1038.2039110814
   10   -1038.2039169116      9.11e-07  Convergence criterion met
 Total energy in the final basis set =    -1038.2039169116
   10   -1038.2039232243      9.10e-07  Convergence criterion met
 Total energy in the final basis set =    -1038.2039232243
   10   -1038.2039273268      9.09e-07  Convergence criterion met
 Total energy in the final basis set =    -1038.2039273268
   10   -1038.2039367286      9.06e-07  Convergence criterion met
   10   -1038.2042616998      9.20e-07  Convergence criterion met
 Total energy in the final basis set =    -1038.2042616998
   10   -1038.2042635780      9.20e-07  Convergence criterion met
 Total energy in the final basis set =    -1038.2042635780
   10   -1038.2042654902      9.21e-07  Convergence criterion met
 Total energy in the final basis set =    -1038.2042654902
   10   -1038.2042680838      9.22e-07  Convergence criterion met
 Total energy in the final basis set =    -1038.2042680838
   10   -1038.2042710748      9.23e-07  Convergence criterion met
 Total energy in the final basis set =    -1038.2042710748
   10   -1038.2042732452      9.23e-07  Convergence criterion met
 Total energy in the final basis set =    -1038.2042732452

             Standard Nuclear Orientation (Angstroms)
    I     Atom           X                Y                Z
 ----------------------------------------------------------------
    1      Cl     -0.4021609881    -1.7377673875    -0.3693446292
    2      Cl     -0.6829070380     2.3046434996     0.2200528726
    3      C      -0.9235388212     0.4942274468     2.3085089389
    4      C      -0.1267933228     0.9281182437     1.1886115581
    5      C      -0.8872647499    -0.9734422734    -1.9321390477
    6      H      -0.8896009178     1.0106785099     3.2680559082
    7      H      -1.6623388968    -0.2952101605     2.1905211570
    8      H       0.9378461629     0.7585335557     1.0803792562
    9      H      -0.9803027507     0.0991430976    -1.7689416412
   10      H      -1.8397767634    -1.4020665376    -2.2402216039
   11      H      -0.1152679143    -1.1868509944    -2.6700777690
 ----------------------------------------------------------------

   10   -1038.2042742256      9.22e-07  Convergence criterion met
 Total energy in the final basis set =    -1038.2042742256

                    Orbital Energies (a.u.)
 --------------------------------------------------------------

 Alpha MOs
 -- Occupied --
*******-101.536 -10.249 -10.243 -10.216  -9.464  -9.452  -7.228
 -7.220  -7.218  -7.216  -7.207  -7.206  -0.866  -0.848  -0.745
 -0.678  -0.598  -0.461  -0.455  -0.450  -0.443  -0.433  -0.410
 -0.349  -0.311  -0.299  -0.298  -0.233  -0.200

 Beta MOs
 -- Occupied --
*******-101.536 -10.243 -10.235 -10.203  -9.463  -9.452  -7.226
 -7.217  -7.217  -7.216  -7.206  -7.206  -0.850  -0.846  -0.706
 -0.678  -0.566  -0.450  -0.450  -0.441  -0.426  -0.416  -0.409
 -0.328  -0.306  -0.297  -0.296

          Ground-State Mulliken Net Atomic Charges

     Atom                 Charge (a.u.)    Spin (a.u.)
  --------------------------------------------------------
      1 Cl                   -0.094097       0.014415
      2 Cl                   -0.051433       0.135666
      3 C                    -0.193473       0.973593
      4 C                    -0.190714       0.894005
      5 C                    -0.403080      -0.000414
      6 H                     0.127260       0.004870
      7 H                     0.140731      -0.006151
      8 H                     0.160901      -0.015785
      9 H                     0.179126      -0.000262
     10 H                     0.162504       0.000020
     11 H                     0.162275       0.000040
  --------------------------------------------------------
  Sum of atomic charges =    -0.000000

                    Cartesian Multipole Moments
 -----------------------------------------------------------------
    Charge (ESU x 10^10)
                 0.0000
    Dipole Moment (Debye)
         X      -0.1634      Y      -0.2912      Z      -0.5510
       Tot       0.6443
    Quadrupole Moments (Debye-Ang)
        XX     -43.4910     XY       1.6081     YY     -50.7317
        XZ       1.1997     YZ       1.5100     ZZ     -37.0327

 Final energy is   -1038.20427422559
 **  OPTIMIZATION CONVERGED  **
 Total job time:  110.86s(wall), 1263.10s(cpu)
        *  Thank you very much for using Q-Chem.  Have a nice day.  *
