 Q-Chem 5.1, Q-Chem, Inc., Pleasanton, CA (2018)
 Q-Chem 5.1.1 for Intel X86 EM64T Linux

User input:
--------------------------------------------------------------

$comment
potential surface scanner
$end

$rem
JOBTYPE  PES_SCAN
UNRESTRICTED TRUE
SYM_IGNORE  TRUE
GEOM_OPT_MAX_CYCLES 400
SCF_MAX_CYCLES 400
METHOD   B3LYP
BASIS   6-31G**
PDB_PRINT 2
SCF_CONVERGENCE 6
THRESH 14
SCF_PRINT 1
$end
$molecule
0 1
Cl 1.164870 -1.727423 -0.349783
Cl 1.107766 1.472846 -0.333950
C -1.019012 0.028436 0.699028
C 0.475231 0.135905 0.594890
C -1.795698 0.020119 -0.616792
H -1.329434 0.884503 1.319122
H -1.226596 -0.874912 1.281595
H 1.039116 0.013564 1.513403
H -1.497639 -0.833079 -1.230415
H -2.867014 -0.054971 -0.411911
H -1.623691 0.935012 -1.189794
$end
$scan
stre 1 4 2.300000 2.301000 0.100000
$end
--------------------------------------------------------------

    9   -1038.3167649475      7.58e-07  Convergence criterion met
 Total energy in the final basis set =    -1038.3167649475
    9   -1038.3088516508      9.88e-07  Convergence criterion met
 Total energy in the final basis set =    -1038.3088516508
    9   -1038.3088585375      9.89e-07  Convergence criterion met
 Total energy in the final basis set =    -1038.3088585375
    9   -1038.3089949821      9.84e-07  Convergence criterion met
 Total energy in the final basis set =    -1038.3089949821
    9   -1038.3089993643      9.85e-07  Convergence criterion met
 Total energy in the final basis set =    -1038.3089993643

             Standard Nuclear Orientation (Angstroms)
    I     Atom           X                Y                Z
 ----------------------------------------------------------------
    1      Cl      1.1706763933    -1.7909791556    -0.3654083727
    2      Cl      1.1049776458     1.4743018930    -0.3387938593
    3      C      -1.0230628024     0.0375081837     0.7030061625
    4      C       0.4650193332     0.1699438410     0.6076425099
    5      C      -1.7937374425     0.0245244214    -0.6166309451
    6      H      -1.3490649750     0.8868062811     1.3265597749
    7      H      -1.2187587124    -0.8709101991     1.2811210281
    8      H       1.0464918560     0.0148921292     1.5094734161
    9      H      -1.4743367664    -0.8201929003    -1.2311183839
   10      H      -2.8642056609    -0.0716077948    -0.4167977478
   11      H      -1.6360998687     0.9457133003    -1.1836605826
 ----------------------------------------------------------------

    9   -1038.3090003586      9.84e-07  Convergence criterion met
 Total energy in the final basis set =    -1038.3090003586

                    Orbital Energies (a.u.)
 --------------------------------------------------------------

 Alpha MOs
 -- Occupied --
*******-101.509 -10.337 -10.231 -10.195  -9.500  -9.422  -7.264
 -7.255  -7.253  -7.185  -7.176  -7.176  -0.913  -0.806  -0.756
 -0.697  -0.605  -0.511  -0.486  -0.458  -0.406  -0.394  -0.382
 -0.365  -0.336  -0.307  -0.279  -0.278

 Beta MOs
 -- Occupied --
*******-101.509 -10.337 -10.231 -10.195  -9.500  -9.422  -7.264
 -7.255  -7.253  -7.185  -7.176  -7.176  -0.913  -0.806  -0.756
 -0.697  -0.605  -0.511  -0.486  -0.458  -0.406  -0.394  -0.382
 -0.365  -0.336  -0.307  -0.279  -0.278

          Ground-State Mulliken Net Atomic Charges

     Atom                 Charge (a.u.)    Spin (a.u.)
  --------------------------------------------------------
      1 Cl                   -0.298915      -0.000000
      2 Cl                    0.071578      -0.000000
      3 C                    -0.184229       0.000000
      4 C                    -0.165954       0.000000
      5 C                    -0.324138       0.000000
      6 H                     0.138219       0.000000
      7 H                     0.154102      -0.000000
      8 H                     0.211524      -0.000000
      9 H                     0.154873      -0.000000
     10 H                     0.116172       0.000000
     11 H                     0.126766      -0.000000
  --------------------------------------------------------
  Sum of atomic charges =    -0.000000

                    Cartesian Multipole Moments
 -----------------------------------------------------------------
    Charge (ESU x 10^10)
                 0.0000
    Dipole Moment (Debye)
         X      -2.3409      Y       2.4860      Z       2.0666
       Tot       3.9914
    Quadrupole Moments (Debye-Ang)
        XX     -45.2973     XY       3.0569     YY     -49.2633
        XZ       1.0676     YZ      -0.8144     ZZ     -42.7167

 Final energy is   -1038.30900035855
 **  OPTIMIZATION CONVERGED  **
 Total job time:  22.28s(wall), 236.50s(cpu)
        *  Thank you very much for using Q-Chem.  Have a nice day.  *
