 Q-Chem 5.1, Q-Chem, Inc., Pleasanton, CA (2018)
 Q-Chem 5.1.1 for Intel X86 EM64T Linux

User input:
--------------------------------------------------------------

$comment
potential surface scanner
$end

$rem
JOBTYPE  PES_SCAN
UNRESTRICTED TRUE
SYM_IGNORE  TRUE
GEOM_OPT_MAX_CYCLES 400
SCF_MAX_CYCLES 400
METHOD   B3LYP
BASIS   6-31G**
PDB_PRINT 2
SCF_CONVERGENCE 6
THRESH 14
SCF_PRINT 1
$end
$molecule
0 1
Cl 0.886222 -2.820156 -1.317579
Cl 0.953068 2.091415 0.290149
C -1.087321 0.331564 0.849180
C 0.341606 0.625727 0.836320
C -1.614538 -0.138017 -0.560280
H -1.652947 1.224385 1.141112
H -1.263788 -0.477006 1.565793
H 1.095495 -0.112063 1.100594
H -1.087955 -1.047433 -0.859965
H -2.687779 -0.322840 -0.464275
H -1.454163 0.644425 -1.305650
$end
$scan
stre 1 4 4.200000 4.201000 0.100000
$end
--------------------------------------------------------------

   18   -1038.2240593697      2.51e-07  Convergence criterion met
 Total energy in the final basis set =    -1038.2240593697
   18   -1038.2221806376      6.55e-07  Convergence criterion met
 Total energy in the final basis set =    -1038.2221806376
   19   -1038.2196850538      8.87e-07  Convergence criterion met
 Total energy in the final basis set =    -1038.2196850538
   18   -1038.2221886356      5.42e-07  Convergence criterion met
 Total energy in the final basis set =    -1038.2221886356
   18   -1038.2221943174      6.12e-07  Convergence criterion met
 Total energy in the final basis set =    -1038.2221943174

             Standard Nuclear Orientation (Angstroms)
    I     Atom           X                Y                Z
 ----------------------------------------------------------------
    1      Cl      0.8603782635    -2.8917063011    -1.3579492779
    2      Cl      0.9386664519     2.1182773342     0.3071926358
    3      C      -1.0862213419     0.3353961307     0.8517898379
    4      C       0.3391871438     0.6450686024     0.8464969354
    5      C      -1.6043955327    -0.1384490258    -0.5601131126
    6      H      -1.6628523335     1.2220560313     1.1410912259
    7      H      -1.2583011038    -0.4751658381     1.5672684691
    8      H       1.0996410792    -0.0852432913     1.1120198975
    9      H      -1.0752284653    -1.0463037654    -0.8596876030
   10      H      -2.6770040563    -0.3286068744    -0.4675172880
   11      H      -1.4459701049     0.6446779975    -1.3051927202
 ----------------------------------------------------------------

   18   -1038.2221947215      6.11e-07  Convergence criterion met
 Total energy in the final basis set =    -1038.2221947215

                    Orbital Energies (a.u.)
 --------------------------------------------------------------

 Alpha MOs
 -- Occupied --
*******-101.441 -10.362 -10.264 -10.223  -9.563  -9.354  -7.326
 -7.319  -7.315  -7.116  -7.109  -7.109  -0.973  -0.840  -0.721
 -0.682  -0.645  -0.558  -0.519  -0.474  -0.460  -0.420  -0.409
 -0.395  -0.385  -0.222  -0.219  -0.218

 Beta MOs
 -- Occupied --
*******-101.441 -10.362 -10.264 -10.223  -9.563  -9.354  -7.326
 -7.319  -7.315  -7.116  -7.109  -7.109  -0.973  -0.840  -0.721
 -0.682  -0.645  -0.558  -0.519  -0.474  -0.460  -0.420  -0.409
 -0.395  -0.385  -0.222  -0.219  -0.218

          Ground-State Mulliken Net Atomic Charges

     Atom                 Charge (a.u.)    Spin (a.u.)
  --------------------------------------------------------
      1 Cl                   -0.541049      -0.000000
      2 Cl                    0.179374       0.000000
      3 C                    -0.239034      -0.000000
      4 C                    -0.111529       0.000000
      5 C                    -0.324639       0.000000
      6 H                     0.158024       0.000000
      7 H                     0.171800       0.000000
      8 H                     0.239724      -0.000000
      9 H                     0.199759       0.000000
     10 H                     0.135860       0.000000
     11 H                     0.131712       0.000000
  --------------------------------------------------------
  Sum of atomic charges =    -0.000000

                    Cartesian Multipole Moments
 -----------------------------------------------------------------
    Charge (ESU x 10^10)
                -0.0000
    Dipole Moment (Debye)
         X      -2.6843      Y       8.1685      Z       4.9437
       Tot       9.9182
    Quadrupole Moments (Debye-Ang)
        XX     -43.0965     XY       7.0324     YY     -62.2694
        XZ       3.2842     YZ      -9.3129     ZZ     -47.4455

 Final energy is   -1038.22219472146
 **  OPTIMIZATION CONVERGED  **
 Total job time:  32.32s(wall), 358.48s(cpu)
        *  Thank you very much for using Q-Chem.  Have a nice day.  *
