 Q-Chem 5.1, Q-Chem, Inc., Pleasanton, CA (2018)
 Q-Chem 5.1.1 for Intel X86 EM64T Linux

User input:
--------------------------------------------------------------

$comment
potential surface scanner
$end

$rem
JOBTYPE  PES_SCAN
UNRESTRICTED TRUE
SYM_IGNORE  TRUE
GEOM_OPT_MAX_CYCLES 400
SCF_MAX_CYCLES 400
METHOD   B3LYP
BASIS   6-31G**
PDB_PRINT 2
SCF_CONVERGENCE 6
THRESH 14
SCF_PRINT 1
$end
$molecule
0 3
Cl -0.388782 -1.695634 -0.421910
Cl -0.646425 2.191132 0.163753
C -0.909675 0.556613 2.393752
C -0.030732 1.054136 1.367102
C -0.911967 -0.983922 -1.998216
H -1.010705 1.071856 3.347686
H -1.577700 -0.283551 2.206250
H 0.932864 0.640416 1.099784
H -1.096288 0.077887 -1.842753
H -1.819949 -1.493279 -2.317771
H -0.112747 -1.135647 -2.722271
$end
$scan
stre 1 4 3.200000 3.201000 0.100000
$end
--------------------------------------------------------------

   10   -1038.2058715456      9.15e-07  Convergence criterion met
 Total energy in the final basis set =    -1038.2058715456
   10   -1038.2045800389      8.92e-07  Convergence criterion met
 Total energy in the final basis set =    -1038.2045800389
   10   -1038.2049280521      9.06e-07  Convergence criterion met
 Total energy in the final basis set =    -1038.2049280521
   10   -1038.2050288153      9.15e-07  Convergence criterion met
 Total energy in the final basis set =    -1038.2050288153
   10   -1038.2050334641      9.14e-07  Convergence criterion met
 Total energy in the final basis set =    -1038.2050334641
   10   -1038.2050359584      9.12e-07  Convergence criterion met
 Total energy in the final basis set =    -1038.2050359584

             Standard Nuclear Orientation (Angstroms)
    I     Atom           X                Y                Z
 ----------------------------------------------------------------
    1      Cl     -0.3934303510    -1.6401975829    -0.3929012079
    2      Cl     -0.6493231167     2.1800931993     0.1563824067
    3      C      -0.9104089971     0.5447455253     2.3872359600
    4      C      -0.0410980764     1.0239916233     1.3443262009
    5      C      -0.9095785893    -0.9734624122    -1.9909662085
    6      H      -0.9938970244     1.0688432740     3.3383012095
    7      H      -1.5901640908    -0.2892507715     2.2154193432
    8      H       0.9335124319     0.6297234070     1.0901941232
    9      H      -1.1037596867     0.0903343714    -1.8632445832
   10      H      -1.8107494170    -1.4982833709    -2.3047931303
   11      H      -0.1032090825    -1.1365302628    -2.7045481136
 ----------------------------------------------------------------

   10   -1038.2050368704      9.11e-07  Convergence criterion met
 Total energy in the final basis set =    -1038.2050368704

                    Orbital Energies (a.u.)
 --------------------------------------------------------------

 Alpha MOs
 -- Occupied --
*******-101.537 -10.246 -10.244 -10.215  -9.464  -9.454  -7.228
 -7.220  -7.218  -7.218  -7.208  -7.208  -0.866  -0.849  -0.745
 -0.680  -0.597  -0.461  -0.454  -0.450  -0.446  -0.434  -0.411
 -0.349  -0.311  -0.299  -0.299  -0.233  -0.198

 Beta MOs
 -- Occupied --
*******-101.537 -10.244 -10.233 -10.203  -9.463  -9.454  -7.226
 -7.218  -7.217  -7.217  -7.208  -7.207  -0.851  -0.847  -0.705
 -0.679  -0.565  -0.452  -0.451  -0.439  -0.427  -0.417  -0.410
 -0.328  -0.307  -0.299  -0.297

          Ground-State Mulliken Net Atomic Charges

     Atom                 Charge (a.u.)    Spin (a.u.)
  --------------------------------------------------------
      1 Cl                   -0.099781       0.007754
      2 Cl                   -0.046315       0.129204
      3 C                    -0.193780       0.971283
      4 C                    -0.196230       0.907276
      5 C                    -0.401569       0.000354
      6 H                     0.129664      -0.004194
      7 H                     0.138288       0.007577
      8 H                     0.165290      -0.019497
      9 H                     0.178982      -0.000141
     10 H                     0.162583       0.000294
     11 H                     0.162869       0.000090
  --------------------------------------------------------
  Sum of atomic charges =     0.000000

                    Cartesian Multipole Moments
 -----------------------------------------------------------------
    Charge (ESU x 10^10)
                 0.0000
    Dipole Moment (Debye)
         X      -0.3194      Y      -0.4812      Z      -0.7431
       Tot       0.9412
    Quadrupole Moments (Debye-Ang)
        XX     -43.4868     XY       1.2409     YY     -50.3821
        XZ       1.0978     YZ       1.4035     ZZ     -36.9051

 Final energy is   -1038.20503687043
 **  OPTIMIZATION CONVERGED  **
 Total job time:  23.93s(wall), 265.25s(cpu)
        *  Thank you very much for using Q-Chem.  Have a nice day.  *
