 Q-Chem 5.1, Q-Chem, Inc., Pleasanton, CA (2018)
 Q-Chem 5.1.1 for Intel X86 EM64T Linux

User input:
--------------------------------------------------------------

$comment
potential surface scanner
$end

$rem
JOBTYPE  PES_SCAN
UNRESTRICTED TRUE
SYM_IGNORE  TRUE
GEOM_OPT_MAX_CYCLES 400
SCF_MAX_CYCLES 400
METHOD   B3LYP
BASIS   6-31G**
PDB_PRINT 2
SCF_CONVERGENCE 6
THRESH 14
SCF_PRINT 1
$end
$molecule
0 1
Cl 1.141949 -1.601607 -0.324816
Cl 1.113116 1.477494 -0.317008
C -1.010176 0.013228 0.692392
C 0.496620 0.066976 0.569266
C -1.797419 0.009553 -0.616969
H -1.291134 0.882693 1.303196
H -1.241694 -0.878666 1.285258
H 1.023803 0.007241 1.517093
H -1.539269 -0.860993 -1.224790
H -2.869391 -0.025641 -0.403827
H -1.598505 0.909722 -1.204398
$end
$scan
stre 1 4 2.100000 2.101000 0.100000
$end
--------------------------------------------------------------

    9   -1038.3311320226      4.90e-07  Convergence criterion met
 Total energy in the final basis set =    -1038.3311320226
    9   -1038.3240892770      5.97e-07  Convergence criterion met
 Total energy in the final basis set =    -1038.3240892770
    9   -1038.3242208386      6.02e-07  Convergence criterion met
 Total energy in the final basis set =    -1038.3242208386
    9   -1038.3243327444      6.02e-07  Convergence criterion met
 Total energy in the final basis set =    -1038.3243327444
    9   -1038.3243371652      6.01e-07  Convergence criterion met
 Total energy in the final basis set =    -1038.3243371652

             Standard Nuclear Orientation (Angstroms)
    I     Atom           X                Y                Z
 ----------------------------------------------------------------
    1      Cl      1.1549742329    -1.6640621062    -0.3369444557
    2      Cl      1.1104477233     1.4741201264    -0.3264379634
    3      C      -1.0147332284     0.0204272064     0.6955792841
    4      C       0.4857252659     0.1015190570     0.5822009020
    5      C      -1.7968138966     0.0149864730    -0.6168839875
    6      H      -1.3100926020     0.8833789574     1.3111864587
    7      H      -1.2344175339    -0.8772615520     1.2832514902
    8      H       1.0314992588     0.0108044801     1.5159854940
    9      H      -1.5191128186    -0.8469434474    -1.2280636104
   10      H      -2.8686303761    -0.0397158399    -0.4076262432
   11      H      -1.6109460251     0.9227466452    -1.1968503688
 ----------------------------------------------------------------

    9   -1038.3243380479      6.01e-07  Convergence criterion met
 Total energy in the final basis set =    -1038.3243380479

                    Orbital Energies (a.u.)
 --------------------------------------------------------------

 Alpha MOs
 -- Occupied --
*******-101.526 -10.328 -10.225 -10.192  -9.486  -9.440  -7.250
 -7.240  -7.239  -7.204  -7.194  -7.194  -0.901  -0.803  -0.776
 -0.691  -0.598  -0.502  -0.483  -0.449  -0.407  -0.391  -0.377
 -0.361  -0.326  -0.319  -0.294  -0.292

 Beta MOs
 -- Occupied --
*******-101.526 -10.328 -10.225 -10.192  -9.486  -9.440  -7.250
 -7.240  -7.239  -7.204  -7.194  -7.194  -0.901  -0.803  -0.776
 -0.691  -0.598  -0.502  -0.483  -0.449  -0.407  -0.391  -0.377
 -0.361  -0.326  -0.319  -0.294  -0.292

          Ground-State Mulliken Net Atomic Charges

     Atom                 Charge (a.u.)    Spin (a.u.)
  --------------------------------------------------------
      1 Cl                   -0.195015      -0.000000
      2 Cl                    0.030861       0.000000
      3 C                    -0.176443       0.000000
      4 C                    -0.209551       0.000000
      5 C                    -0.322428       0.000000
      6 H                     0.134318       0.000000
      7 H                     0.143849       0.000000
      8 H                     0.206233      -0.000000
      9 H                     0.145152      -0.000000
     10 H                     0.114283      -0.000000
     11 H                     0.128741      -0.000000
  --------------------------------------------------------
  Sum of atomic charges =    -0.000000

                    Cartesian Multipole Moments
 -----------------------------------------------------------------
    Charge (ESU x 10^10)
                 0.0000
    Dipole Moment (Debye)
         X      -2.0668      Y       1.4171      Z       1.8518
       Tot       3.1159
    Quadrupole Moments (Debye-Ang)
        XX     -45.2823     XY       1.7457     YY     -48.1532
        XZ       0.9616     YZ      -0.4213     ZZ     -42.9047

 Final energy is   -1038.32433804791
 **  OPTIMIZATION CONVERGED  **
 Total job time:  21.15s(wall), 232.77s(cpu)
        *  Thank you very much for using Q-Chem.  Have a nice day.  *
