 Q-Chem 5.1, Q-Chem, Inc., Pleasanton, CA (2018)
 Q-Chem 5.1.1 for Intel X86 EM64T Linux

User input:
--------------------------------------------------------------

$comment
potential surface scanner
$end

$rem
JOBTYPE  PES_SCAN
UNRESTRICTED TRUE
SYM_IGNORE  TRUE
GEOM_OPT_MAX_CYCLES 400
SCF_MAX_CYCLES 400
METHOD   B3LYP
BASIS   6-31G**
PDB_PRINT 2
SCF_CONVERGENCE 6
THRESH 14
SCF_PRINT 1
$end
$molecule
0 1
Cl 1.116811 -1.487890 -0.297674
Cl 1.116723 1.487948 -0.297811
C -1.001691 0.000017 0.686110
C 0.516784 0.000065 0.544144
C -1.798478 -0.000063 -0.617334
H -1.254734 0.881037 1.288339
H -1.254672 -0.880971 1.288410
H 1.009290 0.000112 1.514472
H -1.576223 -0.885775 -1.218175
H -2.869628 -0.000091 -0.396831
H -1.576282 0.885612 -1.218250
$end
$scan
stre 1 4 1.000000 1.001000 0.100000
$end
--------------------------------------------------------------

    9   -1038.3381067175      4.42e-07  Convergence criterion met
 Total energy in the final basis set =    -1038.3381067175
    9   -1038.3286526835      4.29e-07  Convergence criterion met
 Total energy in the final basis set =    -1038.3286526835
    9   -1038.2898121648      4.77e-07  Convergence criterion met
 Total energy in the final basis set =    -1038.2898121648
    9   -1038.2146614532      4.46e-07  Convergence criterion met
 Total energy in the final basis set =    -1038.2146614532
    9   -1038.0988519361      4.85e-07  Convergence criterion met
 Total energy in the final basis set =    -1038.0988519361
    9   -1037.9016816475      7.69e-07  Convergence criterion met
 Total energy in the final basis set =    -1037.9016816475
    9   -1037.6233706146      6.92e-07  Convergence criterion met
 Total energy in the final basis set =    -1037.6233706146
    9   -1037.4411618062      9.37e-07  Convergence criterion met
   10   -1037.2379919545      7.85e-07  Convergence criterion met
 Total energy in the final basis set =    -1037.2379919545
   10   -1037.2379994472      7.96e-07  Convergence criterion met
 Total energy in the final basis set =    -1037.2379994472
   10   -1037.2380028696      8.08e-07  Convergence criterion met
 Total energy in the final basis set =    -1037.2380028696
   10   -1037.2380053315      8.16e-07  Convergence criterion met
 Total energy in the final basis set =    -1037.2380053315
   10   -1037.2380076700      8.17e-07  Convergence criterion met
 Total energy in the final basis set =    -1037.2380076700
   10   -1037.2380089697      8.11e-07  Convergence criterion met
 Total energy in the final basis set =    -1037.2380089697

             Standard Nuclear Orientation (Angstroms)
    I     Atom           X                Y                Z
 ----------------------------------------------------------------
    1      Cl      0.9464223183    -1.0130131071    -0.2351150251
    2      Cl      1.2381472163     1.9037713179    -0.2478844675
    3      C      -1.0185931482    -0.0972324899     0.6979629076
    4      C       0.5258121848    -0.4550247989     0.4802426252
    5      C      -1.7918735743    -0.0719278621    -0.6116165969
    6      H      -1.0521375482     0.8592998014     1.2150198330
    7      H      -1.3916007400    -0.8811081894     1.3758999202
    8      H       0.9604869934    -0.0645984805     1.4293900498
    9      H      -1.7255697186    -1.0199361518    -1.1607361784
   10      H      -2.8523117321     0.1084831395    -0.4185262426
   11      H      -1.4108822515     0.7312878207    -1.2492368253
 ----------------------------------------------------------------

   10   -1037.2380093777      8.06e-07  Convergence criterion met
 Total energy in the final basis set =    -1037.2380093777

                    Orbital Energies (a.u.)
 --------------------------------------------------------------

 Alpha MOs
 -- Occupied --
*******-101.421 -10.350 -10.221 -10.198  -9.641  -9.336  -7.408
 -7.386  -7.379  -7.096  -7.093  -7.093  -1.207  -0.802  -0.698
 -0.687  -0.674  -0.641  -0.621  -0.525  -0.465  -0.420  -0.389
 -0.374  -0.289  -0.223  -0.219  -0.216

 Beta MOs
 -- Occupied --
*******-101.421 -10.350 -10.221 -10.198  -9.641  -9.336  -7.408
 -7.386  -7.379  -7.096  -7.093  -7.093  -1.207  -0.802  -0.698
 -0.687  -0.674  -0.641  -0.621  -0.525  -0.465  -0.420  -0.389
 -0.374  -0.289  -0.223  -0.219  -0.216

          Ground-State Mulliken Net Atomic Charges

     Atom                 Charge (a.u.)    Spin (a.u.)
  --------------------------------------------------------
      1 Cl                    0.650298       0.000000
      2 Cl                   -0.674353       0.000000
      3 C                    -0.228997       0.000000
      4 C                    -0.225677      -0.000000
      5 C                    -0.359747      -0.000000
      6 H                     0.173308       0.000000
      7 H                     0.106019       0.000000
      8 H                     0.163556      -0.000000
      9 H                     0.097561       0.000000
     10 H                     0.129485       0.000000
     11 H                     0.168550       0.000000
  --------------------------------------------------------
  Sum of atomic charges =    -0.000000

                    Cartesian Multipole Moments
 -----------------------------------------------------------------
    Charge (ESU x 10^10)
                -0.0000
    Dipole Moment (Debye)
         X      -2.2959      Y      -7.6102      Z       1.3722
       Tot       8.0666
    Quadrupole Moments (Debye-Ang)
        XX     -45.4189     XY      -9.5396     YY     -52.5415
        XZ       0.8415     YZ       1.2110     ZZ     -42.5306

 Final energy is   -1037.23800937773
 **  OPTIMIZATION CONVERGED  **
 Total job time:  136.84s(wall), 1497.17s(cpu)
        *  Thank you very much for using Q-Chem.  Have a nice day.  *
