 Q-Chem 5.1, Q-Chem, Inc., Pleasanton, CA (2018)
 Q-Chem 5.1.1 for Intel X86 EM64T Linux

User input:
--------------------------------------------------------------

$comment
potential surface scanner
$end

$rem
JOBTYPE  PES_SCAN
UNRESTRICTED TRUE
SYM_IGNORE  TRUE
GEOM_OPT_MAX_CYCLES 400
SCF_MAX_CYCLES 400
METHOD   B3LYP
BASIS   6-31G**
PDB_PRINT 2
SCF_CONVERGENCE 6
THRESH 14
SCF_PRINT 1
$end
$molecule
0 3
Cl -0.546010 -1.512779 -0.201675
Cl -0.846925 2.221859 0.184925
C -0.890490 0.423667 2.282287
C -0.238484 0.753308 1.035369
C -0.832386 -0.903130 -1.876826
H -0.667120 0.965676 3.201202
H -1.728230 -0.268875 2.303149
H 0.837892 0.686562 0.915484
H -0.886371 0.183656 -1.830620
H -1.771187 -1.323029 -2.234358
H -0.002795 -1.226908 -2.503533
$end
$scan
stre 1 4 2.500000 2.501000 0.100000
$end
--------------------------------------------------------------

   10   -1038.1925755398      9.88e-07  Convergence criterion met
 Total energy in the final basis set =    -1038.1925755398
   10   -1038.1876460427      9.99e-07  Convergence criterion met
 Total energy in the final basis set =    -1038.1876460427
   10   -1038.1876790320      9.98e-07  Convergence criterion met
 Total energy in the final basis set =    -1038.1876790320
   11   -1038.1877460614      2.62e-07  Convergence criterion met
 Total energy in the final basis set =    -1038.1877460614
   11   -1038.1877618301      2.63e-07  Convergence criterion met
 Total energy in the final basis set =    -1038.1877618301
   11   -1038.1877710379      2.65e-07  Convergence criterion met
 Total energy in the final basis set =    -1038.1877710379
   11   -1038.1877755169      2.66e-07  Convergence criterion met
 Total energy in the final basis set =    -1038.1877755169
   11   -1038.1877796661      2.67e-07  Convergence criterion met
   11   -1038.1877827775      2.67e-07  Convergence criterion met
 Total energy in the final basis set =    -1038.1877827775
   11   -1038.1877859838      2.68e-07  Convergence criterion met
 Total energy in the final basis set =    -1038.1877859838
   11   -1038.1877894810      2.67e-07  Convergence criterion met
 Total energy in the final basis set =    -1038.1877894810
   11   -1038.1877933376      2.67e-07  Convergence criterion met
 Total energy in the final basis set =    -1038.1877933376
   11   -1038.1877961842      2.67e-07  Convergence criterion met
 Total energy in the final basis set =    -1038.1877961842
   11   -1038.1877974229      2.67e-07  Convergence criterion met
 Total energy in the final basis set =    -1038.1877974229

             Standard Nuclear Orientation (Angstroms)
    I     Atom           X                Y                Z
 ----------------------------------------------------------------
    1      Cl     -0.5959828696    -1.4768362507    -0.1610703258
    2      Cl     -0.9233284724     2.2201278999     0.1919111319
    3      C      -0.8776504942     0.3997142662     2.2669084893
    4      C      -0.2803635833     0.7201683513     0.9893888116
    5      C      -0.8084137469    -0.8894901999    -1.8550588332
    6      H      -0.5905771840     0.9270217923     3.1762986734
    7      H      -1.7426873873    -0.2561099767     2.3231016684
    8      H       0.7964642892     0.6932169358     0.8537903475
    9      H      -0.8034359380     0.1996053401    -1.8311367945
   10      H      -1.7617162304    -1.2637564869    -2.2245026520
   11      H       0.0155856168    -1.2736546714    -2.4542265165
 ----------------------------------------------------------------

   11   -1038.1877977601      2.67e-07  Convergence criterion met
 Total energy in the final basis set =    -1038.1877977601

                    Orbital Energies (a.u.)
 --------------------------------------------------------------

 Alpha MOs
 -- Occupied --
*******-101.535 -10.247 -10.243 -10.213  -9.462  -9.451  -7.225
 -7.217  -7.215  -7.215  -7.206  -7.205  -0.864  -0.847  -0.742
 -0.685  -0.594  -0.467  -0.458  -0.453  -0.436  -0.425  -0.410
 -0.345  -0.314  -0.307  -0.298  -0.230  -0.184

 Beta MOs
 -- Occupied --
*******-101.533 -10.247 -10.229 -10.200  -9.461  -9.449  -7.225
 -7.215  -7.214  -7.212  -7.204  -7.203  -0.858  -0.831  -0.707
 -0.681  -0.565  -0.457  -0.455  -0.440  -0.424  -0.410  -0.398
 -0.322  -0.306  -0.302  -0.293

          Ground-State Mulliken Net Atomic Charges

     Atom                 Charge (a.u.)    Spin (a.u.)
  --------------------------------------------------------
      1 Cl                   -0.040019       0.080062
      2 Cl                   -0.093844       0.157043
      3 C                    -0.183892       0.973060
      4 C                    -0.209508       0.818970
      5 C                    -0.401385      -0.002728
      6 H                     0.124940      -0.003013
      7 H                     0.133885      -0.018167
      8 H                     0.157597      -0.008907
      9 H                     0.181350       0.003494
     10 H                     0.166966       0.000088
     11 H                     0.163910       0.000098
  --------------------------------------------------------
  Sum of atomic charges =    -0.000000

                    Cartesian Multipole Moments
 -----------------------------------------------------------------
    Charge (ESU x 10^10)
                 0.0000
    Dipole Moment (Debye)
         X       0.3567      Y      -1.0374      Z      -0.8193
       Tot       1.3692
    Quadrupole Moments (Debye-Ang)
        XX     -44.4126     XY       2.1335     YY     -50.8148
        XZ       1.0135     YZ       1.8061     ZZ     -37.3146

 Final energy is   -1038.18779776008
 **  OPTIMIZATION CONVERGED  **
 Total job time:  54.98s(wall), 619.38s(cpu)
        *  Thank you very much for using Q-Chem.  Have a nice day.  *
