 Q-Chem 5.1, Q-Chem, Inc., Pleasanton, CA (2018)
 Q-Chem 5.1.1 for Intel X86 EM64T Linux

User input:
--------------------------------------------------------------

$comment
potential surface scanner
$end

$rem
JOBTYPE  PES_SCAN
UNRESTRICTED TRUE
SYM_IGNORE  TRUE
GEOM_OPT_MAX_CYCLES 400
SCF_MAX_CYCLES 400
METHOD   B3LYP
BASIS   6-31G**
PDB_PRINT 2
SCF_CONVERGENCE 6
THRESH 14
SCF_PRINT 1
$end
$molecule
0 1
Cl 1.202610 -2.116006 -0.461879
Cl 1.075961 1.529839 -0.325114
C -1.040596 0.087067 0.725564
C 0.418775 0.323340 0.667366
C -1.779627 0.037928 -0.615132
H -1.441507 0.910439 1.347751
H -1.186848 -0.835766 1.293625
H 1.075096 0.005273 1.468464
H -1.373446 -0.777249 -1.218689
H -2.843101 -0.140144 -0.438057
H -1.679419 0.975280 -1.168503
$end
$scan
stre 1 4 2.900000 2.901000 0.100000
$end
--------------------------------------------------------------

   11   -1038.2738614692      6.27e-07  Convergence criterion met
 Total energy in the final basis set =    -1038.2738614692
   11   -1038.2677325921      7.19e-07  Convergence criterion met
 Total energy in the final basis set =    -1038.2677325921
   11   -1038.2677227234      7.33e-07  Convergence criterion met
 Total energy in the final basis set =    -1038.2677227234
   11   -1038.2678653921      7.38e-07  Convergence criterion met
 Total energy in the final basis set =    -1038.2678653921
   11   -1038.2678694420      7.39e-07  Convergence criterion met
 Total energy in the final basis set =    -1038.2678694420
   11   -1038.2678732813      7.40e-07  Convergence criterion met
 Total energy in the final basis set =    -1038.2678732813

             Standard Nuclear Orientation (Angstroms)
    I     Atom           X                Y                Z
 ----------------------------------------------------------------
    1      Cl      1.2052955701    -2.1797927525    -0.4928187014
    2      Cl      1.0671173192     1.5536842540    -0.3111712503
    3      C      -1.0432126555     0.0972178536     0.7311639646
    4      C       0.4112634630     0.3509313669     0.6797624737
    5      C      -1.7751499364     0.0370086874    -0.6144601951
    6      H      -1.4595032889     0.9176216511     1.3478922870
    7      H      -1.1817954561    -0.8262969142     1.2998047346
    8      H       1.0797097826     0.0030387653     1.4585670591
    9      H      -1.3607513063    -0.7801775381    -1.2099936690
   10      H      -2.8384741692    -0.1450396859    -0.4409828591
   11      H      -1.6766013224     0.9718053124    -1.1723678441
 ----------------------------------------------------------------

   11   -1038.2678738668      7.40e-07  Convergence criterion met
 Total energy in the final basis set =    -1038.2678738668

                    Orbital Energies (a.u.)
 --------------------------------------------------------------

 Alpha MOs
 -- Occupied --
*******-101.468 -10.355 -10.247 -10.206  -9.535  -9.380  -7.298
 -7.290  -7.288  -7.143  -7.136  -7.136  -0.947  -0.823  -0.715
 -0.706  -0.623  -0.535  -0.500  -0.479  -0.422  -0.406  -0.395
 -0.381  -0.362  -0.259  -0.242  -0.242

 Beta MOs
 -- Occupied --
*******-101.468 -10.355 -10.247 -10.206  -9.535  -9.380  -7.298
 -7.290  -7.288  -7.143  -7.136  -7.136  -0.947  -0.823  -0.715
 -0.706  -0.623  -0.535  -0.500  -0.479  -0.422  -0.406  -0.395
 -0.381  -0.362  -0.259  -0.242  -0.242

          Ground-State Mulliken Net Atomic Charges

     Atom                 Charge (a.u.)    Spin (a.u.)
  --------------------------------------------------------
      1 Cl                   -0.494788       0.000000
      2 Cl                    0.152068      -0.000000
      3 C                    -0.210262      -0.000000
      4 C                    -0.095228       0.000000
      5 C                    -0.330682       0.000000
      6 H                     0.151017       0.000000
      7 H                     0.176188      -0.000000
      8 H                     0.226198      -0.000000
      9 H                     0.177712      -0.000000
     10 H                     0.123457      -0.000000
     11 H                     0.124320      -0.000000
  --------------------------------------------------------
  Sum of atomic charges =     0.000000

                    Cartesian Multipole Moments
 -----------------------------------------------------------------
    Charge (ESU x 10^10)
                -0.0000
    Dipole Moment (Debye)
         X      -3.0230      Y       5.3144      Z       2.7114
       Tot       6.6883
    Quadrupole Moments (Debye-Ang)
        XX     -45.2371     XY       6.4363     YY     -53.6681
        XZ       1.5271     YZ      -2.3286     ZZ     -42.5015

 Final energy is   -1038.26787386681
 **  OPTIMIZATION CONVERGED  **
 Total job time:  27.89s(wall), 302.49s(cpu)
        *  Thank you very much for using Q-Chem.  Have a nice day.  *
