 Q-Chem 5.1, Q-Chem, Inc., Pleasanton, CA (2018)
 Q-Chem 5.1.1 for Intel X86 EM64T Linux

User input:
--------------------------------------------------------------

$comment
potential surface scanner
$end

$rem
JOBTYPE  PES_SCAN
UNRESTRICTED TRUE
SYM_IGNORE  TRUE
GEOM_OPT_MAX_CYCLES 400
SCF_MAX_CYCLES 400
METHOD   B3LYP
BASIS   6-31G**
PDB_PRINT 2
SCF_CONVERGENCE 6
THRESH 14
SCF_PRINT 1
$end
$molecule
0 3
Cl -0.500264 -2.073488 -0.591906
Cl -0.527923 2.280515 0.186745
C -0.891130 0.558640 2.332491
C 0.055325 1.278757 1.518492
C -0.985822 -1.063925 -2.010703
H -1.295110 0.996363 3.243571
H -1.305925 -0.393984 2.004526
H 1.109335 1.042151 1.427022
H -1.030268 -0.024264 -1.689840
H -1.961590 -1.405685 -2.352892
H -0.238730 -1.195073 -2.792103
$end
$scan
stre 1 4 3.900000 3.901000 0.100000
$end
--------------------------------------------------------------

   10   -1038.2074749567      9.25e-07  Convergence criterion met
 Total energy in the final basis set =    -1038.2074749567
   10   -1038.2071962312      9.16e-07  Convergence criterion met
 Total energy in the final basis set =    -1038.2071962312
   10   -1038.2073505347      9.22e-07  Convergence criterion met
 Total energy in the final basis set =    -1038.2073505347
   10   -1038.2074031980      9.26e-07  Convergence criterion met
 Total energy in the final basis set =    -1038.2074031980
   10   -1038.2074052128      9.25e-07  Convergence criterion met
 Total energy in the final basis set =    -1038.2074052128
   10   -1038.2074077887      9.24e-07  Convergence criterion met
 Total energy in the final basis set =    -1038.2074077887
   10   -1038.2074094902      9.24e-07  Convergence criterion met
 Total energy in the final basis set =    -1038.2074094902
   10   -1038.2074114139      9.24e-07  Convergence criterion met
 Total energy in the final basis set =    -1038.2074114139
   10   -1038.2074128104      9.25e-07  Convergence criterion met
 Total energy in the final basis set =    -1038.2074128104
   10   -1038.2074143925      9.26e-07  Convergence criterion met
 Total energy in the final basis set =    -1038.2074143925
   10   -1038.2074160584      9.26e-07  Convergence criterion met
 Total energy in the final basis set =    -1038.2074160584
   10   -1038.2074174699      9.27e-07  Convergence criterion met
 Total energy in the final basis set =    -1038.2074174699

             Standard Nuclear Orientation (Angstroms)
    I     Atom           X                Y                Z
 ----------------------------------------------------------------
    1      Cl     -0.4562419246    -2.0162304801    -0.5599396574
    2      Cl     -0.5304138994     2.2940660061     0.1967149640
    3      C      -0.8998451752     0.5548100466     2.3277977905
    4      C       0.0516556071     1.2549777973     1.5019135070
    5      C      -0.9776734748    -1.0541437966    -1.9989791091
    6      H      -1.2687879144     0.9921122173     3.2536594552
    7      H      -1.3553765873    -0.3766214810     1.9924989035
    8      H       1.0905053459     0.9735215012     1.3718317749
    9      H      -1.0447026630    -0.0084566558    -1.7027137517
   10      H      -1.9475104345    -1.4276374459    -2.3242163714
   11      H      -0.2337108798    -1.1863907092    -2.7831645056
 ----------------------------------------------------------------

   10   -1038.2074182589      9.26e-07  Convergence criterion met
 Total energy in the final basis set =    -1038.2074182589

                    Orbital Energies (a.u.)
 --------------------------------------------------------------

 Alpha MOs
 -- Occupied --
*******-101.537 -10.253 -10.244 -10.218  -9.468  -9.454  -7.231
 -7.223  -7.221  -7.218  -7.208  -7.208  -0.870  -0.849  -0.748
 -0.679  -0.601  -0.464  -0.454  -0.450  -0.447  -0.437  -0.412
 -0.353  -0.314  -0.299  -0.298  -0.236  -0.208

 Beta MOs
 -- Occupied --
*******-101.537 -10.244 -10.240 -10.205  -9.466  -9.454  -7.229
 -7.220  -7.220  -7.218  -7.208  -7.208  -0.853  -0.849  -0.709
 -0.679  -0.569  -0.451  -0.450  -0.443  -0.428  -0.419  -0.411
 -0.332  -0.309  -0.299  -0.298

          Ground-State Mulliken Net Atomic Charges

     Atom                 Charge (a.u.)    Spin (a.u.)
  --------------------------------------------------------
      1 Cl                   -0.104043       0.000501
      2 Cl                   -0.041182       0.136896
      3 C                    -0.199033       0.972874
      4 C                    -0.199614       0.904718
      5 C                    -0.403952       0.000536
      6 H                     0.132982      -0.007413
      7 H                     0.146256       0.008271
      8 H                     0.162837      -0.016467
      9 H                     0.179321       0.000044
     10 H                     0.162880       0.000038
     11 H                     0.163549       0.000002
  --------------------------------------------------------
  Sum of atomic charges =    -0.000000

                    Cartesian Multipole Moments
 -----------------------------------------------------------------
    Charge (ESU x 10^10)
                -0.0000
    Dipole Moment (Debye)
         X      -0.3728      Y      -0.1297      Z      -0.5480
       Tot       0.6754
    Quadrupole Moments (Debye-Ang)
        XX     -43.1286     XY       1.0259     YY     -51.8292
        XZ       1.2057     YZ       0.8801     ZZ     -37.2321

 Final energy is   -1038.20741825889
 **  OPTIMIZATION CONVERGED  **
 Total job time:  41.36s(wall), 475.53s(cpu)
        *  Thank you very much for using Q-Chem.  Have a nice day.  *
