 Q-Chem 5.1, Q-Chem, Inc., Pleasanton, CA (2018)
 Q-Chem 5.1.1 for Intel X86 EM64T Linux

User input:
--------------------------------------------------------------

$comment
potential surface scanner
$end

$rem
JOBTYPE  PES_SCAN
UNRESTRICTED TRUE
SYM_IGNORE  TRUE
GEOM_OPT_MAX_CYCLES 400
SCF_MAX_CYCLES 400
METHOD   B3LYP
BASIS   6-31G**
PDB_PRINT 2
SCF_CONVERGENCE 6
THRESH 14
SCF_PRINT 1
$end
$molecule
0 3
Cl -1.119023 -2.622435 -0.745502
Cl 0.128273 2.462874 0.149364
C -0.634775 0.404588 1.845108
C 0.213673 1.555249 1.656763
C -1.216253 -1.158952 -1.802012
H -1.672160 0.510477 2.163736
H -0.302045 -0.596396 1.574766
H 0.733888 2.092358 2.441528
H -0.993817 -0.281615 -1.196044
H -2.224186 -1.099042 -2.210030
H -0.485674 -1.267104 -2.602272
$end
$scan
stre 1 4 4.900000 4.901000 0.100000
$end
--------------------------------------------------------------

   10   -1038.2076903771      9.06e-07  Convergence criterion met
 Total energy in the final basis set =    -1038.2076903771
   10   -1038.2075903580      9.02e-07  Convergence criterion met
 Total energy in the final basis set =    -1038.2075903580
   10   -1038.2076300171      9.04e-07  Convergence criterion met
 Total energy in the final basis set =    -1038.2076300171
   10   -1038.2077236883      9.10e-07  Convergence criterion met
 Total energy in the final basis set =    -1038.2077236883
   10   -1038.2077264665      9.09e-07  Convergence criterion met
 Total energy in the final basis set =    -1038.2077264665
   10   -1038.2077305435      9.08e-07  Convergence criterion met
 Total energy in the final basis set =    -1038.2077305435

             Standard Nuclear Orientation (Angstroms)
    I     Atom           X                Y                Z
 ----------------------------------------------------------------
    1      Cl     -1.0971935201    -2.5775518466    -0.6939040889
    2      Cl      0.1170850262     2.4388477656     0.1250620242
    3      C      -0.6446226465     0.3852036231     1.8280590470
    4      C       0.2060890716     1.5326261983     1.6337323736
    5      C      -1.2071178433    -1.1349191590    -1.7788674482
    6      H      -1.6805429786     0.4941442081     2.1502928256
    7      H      -0.3181606461    -0.6159117684     1.5505464908
    8      H       0.7351712879     2.0678403495     2.4137169419
    9      H      -0.9880065042    -0.2450022284    -1.1908171845
   10      H      -2.2169041148    -1.0900559166    -2.1839239361
   11      H      -0.4778961321    -1.2552192256    -2.5784920454
 ----------------------------------------------------------------

   10   -1038.2077311477      9.07e-07  Convergence criterion met
 Total energy in the final basis set =    -1038.2077311477

                    Orbital Energies (a.u.)
 --------------------------------------------------------------

 Alpha MOs
 -- Occupied --
*******-101.537 -10.257 -10.244 -10.223  -9.472  -9.453  -7.236
 -7.228  -7.226  -7.217  -7.207  -7.207  -0.875  -0.848  -0.752
 -0.679  -0.606  -0.468  -0.458  -0.450  -0.448  -0.441  -0.411
 -0.357  -0.318  -0.298  -0.298  -0.241  -0.210

 Beta MOs
 -- Occupied --
*******-101.537 -10.244 -10.244 -10.210  -9.471  -9.453  -7.234
 -7.225  -7.225  -7.217  -7.207  -7.207  -0.858  -0.848  -0.713
 -0.679  -0.573  -0.451  -0.450  -0.448  -0.431  -0.424  -0.411
 -0.335  -0.313  -0.298  -0.298

          Ground-State Mulliken Net Atomic Charges

     Atom                 Charge (a.u.)    Spin (a.u.)
  --------------------------------------------------------
      1 Cl                   -0.103216       0.000829
      2 Cl                   -0.030214       0.138226
      3 C                    -0.206719       0.967489
      4 C                    -0.208626       0.905464
      5 C                    -0.404858       0.002405
      6 H                     0.133637       0.007256
      7 H                     0.155445      -0.005577
      8 H                     0.160993      -0.017733
      9 H                     0.175317       0.001417
     10 H                     0.163291       0.000032
     11 H                     0.164951       0.000193
  --------------------------------------------------------
  Sum of atomic charges =     0.000000

                    Cartesian Multipole Moments
 -----------------------------------------------------------------
    Charge (ESU x 10^10)
                 0.0000
    Dipole Moment (Debye)
         X      -0.3933      Y       0.8095      Z       0.1302
       Tot       0.9094
    Quadrupole Moments (Debye-Ang)
        XX     -44.1987     XY      -1.4188     YY     -52.5967
        XZ       1.3683     YZ       1.4772     ZZ     -38.2228

 Final energy is   -1038.20773114770
 **  OPTIMIZATION CONVERGED  **
 Total job time:  23.35s(wall), 264.06s(cpu)
        *  Thank you very much for using Q-Chem.  Have a nice day.  *
