 Q-Chem 5.1, Q-Chem, Inc., Pleasanton, CA (2018)
 Q-Chem 5.1.1 for Intel X86 EM64T Linux

User input:
--------------------------------------------------------------

$comment
potential surface scanner
$end

$rem
JOBTYPE  PES_SCAN
UNRESTRICTED TRUE
SYM_IGNORE  TRUE
GEOM_OPT_MAX_CYCLES 400
SCF_MAX_CYCLES 400
METHOD   B3LYP
BASIS   6-31G**
PDB_PRINT 2
SCF_CONVERGENCE 6
THRESH 14
SCF_PRINT 1
$end
$molecule
0 1
Cl 0.838898 -2.685437 -1.060330
Cl 0.944481 1.973664 0.061025
C -1.055659 0.238286 0.816880
C 0.365617 0.586809 0.812746
C -1.642647 -0.080689 -0.594305
H -1.618767 1.092403 1.227521
H -1.186690 -0.627211 1.471045
H 1.129934 -0.023165 1.285481
H -1.115288 -0.953670 -0.993180
H -2.709116 -0.290562 -0.481305
H -1.522864 0.769572 -1.270181
$end
$scan
stre 1 4 3.900000 3.901000 0.100000
$end
--------------------------------------------------------------

   16   -1038.2306644151      1.09e-07  Convergence criterion met
 Total energy in the final basis set =    -1038.2306644151
   16   -1038.2281632501      2.62e-07  Convergence criterion met
 Total energy in the final basis set =    -1038.2281632501
   16   -1038.2281543241      2.60e-07  Convergence criterion met
 Total energy in the final basis set =    -1038.2281543241
   16   -1038.2281609951      2.50e-07  Convergence criterion met
 Total energy in the final basis set =    -1038.2281609951
   16   -1038.2281630361      2.43e-07  Convergence criterion met
 Total energy in the final basis set =    -1038.2281630361
   16   -1038.2281670386      2.29e-07  Convergence criterion met
 Total energy in the final basis set =    -1038.2281670386
   16   -1038.2281710730      2.19e-07  Convergence criterion met
 Total energy in the final basis set =    -1038.2281710730
   16   -1038.2281783656      2.08e-07  Convergence criterion met
   16   -1038.2282819786      2.64e-07  Convergence criterion met
 Total energy in the final basis set =    -1038.2282819786
   16   -1038.2282843438      2.64e-07  Convergence criterion met
 Total energy in the final basis set =    -1038.2282843438
   16   -1038.2282897548      2.62e-07  Convergence criterion met
 Total energy in the final basis set =    -1038.2282897548
   16   -1038.2282978418      2.60e-07  Convergence criterion met
 Total energy in the final basis set =    -1038.2282978418
   16   -1038.2283038233      2.53e-07  Convergence criterion met
 Total energy in the final basis set =    -1038.2283038233
   16   -1038.2283058243      2.49e-07  Convergence criterion met
 Total energy in the final basis set =    -1038.2283058243

             Standard Nuclear Orientation (Angstroms)
    I     Atom           X                Y                Z
 ----------------------------------------------------------------
    1      Cl      0.9381106088    -2.6743873301    -1.2391614026
    2      Cl      0.9821445616     2.0379166133     0.2588410774
    3      C      -1.0885484348     0.3236034514     0.8426385279
    4      C       0.3470610949     0.5866896200     0.8165711217
    5      C      -1.6350876321    -0.1383899524    -0.5602132805
    6      H      -1.6312556179     1.2295157341     1.1376245090
    7      H      -1.2749255099    -0.4787966499     1.5636355237
    8      H       1.0876216566    -0.1649888558     1.0808223481
    9      H      -1.1175518895    -1.0527093525    -0.8615010046
   10      H      -2.7098508080    -0.3096875802    -0.4563550359
   11      H      -1.4698190297     0.6412343021    -1.3075053843
 ----------------------------------------------------------------

   16   -1038.2283062485      2.49e-07  Convergence criterion met
 Total energy in the final basis set =    -1038.2283062485

                    Orbital Energies (a.u.)
 --------------------------------------------------------------

 Alpha MOs
 -- Occupied --
*******-101.443 -10.362 -10.262 -10.220  -9.561  -9.356  -7.324
 -7.317  -7.313  -7.118  -7.111  -7.111  -0.971  -0.838  -0.719
 -0.684  -0.643  -0.556  -0.517  -0.472  -0.458  -0.418  -0.407
 -0.393  -0.383  -0.226  -0.221  -0.220

 Beta MOs
 -- Occupied --
*******-101.443 -10.362 -10.262 -10.220  -9.561  -9.356  -7.324
 -7.317  -7.313  -7.118  -7.111  -7.111  -0.971  -0.838  -0.719
 -0.684  -0.643  -0.556  -0.517  -0.472  -0.458  -0.418  -0.407
 -0.393  -0.383  -0.226  -0.221  -0.220

          Ground-State Mulliken Net Atomic Charges

     Atom                 Charge (a.u.)    Spin (a.u.)
  --------------------------------------------------------
      1 Cl                   -0.549670      -0.000000
      2 Cl                    0.180119       0.000000
      3 C                    -0.239071      -0.000000
      4 C                    -0.106479       0.000000
      5 C                    -0.322225       0.000000
      6 H                     0.156880       0.000000
      7 H                     0.170920       0.000000
      8 H                     0.244619      -0.000000
      9 H                     0.201133       0.000000
     10 H                     0.132771       0.000000
     11 H                     0.131002       0.000000
  --------------------------------------------------------
  Sum of atomic charges =     0.000000

                    Cartesian Multipole Moments
 -----------------------------------------------------------------
    Charge (ESU x 10^10)
                 0.0000
    Dipole Moment (Debye)
         X      -2.8582      Y       7.6056      Z       4.6466
       Tot       9.3597
    Quadrupole Moments (Debye-Ang)
        XX     -43.4849     XY       7.1364     YY     -59.5450
        XZ       3.2443     YZ      -7.9109     ZZ     -46.6968

 Final energy is   -1038.22830624854
 **  OPTIMIZATION CONVERGED  **
 Total job time:  134.60s(wall), 1511.02s(cpu)
        *  Thank you very much for using Q-Chem.  Have a nice day.  *
