 Q-Chem 5.1, Q-Chem, Inc., Pleasanton, CA (2018)
 Q-Chem 5.1.1 for Intel X86 EM64T Linux

User input:
--------------------------------------------------------------

$comment
potential surface scanner
$end

$rem
JOBTYPE  PES_SCAN
UNRESTRICTED TRUE
SYM_IGNORE  TRUE
GEOM_OPT_MAX_CYCLES 400
SCF_MAX_CYCLES 400
METHOD   B3LYP
BASIS   6-31G**
PDB_PRINT 2
SCF_CONVERGENCE 6
THRESH 14
SCF_PRINT 1
$end
$molecule
0 1
Cl 1.176259 -1.855029 -0.382772
Cl 1.101423 1.478966 -0.340609
C -1.026954 0.047190 0.707205
C 0.455079 0.202738 0.619969
C -1.791474 0.028300 -0.616396
H -1.368029 0.890562 1.332689
H -1.211667 -0.865209 1.282128
H 1.053196 0.014232 1.503869
H -1.451068 -0.808369 -1.230582
H -2.860755 -0.088296 -0.421739
H -1.648112 0.954915 -1.178368
$end
$scan
stre 1 4 2.500000 2.501000 0.100000
$end
--------------------------------------------------------------

   10   -1038.3013685643      3.46e-07  Convergence criterion met
 Total energy in the final basis set =    -1038.3013685643
   10   -1038.2939131412      4.83e-07  Convergence criterion met
 Total energy in the final basis set =    -1038.2939131412
   10   -1038.2938374124      4.87e-07  Convergence criterion met
 Total energy in the final basis set =    -1038.2938374124
   10   -1038.2939780966      4.91e-07  Convergence criterion met
 Total energy in the final basis set =    -1038.2939780966
   10   -1038.2939824822      4.92e-07  Convergence criterion met
 Total energy in the final basis set =    -1038.2939824822
   10   -1038.2939844361      4.92e-07  Convergence criterion met
 Total energy in the final basis set =    -1038.2939844361

             Standard Nuclear Orientation (Angstroms)
    I     Atom           X                Y                Z
 ----------------------------------------------------------------
    1      Cl      1.1822038934    -1.9198858105    -0.4004467732
    2      Cl      1.0968599993     1.4860905600    -0.3409256044
    3      C      -1.0306441717     0.0569120659     0.7115112098
    4      C       0.4453324660     0.2344350584     0.6319877208
    5      C      -1.7889312559     0.0318089048    -0.6161335519
    6      H      -1.3866710285     0.8945816952     1.3381083527
    7      H      -1.2048728615    -0.8589160538     1.2838396660
    8      H       1.0591575049     0.0130018567     1.4969215479
    9      H      -1.4286286972    -0.7971102401    -1.2295468792
   10      H      -2.8567054838    -0.1041256436    -0.4264153369
   11      H      -1.6592023650     0.9632076072    -1.1735063515
 ----------------------------------------------------------------

   10   -1038.2939846773      4.92e-07  Convergence criterion met
 Total energy in the final basis set =    -1038.2939846773

                    Orbital Energies (a.u.)
 --------------------------------------------------------------

 Alpha MOs
 -- Occupied --
*******-101.493 -10.344 -10.237 -10.199  -9.513  -9.405  -7.277
 -7.268  -7.267  -7.168  -7.160  -7.160  -0.926  -0.812  -0.737
 -0.702  -0.611  -0.520  -0.491  -0.467  -0.410  -0.397  -0.387
 -0.371  -0.346  -0.289  -0.265  -0.264

 Beta MOs
 -- Occupied --
*******-101.493 -10.344 -10.237 -10.199  -9.513  -9.405  -7.277
 -7.268  -7.267  -7.168  -7.160  -7.160  -0.926  -0.812  -0.737
 -0.702  -0.611  -0.520  -0.491  -0.467  -0.410  -0.397  -0.387
 -0.371  -0.346  -0.289  -0.265  -0.264

          Ground-State Mulliken Net Atomic Charges

     Atom                 Charge (a.u.)    Spin (a.u.)
  --------------------------------------------------------
      1 Cl                   -0.384940       0.000000
      2 Cl                    0.105667       0.000000
      3 C                    -0.193939      -0.000000
      4 C                    -0.130200       0.000000
      5 C                    -0.326492      -0.000000
      6 H                     0.142468       0.000000
      7 H                     0.163338      -0.000000
      8 H                     0.216488       0.000000
      9 H                     0.163875       0.000000
     10 H                     0.118504      -0.000000
     11 H                     0.125230       0.000000
  --------------------------------------------------------
  Sum of atomic charges =    -0.000000

                    Cartesian Multipole Moments
 -----------------------------------------------------------------
    Charge (ESU x 10^10)
                 0.0000
    Dipole Moment (Debye)
         X      -2.5952      Y       3.5287      Z       2.2842
       Tot       4.9401
    Quadrupole Moments (Debye-Ang)
        XX     -45.2811     XY       4.3148     YY     -50.6089
        XZ       1.1880     YZ      -1.2734     ZZ     -42.5633

 Final energy is   -1038.29398467732
 **  OPTIMIZATION CONVERGED  **
 Total job time:  26.81s(wall), 289.15s(cpu)
        *  Thank you very much for using Q-Chem.  Have a nice day.  *
