 Q-Chem 5.1, Q-Chem, Inc., Pleasanton, CA (2018)
 Q-Chem 5.1.1 for Intel X86 EM64T Linux

User input:
--------------------------------------------------------------

$comment
potential surface scanner
$end

$rem
JOBTYPE  PES_SCAN
UNRESTRICTED TRUE
SYM_IGNORE  TRUE
GEOM_OPT_MAX_CYCLES 400
SCF_MAX_CYCLES 400
METHOD   B3LYP
BASIS   6-31G**
PDB_PRINT 2
SCF_CONVERGENCE 6
THRESH 14
SCF_PRINT 1
$end
$molecule
0 1
Cl 0.766531 -2.957665 -1.397181
Cl 0.909967 2.170675 0.349416
C -1.080673 0.337171 0.853781
C 0.336618 0.676981 0.859924
C -1.579748 -0.148687 -0.563289
H -1.679367 1.210767 1.137410
H -1.241876 -0.478396 1.566330
H 1.110255 -0.043724 1.112937
H -1.042540 -1.055451 -0.853582
H -2.652256 -0.343840 -0.479943
H -1.419011 0.632170 -1.310404
$end
$scan
stre 1 4 4.400000 4.401000 0.100000
$end
--------------------------------------------------------------

   20   -1038.2204852205      6.59e-08  Convergence criterion met
 Total energy in the final basis set =    -1038.2204852205
   27   -1038.2188557779      7.47e-07  Convergence criterion met
 Total energy in the final basis set =    -1038.2188557779
   28   -1038.2188596634      8.34e-07  Convergence criterion met
 Total energy in the final basis set =    -1038.2188596634
   23   -1038.2189099227      8.85e-07  Convergence criterion met
 Total energy in the final basis set =    -1038.2189099227
   21   -1038.2189159038      3.24e-07  Convergence criterion met
 Total energy in the final basis set =    -1038.2189159038
   21   -1038.2189284977      7.13e-07  Convergence criterion met
 Total energy in the final basis set =    -1038.2189284977
   21   -1038.2189362196      5.71e-07  Convergence criterion met
 Total energy in the final basis set =    -1038.2189362196
   21   -1038.2189938492      1.22e-07  Convergence criterion met
   18   -1038.2195306117      7.18e-07  Convergence criterion met
 Total energy in the final basis set =    -1038.2195306117
   18   -1038.2195721048      3.10e-07  Convergence criterion met
 Total energy in the final basis set =    -1038.2195721048
   18   -1038.2195894325      1.91e-07  Convergence criterion met
 Total energy in the final basis set =    -1038.2195894325
   18   -1038.2195978015      2.66e-07  Convergence criterion met
 Total energy in the final basis set =    -1038.2195978015
   17   -1038.2195996672      9.21e-07  Convergence criterion met
 Total energy in the final basis set =    -1038.2195996672
   18   -1038.2196032552      3.82e-07  Convergence criterion met
 Total energy in the final basis set =    -1038.2196032552

             Standard Nuclear Orientation (Angstroms)
    I     Atom           X                Y                Z
 ----------------------------------------------------------------
    1      Cl      0.2629773000    -2.7857165970    -1.6082012507
    2      Cl      0.9595494687     1.9463086199    -0.0536058178
    3      C      -0.9961636727     0.2086750231     0.8216221319
    4      C       0.3341950735     0.7734798528     0.9777315098
    5      C      -1.4972743338    -0.1787194383    -0.5871945651
    6      H      -1.6840150458     1.0107445083     1.1678103316
    7      H      -1.1030877467    -0.6182857464     1.5292725254
    8      H       0.9975073411     0.5011730554     1.7927877403
    9      H      -0.9469137193    -1.0888833175    -0.9097213464
   10      H      -2.5684635641    -0.3874713713    -0.5396086934
   11      H      -1.3304111009     0.6186964111    -1.3154935655
 ----------------------------------------------------------------

   18   -1038.2196042339      3.44e-07  Convergence criterion met
 Total energy in the final basis set =    -1038.2196042339

                    Orbital Energies (a.u.)
 --------------------------------------------------------------

 Alpha MOs
 -- Occupied --
*******-101.440 -10.355 -10.263 -10.209  -9.556  -9.353  -7.319
 -7.312  -7.308  -7.115  -7.109  -7.108  -0.966  -0.838  -0.723
 -0.684  -0.635  -0.554  -0.514  -0.489  -0.438  -0.416  -0.402
 -0.388  -0.378  -0.221  -0.219  -0.219

 Beta MOs
 -- Occupied --
*******-101.440 -10.355 -10.263 -10.209  -9.556  -9.353  -7.319
 -7.312  -7.308  -7.115  -7.109  -7.108  -0.966  -0.838  -0.723
 -0.684  -0.635  -0.554  -0.514  -0.489  -0.438  -0.416  -0.402
 -0.388  -0.378  -0.221  -0.219  -0.219

          Ground-State Mulliken Net Atomic Charges

     Atom                 Charge (a.u.)    Spin (a.u.)
  --------------------------------------------------------
      1 Cl                   -0.515387      -0.000000
      2 Cl                    0.173348       0.000000
      3 C                    -0.236364      -0.000000
      4 C                    -0.116488       0.000000
      5 C                    -0.311492      -0.000000
      6 H                     0.183658       0.000000
      7 H                     0.173933      -0.000000
      8 H                     0.210733      -0.000000
      9 H                     0.181185       0.000000
     10 H                     0.128203       0.000000
     11 H                     0.128670      -0.000000
  --------------------------------------------------------
  Sum of atomic charges =     0.000000

                    Cartesian Multipole Moments
 -----------------------------------------------------------------
    Charge (ESU x 10^10)
                 0.0000
    Dipole Moment (Debye)
         X      -1.3461      Y       7.9819      Z       5.8639
       Tot       9.9954
    Quadrupole Moments (Debye-Ang)
        XX     -41.6612     XY       2.5102     YY     -61.2708
        XZ       1.1520     YZ     -10.3728     ZZ     -47.5414

 Final energy is   -1038.21960423388
 **  OPTIMIZATION CONVERGED  **
 Total job time:  185.05s(wall), 2149.86s(cpu)
        *  Thank you very much for using Q-Chem.  Have a nice day.  *
