 Q-Chem 5.1, Q-Chem, Inc., Pleasanton, CA (2018)
 Q-Chem 5.1.1 for Intel X86 EM64T Linux

User input:
--------------------------------------------------------------

$comment
potential surface scanner
$end

$rem
JOBTYPE  PES_SCAN
UNRESTRICTED TRUE
SYM_IGNORE  TRUE
GEOM_OPT_MAX_CYCLES 400
SCF_MAX_CYCLES 400
METHOD   B3LYP
BASIS   6-31G**
PDB_PRINT 2
SCF_CONVERGENCE 6
THRESH 14
SCF_PRINT 1
$end
$molecule
0 3
Cl -1.326362 -2.643335 -0.788695
Cl 0.058186 2.423503 0.097656
C -0.581334 0.379770 1.862024
C 0.186242 1.579503 1.638170
C -1.211066 -1.145049 -1.792614
H -1.625632 0.423295 2.172242
H -0.177334 -0.605315 1.633533
H 0.672664 2.172229 2.404139
H -0.970567 -0.309536 -1.136993
H -2.171426 -0.986025 -2.281064
H -0.425469 -1.289038 -2.532993
$end
$scan
stre 1 4 5.000000 5.001000 0.100000
$end
--------------------------------------------------------------

   10   -1038.2075764653      9.05e-07  Convergence criterion met
 Total energy in the final basis set =    -1038.2075764653
   10   -1038.2073888408      9.03e-07  Convergence criterion met
 Total energy in the final basis set =    -1038.2073888408
   10   -1038.2075058909      9.06e-07  Convergence criterion met
 Total energy in the final basis set =    -1038.2075058909
   10   -1038.2076136020      9.09e-07  Convergence criterion met
 Total energy in the final basis set =    -1038.2076136020
   10   -1038.2076198723      9.08e-07  Convergence criterion met
 Total energy in the final basis set =    -1038.2076198723
   10   -1038.2076249870      9.05e-07  Convergence criterion met
 Total energy in the final basis set =    -1038.2076249870
   10   -1038.2076267047      9.05e-07  Convergence criterion met
 Total energy in the final basis set =    -1038.2076267047
   10   -1038.2076313209      9.04e-07  Convergence criterion met
   10   -1038.2076687222      9.04e-07  Convergence criterion met
 Total energy in the final basis set =    -1038.2076687222
   10   -1038.2076790566      9.06e-07  Convergence criterion met
 Total energy in the final basis set =    -1038.2076790566
   10   -1038.2076833918      9.07e-07  Convergence criterion met
 Total energy in the final basis set =    -1038.2076833918
   10   -1038.2076858187      9.07e-07  Convergence criterion met
 Total energy in the final basis set =    -1038.2076858187
   10   -1038.2076880734      9.07e-07  Convergence criterion met
 Total energy in the final basis set =    -1038.2076880734
   10   -1038.2076896264      9.06e-07  Convergence criterion met
 Total energy in the final basis set =    -1038.2076896264

             Standard Nuclear Orientation (Angstroms)
    I     Atom           X                Y                Z
 ----------------------------------------------------------------
    1      Cl     -1.1190229575    -2.6224350461    -0.7455017575
    2      Cl      0.1282727322     2.4628741779     0.1493643896
    3      C      -0.6347753393     0.4045876022     1.8451078594
    4      C       0.2136727043     1.5552493257     1.6567631913
    5      C      -1.2162525258    -1.1589521393    -1.8020123761
    6      H      -1.6721602969     0.5104765949     2.1637362611
    7      H      -0.3020446066    -0.5963962704     1.5747657738
    8      H       0.7338884887     2.0923583189     2.4415282414
    9      H      -0.9938167377    -0.2816146987    -1.1960439029
   10      H      -2.2241858895    -1.0990421279    -2.2100303019
   11      H      -0.4856735719    -1.2671037372    -2.6022723782
 ----------------------------------------------------------------

   10   -1038.2076903769      9.06e-07  Convergence criterion met
 Total energy in the final basis set =    -1038.2076903769

                    Orbital Energies (a.u.)
 --------------------------------------------------------------

 Alpha MOs
 -- Occupied --
*******-101.537 -10.257 -10.244 -10.223  -9.472  -9.453  -7.236
 -7.228  -7.226  -7.217  -7.207  -7.207  -0.875  -0.848  -0.752
 -0.679  -0.606  -0.468  -0.458  -0.450  -0.449  -0.441  -0.411
 -0.358  -0.318  -0.298  -0.298  -0.241  -0.210

 Beta MOs
 -- Occupied --
*******-101.537 -10.244 -10.244 -10.211  -9.471  -9.453  -7.234
 -7.225  -7.225  -7.217  -7.207  -7.207  -0.858  -0.848  -0.713
 -0.679  -0.574  -0.450  -0.450  -0.449  -0.432  -0.424  -0.411
 -0.335  -0.313  -0.298  -0.298

          Ground-State Mulliken Net Atomic Charges

     Atom                 Charge (a.u.)    Spin (a.u.)
  --------------------------------------------------------
      1 Cl                   -0.102697       0.000631
      2 Cl                   -0.029483       0.138316
      3 C                    -0.206497       0.968492
      4 C                    -0.208477       0.904723
      5 C                    -0.404663       0.002374
      6 H                     0.134003       0.007039
      7 H                     0.154300      -0.005626
      8 H                     0.161025      -0.017604
      9 H                     0.174383       0.001454
     10 H                     0.163248       0.000030
     11 H                     0.164858       0.000173
  --------------------------------------------------------
  Sum of atomic charges =    -0.000000

                    Cartesian Multipole Moments
 -----------------------------------------------------------------
    Charge (ESU x 10^10)
                 0.0000
    Dipole Moment (Debye)
         X      -0.3811      Y       0.8434      Z       0.1705
       Tot       0.9411
    Quadrupole Moments (Debye-Ang)
        XX     -44.2490     XY      -1.5300     YY     -52.8120
        XZ       1.3247     YZ       1.3754     ZZ     -38.1465

 Final energy is   -1038.20769037689
 **  OPTIMIZATION CONVERGED  **
 Total job time:  55.48s(wall), 634.41s(cpu)
        *  Thank you very much for using Q-Chem.  Have a nice day.  *
