 Q-Chem 5.1, Q-Chem, Inc., Pleasanton, CA (2018)
 Q-Chem 5.1.1 for Intel X86 EM64T Linux

User input:
--------------------------------------------------------------

$comment
potential surface scanner
$end

$rem
JOBTYPE  PES_SCAN
UNRESTRICTED TRUE
SYM_IGNORE  TRUE
GEOM_OPT_MAX_CYCLES 400
SCF_MAX_CYCLES 400
METHOD   B3LYP
BASIS   6-31G**
PDB_PRINT 2
SCF_CONVERGENCE 6
THRESH 14
SCF_PRINT 1
$end
$molecule
0 3
Cl -0.856639 -2.371811 -0.630511
Cl -0.286255 2.362176 0.127525
C -0.782712 0.442741 2.073023
C 0.180950 1.341530 1.489514
C -1.099685 -1.094097 -1.885586
H -1.519870 0.792995 2.796166
H -0.875254 -0.582740 1.719494
H 1.101661 1.670862 1.957534
H -1.089461 -0.122326 -1.394361
H -2.058162 -1.272278 -2.370950
H -0.286676 -1.167047 -2.606443
$end
$scan
stre 1 4 4.300000 4.301000 0.100000
$end
--------------------------------------------------------------

   10   -1038.2076613737      9.17e-07  Convergence criterion met
 Total energy in the final basis set =    -1038.2076613737
   10   -1038.2068410720      8.92e-07  Convergence criterion met
 Total energy in the final basis set =    -1038.2068410720
   10   -1038.2073274706      9.05e-07  Convergence criterion met
 Total energy in the final basis set =    -1038.2073274706
   10   -1038.2075254882      9.17e-07  Convergence criterion met
 Total energy in the final basis set =    -1038.2075254882
   10   -1038.2075433875      9.18e-07  Convergence criterion met
 Total energy in the final basis set =    -1038.2075433875
   10   -1038.2075525523      9.17e-07  Convergence criterion met
 Total energy in the final basis set =    -1038.2075525523
   10   -1038.2075546910      9.17e-07  Convergence criterion met
 Total energy in the final basis set =    -1038.2075546910
   10   -1038.2075567672      9.16e-07  Convergence criterion met
   10   -1038.2075663147      9.16e-07  Convergence criterion met
 Total energy in the final basis set =    -1038.2075663147
   10   -1038.2075710749      9.18e-07  Convergence criterion met
 Total energy in the final basis set =    -1038.2075710749
   10   -1038.2075755714      9.19e-07  Convergence criterion met
 Total energy in the final basis set =    -1038.2075755714
   10   -1038.2075792485      9.19e-07  Convergence criterion met
 Total energy in the final basis set =    -1038.2075792485
   10   -1038.2075816234      9.19e-07  Convergence criterion met
 Total energy in the final basis set =    -1038.2075816234
   10   -1038.2075829317      9.18e-07  Convergence criterion met
 Total energy in the final basis set =    -1038.2075829317

             Standard Nuclear Orientation (Angstroms)
    I     Atom           X                Y                Z
 ----------------------------------------------------------------
    1      Cl     -0.7742801571    -2.3254035164    -0.6145286715
    2      Cl     -0.2871578853     2.3471095152     0.1267450013
    3      C      -0.8043017023     0.4518615938     2.0904170089
    4      C       0.1774016089     1.3095051530     1.4763421549
    5      C      -1.0951277701    -1.0845507720    -1.8894345365
    6      H      -1.5051833933     0.8335760582     2.8334782877
    7      H      -0.9520662001    -0.5674340473     1.7382930462
    8      H       1.1315782780     1.5901539465     1.9072891728
    9      H      -1.1451993242    -0.1067644903    -1.4129166892
   10      H      -2.0400448199    -1.3296879136    -2.3721752544
   11      H      -0.2777216346    -1.1183605271    -2.6081045203
 ----------------------------------------------------------------

   10   -1038.2075836655      9.17e-07  Convergence criterion met
 Total energy in the final basis set =    -1038.2075836655

                    Orbital Energies (a.u.)
 --------------------------------------------------------------

 Alpha MOs
 -- Occupied --
*******-101.537 -10.255 -10.243 -10.219  -9.470  -9.453  -7.234
 -7.226  -7.224  -7.217  -7.207  -7.207  -0.873  -0.848  -0.750
 -0.678  -0.603  -0.466  -0.456  -0.449  -0.446  -0.439  -0.411
 -0.356  -0.316  -0.298  -0.298  -0.237  -0.208

 Beta MOs
 -- Occupied --
*******-101.537 -10.243 -10.242 -10.206  -9.469  -9.453  -7.232
 -7.223  -7.223  -7.217  -7.207  -7.207  -0.855  -0.848  -0.710
 -0.678  -0.571  -0.451  -0.449  -0.445  -0.428  -0.422  -0.411
 -0.334  -0.311  -0.298  -0.297

          Ground-State Mulliken Net Atomic Charges

     Atom                 Charge (a.u.)    Spin (a.u.)
  --------------------------------------------------------
      1 Cl                   -0.102632       0.000150
      2 Cl                   -0.036313       0.136573
      3 C                    -0.204059       0.970553
      4 C                    -0.206640       0.908025
      5 C                    -0.403991       0.000545
      6 H                     0.130290       0.007281
      7 H                     0.156197      -0.004964
      8 H                     0.160649      -0.018175
      9 H                     0.179348      -0.000020
     10 H                     0.162437       0.000003
     11 H                     0.164714       0.000030
  --------------------------------------------------------
  Sum of atomic charges =    -0.000000

                    Cartesian Multipole Moments
 -----------------------------------------------------------------
    Charge (ESU x 10^10)
                 0.0000
    Dipole Moment (Debye)
         X      -0.2774      Y       0.5284      Z      -0.0986
       Tot       0.6049
    Quadrupole Moments (Debye-Ang)
        XX     -43.3073     XY       0.3531     YY     -51.8883
        XZ       1.6037     YZ       1.4582     ZZ     -37.5727

 Final energy is   -1038.20758366552
 **  OPTIMIZATION CONVERGED  **
 Total job time:  55.34s(wall), 637.66s(cpu)
        *  Thank you very much for using Q-Chem.  Have a nice day.  *
