 Q-Chem 5.1, Q-Chem, Inc., Pleasanton, CA (2018)
 Q-Chem 5.1.1 for Intel X86 EM64T Linux

User input:
--------------------------------------------------------------

$comment
potential surface scanner
$end

$rem
JOBTYPE  PES_SCAN
UNRESTRICTED TRUE
SYM_IGNORE  TRUE
GEOM_OPT_MAX_CYCLES 400
SCF_MAX_CYCLES 400
METHOD   B3LYP
BASIS   6-31G**
PDB_PRINT 2
SCF_CONVERGENCE 6
THRESH 14
SCF_PRINT 1
$end
$molecule
0 3
Cl -0.636224 -2.237919 -0.594791
Cl -0.335824 2.322966 0.128670
C -0.849478 0.475480 2.139263
C 0.148443 1.237961 1.433153
C -1.067325 -1.065040 -1.901819
H -1.433857 0.915567 2.947783
H -1.123825 -0.524003 1.806972
H 1.166619 1.410165 1.762251
H -1.192628 -0.081934 -1.451151
H -1.992828 -1.400091 -2.367895
H -0.255175 -1.053146 -2.627033
$end
$scan
stre 1 4 4.000000 4.001000 0.100000
$end
--------------------------------------------------------------

   10   -1038.2074004026      9.19e-07  Convergence criterion met
 Total energy in the final basis set =    -1038.2074004026
   10   -1038.2068062691      8.96e-07  Convergence criterion met
 Total energy in the final basis set =    -1038.2068062691
   10   -1038.2071269940      9.07e-07  Convergence criterion met
 Total energy in the final basis set =    -1038.2071269940
   10   -1038.2072504975      9.19e-07  Convergence criterion met
 Total energy in the final basis set =    -1038.2072504975
   10   -1038.2072603692      9.20e-07  Convergence criterion met
 Total energy in the final basis set =    -1038.2072603692
   10   -1038.2072659417      9.19e-07  Convergence criterion met
 Total energy in the final basis set =    -1038.2072659417
   10   -1038.2072675257      9.19e-07  Convergence criterion met
 Total energy in the final basis set =    -1038.2072675257
   10   -1038.2072696831      9.18e-07  Convergence criterion met
   10   -1038.2074497058      9.29e-07  Convergence criterion met
 Total energy in the final basis set =    -1038.2074497058
   10   -1038.2074550981      9.30e-07  Convergence criterion met
 Total energy in the final basis set =    -1038.2074550981
   10   -1038.2074608555      9.28e-07  Convergence criterion met
 Total energy in the final basis set =    -1038.2074608555
   10   -1038.2074670467      9.28e-07  Convergence criterion met
 Total energy in the final basis set =    -1038.2074670467
   10   -1038.2074725325      9.25e-07  Convergence criterion met
 Total energy in the final basis set =    -1038.2074725325
   10   -1038.2074742474      9.25e-07  Convergence criterion met
 Total energy in the final basis set =    -1038.2074742474

             Standard Nuclear Orientation (Angstroms)
    I     Atom           X                Y                Z
 ----------------------------------------------------------------
    1      Cl     -0.5002638660    -2.0734878096    -0.5919062195
    2      Cl     -0.5279230070     2.2805152402     0.1867450775
    3      C      -0.8911295134     0.5586396349     2.3324914396
    4      C       0.0553251780     1.2787567532     1.5184920082
    5      C      -0.9858224435    -1.0639246123    -2.0107033182
    6      H      -1.2951102303     0.9963629343     3.2435708779
    7      H      -1.3059254099    -0.3939843440     2.0045259883
    8      H       1.1093345393     1.0421511039     1.4270223028
    9      H      -1.0302678118    -0.0242642813    -1.6898403088
   10      H      -1.9615898220    -1.4056852354    -2.3528916917
   11      H      -0.2387296134    -1.1950733837    -2.7921031561
 ----------------------------------------------------------------

   10   -1038.2074749570      9.25e-07  Convergence criterion met
 Total energy in the final basis set =    -1038.2074749570

                    Orbital Energies (a.u.)
 --------------------------------------------------------------

 Alpha MOs
 -- Occupied --
*******-101.537 -10.254 -10.244 -10.218  -9.468  -9.453  -7.232
 -7.224  -7.222  -7.217  -7.207  -7.207  -0.871  -0.848  -0.749
 -0.679  -0.602  -0.464  -0.455  -0.450  -0.447  -0.437  -0.411
 -0.354  -0.314  -0.298  -0.298  -0.236  -0.208

 Beta MOs
 -- Occupied --
*******-101.537 -10.244 -10.240 -10.206  -9.467  -9.453  -7.230
 -7.221  -7.221  -7.217  -7.207  -7.207  -0.854  -0.848  -0.709
 -0.679  -0.569  -0.451  -0.450  -0.444  -0.428  -0.420  -0.411
 -0.332  -0.309  -0.298  -0.298

          Ground-State Mulliken Net Atomic Charges

     Atom                 Charge (a.u.)    Spin (a.u.)
  --------------------------------------------------------
      1 Cl                   -0.104162       0.000270
      2 Cl                   -0.039475       0.136386
      3 C                    -0.199439       0.972970
      4 C                    -0.200878       0.905274
      5 C                    -0.404081       0.000560
      6 H                     0.133161      -0.006763
      7 H                     0.147091       0.007844
      8 H                     0.162359      -0.016726
      9 H                     0.179334       0.000165
     10 H                     0.162752       0.000026
     11 H                     0.163338      -0.000004
  --------------------------------------------------------
  Sum of atomic charges =    -0.000000

                    Cartesian Multipole Moments
 -----------------------------------------------------------------
    Charge (ESU x 10^10)
                 0.0000
    Dipole Moment (Debye)
         X      -0.3137      Y      -0.0268      Z      -0.4872
       Tot       0.5800
    Quadrupole Moments (Debye-Ang)
        XX     -43.1483     XY       0.9459     YY     -51.9381
        XZ       1.2210     YZ       0.8395     ZZ     -37.1781

 Final energy is   -1038.20747495704
 **  OPTIMIZATION CONVERGED  **
 Total job time:  161.66s(wall), 1872.45s(cpu)
        *  Thank you very much for using Q-Chem.  Have a nice day.  *
