 Q-Chem 5.1, Q-Chem, Inc., Pleasanton, CA (2018)
 Q-Chem 5.1.1 for Intel X86 EM64T Linux

User input:
--------------------------------------------------------------

$comment
potential surface scanner
$end

$rem
JOBTYPE  PES_SCAN
UNRESTRICTED TRUE
SYM_IGNORE  TRUE
GEOM_OPT_MAX_CYCLES 400
SCF_MAX_CYCLES 400
METHOD   B3LYP
BASIS   6-31G**
PDB_PRINT 2
SCF_CONVERGENCE 6
THRESH 14
SCF_PRINT 1
$end
$molecule
0 3
Cl -0.986887 -2.484096 -0.677881
Cl -0.026225 2.316157 0.060654
C -0.698781 0.396208 1.951295
C 0.203485 1.458907 1.586130
C -1.167945 -1.104259 -1.832060
H -1.668472 0.606261 2.403665
H -0.494174 -0.637053 1.675921
H 0.871855 1.982271 2.260119
H -1.002096 -0.176736 -1.286173
H -2.175371 -1.135319 -2.244481
H -0.427491 -1.222338 -2.621784
$end
$scan
stre 1 4 4.600000 4.601000 0.100000
$end
--------------------------------------------------------------

   10   -1038.2077513178      9.14e-07  Convergence criterion met
 Total energy in the final basis set =    -1038.2077513178
   10   -1038.2067214942      8.90e-07  Convergence criterion met
 Total energy in the final basis set =    -1038.2067214942
   10   -1038.2073571385      9.02e-07  Convergence criterion met
 Total energy in the final basis set =    -1038.2073571385
   10   -1038.2076290490      9.14e-07  Convergence criterion met
 Total energy in the final basis set =    -1038.2076290490
   10   -1038.2076558381      9.14e-07  Convergence criterion met
 Total energy in the final basis set =    -1038.2076558381
   10   -1038.2076672901      9.13e-07  Convergence criterion met
 Total energy in the final basis set =    -1038.2076672901
   10   -1038.2076702253      9.12e-07  Convergence criterion met
 Total energy in the final basis set =    -1038.2076702253
   10   -1038.2076734606      9.11e-07  Convergence criterion met
   10   -1038.2077672756      9.14e-07  Convergence criterion met
 Total energy in the final basis set =    -1038.2077672756
   10   -1038.2077692458      9.15e-07  Convergence criterion met
 Total energy in the final basis set =    -1038.2077692458
   10   -1038.2077723403      9.16e-07  Convergence criterion met
 Total energy in the final basis set =    -1038.2077723403
   10   -1038.2077772577      9.18e-07  Convergence criterion met
 Total energy in the final basis set =    -1038.2077772577
   10   -1038.2077826582      9.18e-07  Convergence criterion met
 Total energy in the final basis set =    -1038.2077826582
   10   -1038.2077851708      9.18e-07  Convergence criterion met
 Total energy in the final basis set =    -1038.2077851708

             Standard Nuclear Orientation (Angstroms)
    I     Atom           X                Y                Z
 ----------------------------------------------------------------
    1      Cl     -0.9891182617    -2.4472899116    -0.6552880622
    2      Cl     -0.2141615099     2.3890661067     0.1268961287
    3      C      -0.7322565760     0.4257291238     2.0196472024
    4      C       0.1981690029     1.4164396659     1.5406041912
    5      C      -1.1294360924    -1.1153551762    -1.8700479841
    6      H      -1.5757205140     0.6998988912     2.6540900382
    7      H      -0.6928034873    -0.6016405599     1.6610615054
    8      H       1.0301124131     1.8279445625     2.1005435615
    9      H      -1.0478351167    -0.1627784882    -1.3486034720
   10      H      -2.0971263339    -1.2045468804    -2.3614480350
   11      H      -0.3219255238    -1.2274643339    -2.5920500742
 ----------------------------------------------------------------

   10   -1038.2077858990      9.17e-07  Convergence criterion met
 Total energy in the final basis set =    -1038.2077858990

                    Orbital Energies (a.u.)
 --------------------------------------------------------------

 Alpha MOs
 -- Occupied --
*******-101.537 -10.256 -10.243 -10.220  -9.471  -9.453  -7.235
 -7.227  -7.225  -7.217  -7.207  -7.207  -0.873  -0.848  -0.751
 -0.679  -0.604  -0.467  -0.456  -0.450  -0.447  -0.440  -0.411
 -0.357  -0.317  -0.298  -0.298  -0.238  -0.209

 Beta MOs
 -- Occupied --
*******-101.537 -10.243 -10.243 -10.208  -9.470  -9.453  -7.233
 -7.224  -7.224  -7.217  -7.207  -7.207  -0.856  -0.848  -0.711
 -0.679  -0.572  -0.451  -0.449  -0.446  -0.429  -0.423  -0.411
 -0.335  -0.312  -0.298  -0.298

          Ground-State Mulliken Net Atomic Charges

     Atom                 Charge (a.u.)    Spin (a.u.)
  --------------------------------------------------------
      1 Cl                   -0.102830       0.000642
      2 Cl                   -0.034621       0.137685
      3 C                    -0.205817       0.969703
      4 C                    -0.208335       0.907108
      5 C                    -0.404842       0.000737
      6 H                     0.131722       0.007683
      7 H                     0.157318      -0.005917
      8 H                     0.160812      -0.018013
      9 H                     0.178817       0.000320
     10 H                     0.163197       0.000003
     11 H                     0.164579       0.000048
  --------------------------------------------------------
  Sum of atomic charges =    -0.000000

                    Cartesian Multipole Moments
 -----------------------------------------------------------------
    Charge (ESU x 10^10)
                 0.0000
    Dipole Moment (Debye)
         X      -0.1537      Y       0.6564      Z      -0.0095
       Tot       0.6743
    Quadrupole Moments (Debye-Ang)
        XX     -43.8527     XY      -0.3474     YY     -52.1887
        XZ       1.4844     YZ       1.5103     ZZ     -37.6749

 Final energy is   -1038.20778589901
 **  OPTIMIZATION CONVERGED  **
 Total job time:  92.58s(wall), 1047.13s(cpu)
        *  Thank you very much for using Q-Chem.  Have a nice day.  *
