 Q-Chem 5.1, Q-Chem, Inc., Pleasanton, CA (2018)
 Q-Chem 5.1.1 for Intel X86 EM64T Linux

User input:
--------------------------------------------------------------

$comment
potential surface scanner
$end

$rem
JOBTYPE  PES_SCAN
UNRESTRICTED TRUE
SYM_IGNORE  TRUE
GEOM_OPT_MAX_CYCLES 400
SCF_MAX_CYCLES 400
METHOD   B3LYP
BASIS   6-31G**
PDB_PRINT 2
SCF_CONVERGENCE 6
THRESH 14
SCF_PRINT 1
$end
$molecule
0 1
Cl 1.116537 -2.356508 -0.662844
Cl 1.031774 1.674607 -0.217191
C -1.048790 0.139807 0.758197
C 0.394127 0.434264 0.726299
C -1.740492 0.009480 -0.610611
H -1.516130 0.968469 1.324835
H -1.176213 -0.771448 1.347882
H 1.099656 -0.010080 1.420125
H -1.287690 -0.826445 -1.149878
H -2.804870 -0.184170 -0.457880
H -1.640012 0.922026 -1.203539
$end
$scan
stre 1 4 3.300000 3.301000 0.100000
$end
--------------------------------------------------------------

   11   -1038.2522405413      7.38e-07  Convergence criterion met
 Total energy in the final basis set =    -1038.2522405413
   11   -1038.2474748409      7.04e-07  Convergence criterion met
 Total energy in the final basis set =    -1038.2474748409
   11   -1038.2475415552      6.97e-07  Convergence criterion met
 Total energy in the final basis set =    -1038.2475415552
   11   -1038.2477591761      6.79e-07  Convergence criterion met
 Total energy in the final basis set =    -1038.2477591761
   11   -1038.2477635068      6.78e-07  Convergence criterion met
 Total energy in the final basis set =    -1038.2477635068
   11   -1038.2477727492      6.78e-07  Convergence criterion met
 Total energy in the final basis set =    -1038.2477727492
   11   -1038.2477742680      6.79e-07  Convergence criterion met
 Total energy in the final basis set =    -1038.2477742680
   11   -1038.2477775616      6.82e-07  Convergence criterion met
 Total energy in the final basis set =    -1038.2477775616
   11   -1038.2477786895      6.82e-07  Convergence criterion met
 Total energy in the final basis set =    -1038.2477786895
   11   -1038.2477810798      6.84e-07  Convergence criterion met
 Total energy in the final basis set =    -1038.2477810798
   11   -1038.2477829415      6.84e-07  Convergence criterion met
 Total energy in the final basis set =    -1038.2477829415
   11   -1038.2477843689      6.83e-07  Convergence criterion met
 Total energy in the final basis set =    -1038.2477843689

             Standard Nuclear Orientation (Angstroms)
    I     Atom           X                Y                Z
 ----------------------------------------------------------------
    1      Cl      1.0780169188    -2.4137300313    -0.7247873255
    2      Cl      1.0180518493     1.7184423432    -0.1818248224
    3      C      -1.0507422049     0.1547611564     0.7681218295
    4      C       0.3884696656     0.4609995353     0.7416543441
    5      C      -1.7262781713    -0.0019385674    -0.6085769896
    6      H      -1.5350136260     0.9867804822     1.3145095906
    7      H      -1.1755670267    -0.7513012280     1.3660400596
    8      H       1.1050627435    -0.0125748221     1.4046102945
    9      H      -1.2592649330    -0.8440496759    -1.1262610321
   10      H      -2.7910892921    -0.1994086435    -0.4640010364
   11      H      -1.6237489233     0.9020214512    -1.2140899122
 ----------------------------------------------------------------

   11   -1038.2477850138      6.82e-07  Convergence criterion met
 Total energy in the final basis set =    -1038.2477850138

                    Orbital Energies (a.u.)
 --------------------------------------------------------------

 Alpha MOs
 -- Occupied --
*******-101.455 -10.360 -10.253 -10.209  -9.549  -9.367  -7.312
 -7.305  -7.302  -7.130  -7.123  -7.123  -0.960  -0.830  -0.718
 -0.694  -0.631  -0.546  -0.508  -0.482  -0.434  -0.411  -0.400
 -0.386  -0.372  -0.241  -0.231  -0.230

 Beta MOs
 -- Occupied --
*******-101.455 -10.360 -10.253 -10.209  -9.549  -9.367  -7.312
 -7.305  -7.302  -7.130  -7.123  -7.123  -0.960  -0.830  -0.718
 -0.694  -0.631  -0.546  -0.508  -0.482  -0.434  -0.411  -0.400
 -0.386  -0.372  -0.241  -0.231  -0.230

          Ground-State Mulliken Net Atomic Charges

     Atom                 Charge (a.u.)    Spin (a.u.)
  --------------------------------------------------------
      1 Cl                   -0.535557      -0.000000
      2 Cl                    0.172129       0.000000
      3 C                    -0.220313      -0.000000
      4 C                    -0.093227       0.000000
      5 C                    -0.330492       0.000000
      6 H                     0.156736       0.000000
      7 H                     0.176866       0.000000
      8 H                     0.232775      -0.000000
      9 H                     0.190723      -0.000000
     10 H                     0.126230      -0.000000
     11 H                     0.124131      -0.000000
  --------------------------------------------------------
  Sum of atomic charges =    -0.000000

                    Cartesian Multipole Moments
 -----------------------------------------------------------------
    Charge (ESU x 10^10)
                -0.0000
    Dipole Moment (Debye)
         X      -2.9151      Y       6.5309      Z       3.3908
       Tot       7.9151
    Quadrupole Moments (Debye-Ang)
        XX     -44.4783     XY       7.0492     YY     -56.4080
        XZ       2.1435     YZ      -4.0594     ZZ     -43.2425

 Final energy is   -1038.24778501382
 **  OPTIMIZATION CONVERGED  **
 Total job time:  54.45s(wall), 566.63s(cpu)
        *  Thank you very much for using Q-Chem.  Have a nice day.  *
