 Q-Chem 5.1, Q-Chem, Inc., Pleasanton, CA (2018)
 Q-Chem 5.1.1 for Intel X86 EM64T Linux

User input:
--------------------------------------------------------------

$comment
potential surface scanner
$end

$rem
JOBTYPE  PES_SCAN
UNRESTRICTED TRUE
SYM_IGNORE  TRUE
GEOM_OPT_MAX_CYCLES 400
SCF_MAX_CYCLES 400
METHOD   B3LYP
BASIS   6-31G**
PDB_PRINT 2
SCF_CONVERGENCE 6
THRESH 14
SCF_PRINT 1
$end
$molecule
0 3
Cl -0.456242 -2.016230 -0.559940
Cl -0.530414 2.294066 0.196715
C -0.899845 0.554810 2.327798
C 0.051656 1.254978 1.501914
C -0.977673 -1.054144 -1.998979
H -1.268788 0.992112 3.253659
H -1.355377 -0.376621 1.992499
H 1.090505 0.973522 1.371832
H -1.044703 -0.008457 -1.702714
H -1.947510 -1.427637 -2.324216
H -0.233711 -1.186391 -2.783165
$end
$scan
stre 1 4 3.800000 3.801000 0.100000
$end
--------------------------------------------------------------

   10   -1038.2074182592      9.26e-07  Convergence criterion met
 Total energy in the final basis set =    -1038.2074182592
   10   -1038.2071308190      9.18e-07  Convergence criterion met
 Total energy in the final basis set =    -1038.2071308190
   10   -1038.2072705285      9.23e-07  Convergence criterion met
 Total energy in the final basis set =    -1038.2072705285
   10   -1038.2073172798      9.26e-07  Convergence criterion met
 Total energy in the final basis set =    -1038.2073172798
   10   -1038.2073189889      9.25e-07  Convergence criterion met
 Total energy in the final basis set =    -1038.2073189889
   10   -1038.2073213214      9.24e-07  Convergence criterion met
 Total energy in the final basis set =    -1038.2073213214
   10   -1038.2073226206      9.24e-07  Convergence criterion met
 Total energy in the final basis set =    -1038.2073226206
   10   -1038.2073241859      9.24e-07  Convergence criterion met
 Total energy in the final basis set =    -1038.2073241859
   10   -1038.2073256055      9.24e-07  Convergence criterion met
 Total energy in the final basis set =    -1038.2073256055
   10   -1038.2073277906      9.25e-07  Convergence criterion met
 Total energy in the final basis set =    -1038.2073277906
   10   -1038.2073305450      9.26e-07  Convergence criterion met
 Total energy in the final basis set =    -1038.2073305450
   10   -1038.2073330283      9.27e-07  Convergence criterion met
 Total energy in the final basis set =    -1038.2073330283
   10   -1038.2073341079      9.27e-07  Convergence criterion met
 Total energy in the final basis set =    -1038.2073341079

             Standard Nuclear Orientation (Angstroms)
    I     Atom           X                Y                Z
 ----------------------------------------------------------------
    1      Cl     -0.3797117612    -1.9640811978    -0.5592364179
    2      Cl     -0.5448154811     2.2761902424     0.1947067842
    3      C      -0.9139189621     0.5684571607     2.3499436296
    4      C       0.0387374753     1.2138259439     1.4817947523
    5      C      -0.9608128794    -1.0416542113    -2.0010430186
    6      H      -1.2186666105     1.0262785270     3.2890615934
    7      H      -1.4329167050    -0.3377193100     2.0388549670
    8      H       1.0492030567     0.8656917476     1.2996645221
    9      H      -1.0577678264     0.0053824964    -1.7181980985
   10      H      -1.9234046053    -1.4522432946    -2.3022832200
   11      H      -0.2280277010    -1.1601201044    -2.7978624936
 ----------------------------------------------------------------

   10   -1038.2073344574      9.27e-07  Convergence criterion met
 Total energy in the final basis set =    -1038.2073344574

                    Orbital Energies (a.u.)
 --------------------------------------------------------------

 Alpha MOs
 -- Occupied --
*******-101.537 -10.253 -10.244 -10.218  -9.467  -9.454  -7.231
 -7.223  -7.221  -7.218  -7.208  -7.208  -0.870  -0.849  -0.748
 -0.679  -0.601  -0.464  -0.454  -0.450  -0.448  -0.436  -0.412
 -0.353  -0.313  -0.299  -0.299  -0.236  -0.208

 Beta MOs
 -- Occupied --
*******-101.537 -10.244 -10.240 -10.205  -9.466  -9.454  -7.229
 -7.220  -7.220  -7.218  -7.208  -7.208  -0.852  -0.849  -0.709
 -0.679  -0.569  -0.451  -0.450  -0.443  -0.428  -0.419  -0.411
 -0.331  -0.308  -0.299  -0.298

          Ground-State Mulliken Net Atomic Charges

     Atom                 Charge (a.u.)    Spin (a.u.)
  --------------------------------------------------------
      1 Cl                   -0.104170       0.001017
      2 Cl                   -0.042611       0.137305
      3 C                    -0.198198       0.973229
      4 C                    -0.198015       0.903458
      5 C                    -0.403931       0.000514
      6 H                     0.133139      -0.008079
      7 H                     0.144267       0.008550
      8 H                     0.164072      -0.016022
      9 H                     0.179225      -0.000041
     10 H                     0.162711       0.000054
     11 H                     0.163511       0.000013
  --------------------------------------------------------
  Sum of atomic charges =     0.000000

                    Cartesian Multipole Moments
 -----------------------------------------------------------------
    Charge (ESU x 10^10)
                 0.0000
    Dipole Moment (Debye)
         X      -0.4613      Y      -0.1939      Z      -0.5525
       Tot       0.7454
    Quadrupole Moments (Debye-Ang)
        XX     -43.1339     XY       1.1187     YY     -51.6676
        XZ       1.1501     YZ       0.8956     ZZ     -37.1758

 Final energy is   -1038.20733445740
 **  OPTIMIZATION CONVERGED  **
 Total job time:  44.78s(wall), 515.04s(cpu)
        *  Thank you very much for using Q-Chem.  Have a nice day.  *
