 Q-Chem 5.1, Q-Chem, Inc., Pleasanton, CA (2018)
 Q-Chem 5.1.1 for Intel X86 EM64T Linux

User input:
--------------------------------------------------------------

$comment
potential surface scanner
$end

$rem
JOBTYPE  PES_SCAN
UNRESTRICTED TRUE
SYM_IGNORE  TRUE
GEOM_OPT_MAX_CYCLES 400
SCF_MAX_CYCLES 400
METHOD   B3LYP
BASIS   6-31G**
PDB_PRINT 2
SCF_CONVERGENCE 6
THRESH 14
SCF_PRINT 1
$end
$molecule
0 1
Cl 0.910911 -2.747164 -1.278702
Cl 0.967658 2.065084 0.274772
C -1.087390 0.326966 0.845495
C 0.344719 0.606416 0.826749
C -1.624633 -0.138405 -0.560451
H -1.641836 1.226569 1.138329
H -1.269263 -0.478055 1.564703
H 1.092270 -0.137444 1.092551
H -1.103131 -1.050520 -0.861256
H -2.698696 -0.316377 -0.460129
H -1.462711 0.642930 -1.306661
$end
$scan
stre 1 4 4.100000 4.101000 0.100000
$end
--------------------------------------------------------------

   16   -1038.2260888778      5.08e-07  Convergence criterion met
 Total energy in the final basis set =    -1038.2260888778
   18   -1038.2240438999      2.55e-07  Convergence criterion met
 Total energy in the final basis set =    -1038.2240438999
   18   -1038.2239282628      3.21e-07  Convergence criterion met
 Total energy in the final basis set =    -1038.2239282628
   18   -1038.2240572604      2.48e-07  Convergence criterion met
 Total energy in the final basis set =    -1038.2240572604
   18   -1038.2240585647      2.50e-07  Convergence criterion met
 Total energy in the final basis set =    -1038.2240585647

             Standard Nuclear Orientation (Angstroms)
    I     Atom           X                Y                Z
 ----------------------------------------------------------------
    1      Cl      0.8862218181    -2.8201560212    -1.3175791209
    2      Cl      0.9530682121     2.0914153706     0.2901490411
    3      C      -1.0873210731     0.3315636364     0.8491804415
    4      C       0.3416058313     0.6257266342     0.8363202327
    5      C      -1.6145382664    -0.1380170963    -0.5602800713
    6      H      -1.6529474883     1.2243852520     1.1411122850
    7      H      -1.2637879415    -0.4770061816     1.5657930583
    8      H       1.0954946751    -0.1120631361     1.1005936034
    9      H      -1.0879552795    -1.0474328352    -0.8599648455
   10      H      -2.6877793370    -0.3228401399    -0.4642745851
   11      H      -1.4541631506     0.6444245171    -1.3056500393
 ----------------------------------------------------------------

   18   -1038.2240593718      2.51e-07  Convergence criterion met
 Total energy in the final basis set =    -1038.2240593718

                    Orbital Energies (a.u.)
 --------------------------------------------------------------

 Alpha MOs
 -- Occupied --
*******-101.442 -10.362 -10.263 -10.222  -9.562  -9.354  -7.325
 -7.318  -7.315  -7.116  -7.110  -7.110  -0.972  -0.839  -0.721
 -0.682  -0.644  -0.557  -0.518  -0.473  -0.459  -0.419  -0.408
 -0.394  -0.384  -0.223  -0.219  -0.219

 Beta MOs
 -- Occupied --
*******-101.442 -10.362 -10.263 -10.222  -9.562  -9.354  -7.325
 -7.318  -7.315  -7.116  -7.110  -7.110  -0.972  -0.839  -0.721
 -0.682  -0.644  -0.557  -0.518  -0.473  -0.459  -0.419  -0.408
 -0.394  -0.384  -0.223  -0.219  -0.219

          Ground-State Mulliken Net Atomic Charges

     Atom                 Charge (a.u.)    Spin (a.u.)
  --------------------------------------------------------
      1 Cl                   -0.544192       0.000000
      2 Cl                    0.179768      -0.000000
      3 C                    -0.239116       0.000000
      4 C                    -0.109986      -0.000000
      5 C                    -0.323968      -0.000000
      6 H                     0.157694      -0.000000
      7 H                     0.171602      -0.000000
      8 H                     0.241464       0.000000
      9 H                     0.200356      -0.000000
     10 H                     0.134900      -0.000000
     11 H                     0.131476      -0.000000
  --------------------------------------------------------
  Sum of atomic charges =    -0.000000

                    Cartesian Multipole Moments
 -----------------------------------------------------------------
    Charge (ESU x 10^10)
                -0.0000
    Dipole Moment (Debye)
         X      -2.7443      Y       7.9907      Z       4.8459
       Tot       9.7399
    Quadrupole Moments (Debye-Ang)
        XX     -43.2179     XY       7.0836     YY     -61.3664
        XZ       3.2754     YZ      -8.8395     ZZ     -47.1878

 Final energy is   -1038.22405937182
 **  OPTIMIZATION CONVERGED  **
 Total job time:  30.64s(wall), 351.39s(cpu)
        *  Thank you very much for using Q-Chem.  Have a nice day.  *
