 Q-Chem 5.1, Q-Chem, Inc., Pleasanton, CA (2018)
 Q-Chem 5.1.1 for Intel X86 EM64T Linux

User input:
--------------------------------------------------------------

$comment
potential surface scanner
$end

$rem
JOBTYPE  PES_SCAN
UNRESTRICTED TRUE
SYM_IGNORE  TRUE
GEOM_OPT_MAX_CYCLES 400
SCF_MAX_CYCLES 400
METHOD   B3LYP
BASIS   6-31G**
PDB_PRINT 2
SCF_CONVERGENCE 6
THRESH 14
SCF_PRINT 1
$end
$molecule
0 1
Cl 0.987446 -2.550446 -0.808280
Cl 0.982004 1.816975 -0.111441
C -1.048762 0.176276 0.782450
C 0.380387 0.515843 0.766314
C -1.697938 -0.017451 -0.608171
H -1.569691 1.001992 1.302020
H -1.160486 -0.728477 1.384776
H 1.120277 -0.003258 1.367631
H -1.205057 -0.861172 -1.100762
H -2.761259 -0.229735 -0.474453
H -1.599025 0.879451 -1.224688
$end
$scan
stre 1 4 3.600000 3.601000 0.100000
$end
--------------------------------------------------------------

   11   -1038.2399465130      8.01e-07  Convergence criterion met
 Total energy in the final basis set =    -1038.2399465130
   12   -1038.2364967688      6.06e-07  Convergence criterion met
 Total energy in the final basis set =    -1038.2364967688
   12   -1038.2364619590      6.37e-07  Convergence criterion met
 Total energy in the final basis set =    -1038.2364619590
   12   -1038.2364792061      6.97e-07  Convergence criterion met
 Total energy in the final basis set =    -1038.2364792061
   12   -1038.2364811070      7.07e-07  Convergence criterion met
 Total energy in the final basis set =    -1038.2364811070
   12   -1038.2364883911      7.65e-07  Convergence criterion met
 Total energy in the final basis set =    -1038.2364883911
   12   -1038.2364907449      7.88e-07  Convergence criterion met
 Total energy in the final basis set =    -1038.2364907449
   12   -1038.2364946529      8.37e-07  Convergence criterion met
   12   -1038.2364982673      8.83e-07  Convergence criterion met
 Total energy in the final basis set =    -1038.2364982673
   12   -1038.2364995300      8.92e-07  Convergence criterion met
 Total energy in the final basis set =    -1038.2364995300
   12   -1038.2365012375      8.99e-07  Convergence criterion met
 Total energy in the final basis set =    -1038.2365012375
   12   -1038.2365030462      9.04e-07  Convergence criterion met
 Total energy in the final basis set =    -1038.2365030462
   12   -1038.2365046709      9.03e-07  Convergence criterion met
 Total energy in the final basis set =    -1038.2365046709
   12   -1038.2365057253      8.96e-07  Convergence criterion met
 Total energy in the final basis set =    -1038.2365057253

             Standard Nuclear Orientation (Angstroms)
    I     Atom           X                Y                Z
 ----------------------------------------------------------------
    1      Cl      0.9484270363    -2.6227981960    -0.8453420273
    2      Cl      0.9629146673     1.8727077387    -0.0621649706
    3      C      -1.0482246117     0.1896033499     0.7901675087
    4      C       0.3767395497     0.5398213766     0.7766967074
    5      C      -1.6839301727    -0.0262998123    -0.6081712528
    6      H      -1.5833093543     1.0183494057     1.2889296212
    7      H      -1.1589376873    -0.7104845401     1.3991142848
    8      H       1.1293468644    -0.0107608434     1.3330751866
    9      H      -1.1755175342    -0.8669420133    -1.0905419643
   10      H      -2.7449954104    -0.2521051327    -0.4780397296
   11      H      -1.5946173471     0.8689066668    -1.2283273641
 ----------------------------------------------------------------

   12   -1038.2365062426      8.88e-07  Convergence criterion met
 Total energy in the final basis set =    -1038.2365062426

                    Orbital Energies (a.u.)
 --------------------------------------------------------------

 Alpha MOs
 -- Occupied --
*******-101.449 -10.362 -10.257 -10.213  -9.556  -9.362  -7.319
 -7.312  -7.309  -7.124  -7.117  -7.117  -0.967  -0.833  -0.720
 -0.689  -0.636  -0.551  -0.512  -0.482  -0.442  -0.414  -0.402
 -0.389  -0.378  -0.233  -0.226  -0.225

 Beta MOs
 -- Occupied --
*******-101.449 -10.362 -10.257 -10.213  -9.556  -9.362  -7.319
 -7.312  -7.309  -7.124  -7.117  -7.117  -0.967  -0.833  -0.720
 -0.689  -0.636  -0.551  -0.512  -0.482  -0.442  -0.414  -0.402
 -0.389  -0.378  -0.233  -0.226  -0.225

          Ground-State Mulliken Net Atomic Charges

     Atom                 Charge (a.u.)    Spin (a.u.)
  --------------------------------------------------------
      1 Cl                   -0.544523       0.000000
      2 Cl                    0.176487      -0.000000
      3 C                    -0.225670       0.000000
      4 C                    -0.099632      -0.000000
      5 C                    -0.329411      -0.000000
      6 H                     0.159038      -0.000000
      7 H                     0.176985      -0.000000
      8 H                     0.236603       0.000000
      9 H                     0.196079      -0.000000
     10 H                     0.129771      -0.000000
     11 H                     0.124273       0.000000
  --------------------------------------------------------
  Sum of atomic charges =    -0.000000

                    Cartesian Multipole Moments
 -----------------------------------------------------------------
    Charge (ESU x 10^10)
                 0.0000
    Dipole Moment (Debye)
         X      -2.7005      Y       7.3112      Z       3.7229
       Tot       8.6375
    Quadrupole Moments (Debye-Ang)
        XX     -43.7604     XY       6.9972     YY     -58.9005
        XZ       2.3455     YZ      -5.2602     ZZ     -43.9854

 Final energy is   -1038.23650624264
 **  OPTIMIZATION CONVERGED  **
 Total job time:  62.92s(wall), 717.50s(cpu)
        *  Thank you very much for using Q-Chem.  Have a nice day.  *
