 Q-Chem 5.1, Q-Chem, Inc., Pleasanton, CA (2018)
 Q-Chem 5.1.1 for Intel X86 EM64T Linux

User input:
--------------------------------------------------------------

$comment
potential surface scanner
$end

$rem
JOBTYPE  PES_SCAN
UNRESTRICTED TRUE
SYM_IGNORE  TRUE
GEOM_OPT_MAX_CYCLES 400
SCF_MAX_CYCLES 400
METHOD   B3LYP
BASIS   6-31G**
PDB_PRINT 2
SCF_CONVERGENCE 6
THRESH 14
SCF_PRINT 1
$end
$molecule
0 1
Cl 0.103376 -2.644818 -1.829598
Cl -1.008823 1.695973 0.244367
C -0.315930 1.636904 2.872098
C -0.319625 1.007240 1.705023
C -1.194408 -1.530799 -2.414393
H -0.741176 2.625410 3.004427
H 0.129401 1.151401 3.734548
H 0.096795 0.021259 1.536329
H -2.154699 -2.028041 -2.284684
H -1.013112 -1.319070 -3.467259
H -1.153900 -0.615458 -1.825460
$end
$scan
stre 1 4 5.200000 5.201000 0.100000
$end
--------------------------------------------------------------

    9   -1038.3041086355      9.59e-07  Convergence criterion met
 Total energy in the final basis set =    -1038.3041086355
    9   -1038.3039884969      9.71e-07  Convergence criterion met
 Total energy in the final basis set =    -1038.3039884969
    9   -1038.3040224486      9.63e-07  Convergence criterion met
 Total energy in the final basis set =    -1038.3040224486

             Standard Nuclear Orientation (Angstroms)
    I     Atom           X                Y                Z
 ----------------------------------------------------------------
    1      Cl      0.0935106884    -2.6791892500    -1.8952929760
    2      Cl     -0.9986355603     1.6660535840     0.2679019500
    3      C      -0.3150007795     1.6658157808     2.8985300127
    4      C      -0.3079607800     1.0130892382     1.7441986984
    5      C      -1.2012324454    -1.5475054831    -2.4498919771
    6      H      -0.7506095858     2.6524350049     3.0092642321
    7      H       0.1316448131     1.2021038537     3.7722238211
    8      H       0.1185755008     0.0281120110     1.5963907821
    9      H      -2.1638631652    -2.0411461129    -2.3234216376
   10      H      -1.0261932000    -1.3165394513    -3.4998440644
   11      H      -1.1523364861    -0.6432281753    -1.8446608413
 ----------------------------------------------------------------

    9   -1038.3040400805      9.54e-07  Convergence criterion met
 Total energy in the final basis set =    -1038.3040400805

                    Orbital Energies (a.u.)
 --------------------------------------------------------------

 Alpha MOs
 -- Occupied --
*******-101.533 -10.256 -10.241 -10.206  -9.471  -9.449  -7.235
 -7.225  -7.225  -7.213  -7.203  -7.203  -0.874  -0.845  -0.754
 -0.676  -0.588  -0.490  -0.454  -0.447  -0.447  -0.408  -0.388
 -0.367  -0.318  -0.294  -0.294  -0.267

 Beta MOs
 -- Occupied --
*******-101.533 -10.256 -10.241 -10.206  -9.471  -9.449  -7.235
 -7.225  -7.225  -7.213  -7.203  -7.203  -0.874  -0.845  -0.754
 -0.676  -0.588  -0.490  -0.454  -0.447  -0.447  -0.408  -0.388
 -0.367  -0.318  -0.294  -0.294  -0.267

          Ground-State Mulliken Net Atomic Charges

     Atom                 Charge (a.u.)    Spin (a.u.)
  --------------------------------------------------------
      1 Cl                   -0.102123       0.000000
      2 Cl                   -0.036088      -0.000000
      3 C                    -0.196917       0.000000
      4 C                    -0.174816      -0.000000
      5 C                    -0.404853       0.000000
      6 H                     0.130000       0.000000
      7 H                     0.125239      -0.000000
      8 H                     0.158811       0.000000
      9 H                     0.162192       0.000000
     10 H                     0.162517      -0.000000
     11 H                     0.176037      -0.000000
  --------------------------------------------------------
  Sum of atomic charges =     0.000000

                    Cartesian Multipole Moments
 -----------------------------------------------------------------
    Charge (ESU x 10^10)
                 0.0000
    Dipole Moment (Debye)
         X      -0.8620      Y       0.9153      Z       0.9496
       Tot       1.5756
    Quadrupole Moments (Debye-Ang)
        XX     -44.2937     XY       1.9545     YY     -50.2221
        XZ       4.3841     YZ       0.0271     ZZ     -36.3701

 Final energy is   -1038.30404008051
 **  OPTIMIZATION CONVERGED  **
 Total job time:  14.84s(wall), 135.50s(cpu)
        *  Thank you very much for using Q-Chem.  Have a nice day.  *
