 Q-Chem 5.1, Q-Chem, Inc., Pleasanton, CA (2018)
 Q-Chem 5.1.1 for Intel X86 EM64T Linux

User input:
--------------------------------------------------------------

$comment
potential surface scanner
$end

$rem
JOBTYPE  PES_SCAN
UNRESTRICTED TRUE
SYM_IGNORE  TRUE
GEOM_OPT_MAX_CYCLES 400
SCF_MAX_CYCLES 400
METHOD   B3LYP
BASIS   6-31G**
PDB_PRINT 2
SCF_CONVERGENCE 6
THRESH 14
SCF_PRINT 1
$end
$molecule
0 1
Cl -0.026555 -2.847537 -1.833531
Cl 0.953037 1.986703 -0.037578
C -0.965687 0.206265 0.833172
C 0.314292 0.858601 1.036724
C -1.418504 -0.223402 -0.577576
H -1.708570 0.977011 1.138862
H -1.058701 -0.604716 1.562008
H 0.930433 0.681522 1.912610
H -0.865906 -1.146273 -0.878831
H -2.488264 -0.442677 -0.557240
H -1.237677 0.554503 -1.323222
$end
$scan
stre 1 4 4.800000 4.801000 0.100000
$end
--------------------------------------------------------------

   14   -1038.2174352612      4.47e-07  Convergence criterion met
 Total energy in the final basis set =    -1038.2174352612
   15   -1038.2166002138      3.91e-07  Convergence criterion met
 Total energy in the final basis set =    -1038.2166002138
   15   -1038.2166628001      3.45e-07  Convergence criterion met
 Total energy in the final basis set =    -1038.2166628001
   14   -1038.2167150140      7.39e-07  Convergence criterion met
 Total energy in the final basis set =    -1038.2167150140
   14   -1038.2167277691      7.49e-07  Convergence criterion met
 Total energy in the final basis set =    -1038.2167277691
   15   -1038.2167516431      3.48e-07  Convergence criterion met
 Total energy in the final basis set =    -1038.2167516431
   15   -1038.2167599381      4.81e-07  Convergence criterion met
 Total energy in the final basis set =    -1038.2167599381
   17   -1038.2167668497      3.03e-07  Convergence criterion met
   16   -1038.2167766149      4.74e-07  Convergence criterion met
 Total energy in the final basis set =    -1038.2167766149
   16   -1038.2167782536      8.53e-07  Convergence criterion met
 Total energy in the final basis set =    -1038.2167782536
   17   -1038.2167804096      3.93e-07  Convergence criterion met
 Total energy in the final basis set =    -1038.2167804096
   16   -1038.2167830081      4.83e-07  Convergence criterion met
 Total energy in the final basis set =    -1038.2167830081
   15   -1038.2167855608      6.90e-07  Convergence criterion met
 Total energy in the final basis set =    -1038.2167855608
   15   -1038.2167868716      4.32e-07  Convergence criterion met
 Total energy in the final basis set =    -1038.2167868716

             Standard Nuclear Orientation (Angstroms)
    I     Atom           X                Y                Z
 ----------------------------------------------------------------
    1      Cl     -0.1202677501    -2.8750505986    -1.9063114464
    2      Cl      0.9300219903     2.0318982067    -0.0084795521
    3      C      -0.9628068411     0.2162505299     0.8417392947
    4      C       0.3088431254     0.8802181074     1.0523740536
    5      C      -1.3896944917    -0.2420601514    -0.5734610562
    6      H      -1.7189754375     0.9857077243     1.1134340653
    7      H      -1.0630266283    -0.5840902621     1.5807275247
    8      H       0.9341818957     0.6939315827     1.9197232979
    9      H      -0.8254350958    -1.1618928728    -0.8551326081
   10      H      -2.4568079638    -0.4735895654    -0.5630614905
   11      H      -1.2081348033     0.5286772993    -1.3261540828
 ----------------------------------------------------------------

   15   -1038.2167872587      4.25e-07  Convergence criterion met
 Total energy in the final basis set =    -1038.2167872587

                    Orbital Energies (a.u.)
 --------------------------------------------------------------

 Alpha MOs
 -- Occupied --
*******-101.440 -10.351 -10.264 -10.210  -9.554  -9.354  -7.318
 -7.310  -7.307  -7.116  -7.109  -7.109  -0.964  -0.838  -0.723
 -0.686  -0.635  -0.553  -0.514  -0.489  -0.438  -0.415  -0.402
 -0.389  -0.377  -0.221  -0.220  -0.219

 Beta MOs
 -- Occupied --
*******-101.440 -10.351 -10.264 -10.210  -9.554  -9.354  -7.318
 -7.310  -7.307  -7.116  -7.109  -7.109  -0.964  -0.838  -0.723
 -0.686  -0.635  -0.553  -0.514  -0.489  -0.438  -0.415  -0.402
 -0.389  -0.377  -0.221  -0.220  -0.219

          Ground-State Mulliken Net Atomic Charges

     Atom                 Charge (a.u.)    Spin (a.u.)
  --------------------------------------------------------
      1 Cl                   -0.497865      -0.000000
      2 Cl                    0.164756       0.000000
      3 C                    -0.241164      -0.000000
      4 C                    -0.127876       0.000000
      5 C                    -0.306743      -0.000000
      6 H                     0.191913       0.000000
      7 H                     0.171809      -0.000000
      8 H                     0.205760      -0.000000
      9 H                     0.174137       0.000000
     10 H                     0.133239       0.000000
     11 H                     0.132035      -0.000000
  --------------------------------------------------------
  Sum of atomic charges =    -0.000000

                    Cartesian Multipole Moments
 -----------------------------------------------------------------
    Charge (ESU x 10^10)
                -0.0000
    Dipole Moment (Debye)
         X      -0.5806      Y       8.0590      Z       6.5095
       Tot      10.3758
    Quadrupole Moments (Debye-Ang)
        XX     -41.6846     XY      -0.1055     YY     -62.0010
        XZ      -0.4857     YZ     -12.1780     ZZ     -49.5944

 Final energy is   -1038.21678725872
 **  OPTIMIZATION CONVERGED  **
 Total job time:  76.83s(wall), 881.35s(cpu)
        *  Thank you very much for using Q-Chem.  Have a nice day.  *
