 Q-Chem 5.1, Q-Chem, Inc., Pleasanton, CA (2018)
 Q-Chem 5.1.1 for Intel X86 EM64T Linux

User input:
--------------------------------------------------------------

$comment
potential surface scanner
$end

$rem
JOBTYPE  PES_SCAN
UNRESTRICTED TRUE
SYM_IGNORE  TRUE
GEOM_OPT_MAX_CYCLES 400
SCF_MAX_CYCLES 400
METHOD   B3LYP
BASIS   6-31G**
PDB_PRINT 2
SCF_CONVERGENCE 6
THRESH 14
SCF_PRINT 1
$end
$molecule
0 3
Cl -0.508430 -1.590074 -0.273744
Cl -0.791550 2.240595 0.198089
C -0.901025 0.463392 2.318303
C -0.199130 0.824178 1.110352
C -0.851864 -0.933025 -1.920380
H -0.749533 1.007738 3.250689
H -1.689726 -0.285176 2.300111
H 0.869644 0.700366 0.977848
H -0.922604 0.150826 -1.839573
H -1.793138 -1.357183 -2.266452
H -0.034751 -1.221632 -2.579837
$end
$scan
stre 1 4 2.700000 2.701000 0.100000
$end
--------------------------------------------------------------

   10   -1038.1992055257      9.46e-07  Convergence criterion met
 Total energy in the final basis set =    -1038.1992055257
   10   -1038.1962287055      9.58e-07  Convergence criterion met
 Total energy in the final basis set =    -1038.1962287055
   10   -1038.1962690665      9.54e-07  Convergence criterion met
 Total energy in the final basis set =    -1038.1962690665
   10   -1038.1962886741      9.53e-07  Convergence criterion met
 Total energy in the final basis set =    -1038.1962886741
   10   -1038.1963009404      9.55e-07  Convergence criterion met
 Total energy in the final basis set =    -1038.1963009404
   10   -1038.1963086271      9.58e-07  Convergence criterion met
 Total energy in the final basis set =    -1038.1963086271
   10   -1038.1963119175      9.61e-07  Convergence criterion met
 Total energy in the final basis set =    -1038.1963119175
   10   -1038.1963130425      9.63e-07  Convergence criterion met
 Total energy in the final basis set =    -1038.1963130425

             Standard Nuclear Orientation (Angstroms)
    I     Atom           X                Y                Z
 ----------------------------------------------------------------
    1      Cl     -0.5106652140    -1.5370823685    -0.2459516793
    2      Cl     -0.8001739796     2.2225589323     0.1882112211
    3      C      -0.8982697911     0.4452065654     2.3062670837
    4      C      -0.2047891117     0.7905487367     1.0876803362
    5      C      -0.8497089526    -0.9205976085    -1.9089247476
    6      H      -0.7347585212     0.9988554397     3.2310585315
    7      H      -1.7027078894    -0.2863341469     2.2988307625
    8      H       0.8706515660     0.7012325534     0.9782712433
    9      H      -0.9208583187     0.1647076888    -1.8542377461
   10      H      -1.7899065469    -1.3535715950    -2.2469025806
   11      H      -0.0309202407    -1.2255191974    -2.5588964246
 ----------------------------------------------------------------

   10   -1038.1963134153      9.63e-07  Convergence criterion met
 Total energy in the final basis set =    -1038.1963134153

                    Orbital Energies (a.u.)
 --------------------------------------------------------------

 Alpha MOs
 -- Occupied --
*******-101.540 -10.245 -10.245 -10.214  -9.457  -9.456  -7.221
 -7.220  -7.212  -7.211  -7.211  -7.210  -0.861  -0.850  -0.743
 -0.681  -0.595  -0.463  -0.456  -0.451  -0.440  -0.428  -0.411
 -0.345  -0.310  -0.303  -0.300  -0.231  -0.191

 Beta MOs
 -- Occupied --
*******-101.539 -10.245 -10.231 -10.201  -9.455  -9.455  -7.219
 -7.218  -7.210  -7.210  -7.210  -7.209  -0.852  -0.839  -0.706
 -0.679  -0.565  -0.453  -0.452  -0.438  -0.425  -0.412  -0.404
 -0.324  -0.304  -0.300  -0.295

          Ground-State Mulliken Net Atomic Charges

     Atom                 Charge (a.u.)    Spin (a.u.)
  --------------------------------------------------------
      1 Cl                   -0.068764       0.045234
      2 Cl                   -0.073656       0.142589
      3 C                    -0.189531       0.974893
      4 C                    -0.193454       0.859057
      5 C                    -0.401696      -0.001818
      6 H                     0.125388       0.001911
      7 H                     0.136218      -0.012671
      8 H                     0.158097      -0.010797
      9 H                     0.180202       0.001252
     10 H                     0.164361       0.000195
     11 H                     0.162835       0.000155
  --------------------------------------------------------
  Sum of atomic charges =    -0.000000

                    Cartesian Multipole Moments
 -----------------------------------------------------------------
    Charge (ESU x 10^10)
                 0.0000
    Dipole Moment (Debye)
         X       0.1088      Y      -0.6887      Z      -0.7071
       Tot       0.9931
    Quadrupole Moments (Debye-Ang)
        XX     -43.9605     XY       1.8176     YY     -50.4319
        XZ       1.1152     YZ       1.7793     ZZ     -37.0597

 Final energy is   -1038.19631341532
 **  OPTIMIZATION CONVERGED  **
 Total job time:  30.06s(wall), 344.96s(cpu)
        *  Thank you very much for using Q-Chem.  Have a nice day.  *
