 Q-Chem 5.1, Q-Chem, Inc., Pleasanton, CA (2018)
 Q-Chem 5.1.1 for Intel X86 EM64T Linux

User input:
--------------------------------------------------------------

$comment
potential surface scanner
$end

$rem
JOBTYPE  PES_SCAN
UNRESTRICTED TRUE
SYM_IGNORE  TRUE
GEOM_OPT_MAX_CYCLES 400
SCF_MAX_CYCLES 400
METHOD   B3LYP
BASIS   6-31G**
PDB_PRINT 2
SCF_CONVERGENCE 6
THRESH 14
SCF_PRINT 1
$end
$molecule
0 3
Cl -0.329166 -1.913177 -0.559973
Cl -0.584059 2.257120 0.200165
C -0.919826 0.590545 2.391771
C 0.015430 1.168078 1.459216
C -0.935858 -1.031225 -2.016341
H -1.131447 1.069740 3.345630
H -1.515472 -0.281866 2.124103
H 0.977685 0.739086 1.203472
H -1.066730 0.016311 -1.749359
H -1.884481 -1.476266 -2.313043
H -0.198179 -1.138338 -2.810235
$end
$scan
stre 1 4 3.600000 3.601000 0.100000
$end
--------------------------------------------------------------

   10   -1038.2072501129      9.27e-07  Convergence criterion met
 Total energy in the final basis set =    -1038.2072501129
   10   -1038.2070837773      9.26e-07  Convergence criterion met
 Total energy in the final basis set =    -1038.2070837773
   10   -1038.2070920092      9.26e-07  Convergence criterion met
 Total energy in the final basis set =    -1038.2070920092
   10   -1038.2071031106      9.27e-07  Convergence criterion met
 Total energy in the final basis set =    -1038.2071031106
   10   -1038.2071042668      9.26e-07  Convergence criterion met
 Total energy in the final basis set =    -1038.2071042668
   10   -1038.2071079439      9.25e-07  Convergence criterion met
 Total energy in the final basis set =    -1038.2071079439

             Standard Nuclear Orientation (Angstroms)
    I     Atom           X                Y                Z
 ----------------------------------------------------------------
    1      Cl     -0.3119577811    -1.8639539987    -0.5310402692
    2      Cl     -0.5925511122     2.2469558858     0.1905193412
    3      C      -0.9241011791     0.5848221035     2.3878167798
    4      C       0.0033735619     1.1367002804     1.4327928424
    5      C      -0.9269741564    -1.0176589563    -2.0044573971
    6      H      -1.0985606085     1.0690495161     3.3467301035
    7      H      -1.5482277039    -0.2723316767     2.1365036096
    8      H       0.9546720043     0.6929908501     1.1633172744
    9      H      -1.0731787546     0.0323978996    -1.7564943209
   10      H      -1.8685406551    -1.4812169891    -2.2952718083
   11      H      -0.1860566154    -1.1277469148    -2.7950101554
 ----------------------------------------------------------------

   10   -1038.2071088502      9.24e-07  Convergence criterion met
 Total energy in the final basis set =    -1038.2071088502

                    Orbital Energies (a.u.)
 --------------------------------------------------------------

 Alpha MOs
 -- Occupied --
*******-101.538 -10.252 -10.244 -10.218  -9.466  -9.454  -7.230
 -7.222  -7.220  -7.218  -7.208  -7.208  -0.868  -0.849  -0.747
 -0.680  -0.600  -0.464  -0.453  -0.451  -0.448  -0.435  -0.412
 -0.352  -0.313  -0.299  -0.299  -0.235  -0.206

 Beta MOs
 -- Occupied --
*******-101.538 -10.244 -10.238 -10.205  -9.465  -9.454  -7.228
 -7.219  -7.219  -7.218  -7.208  -7.208  -0.852  -0.849  -0.708
 -0.679  -0.568  -0.452  -0.451  -0.442  -0.428  -0.418  -0.412
 -0.330  -0.308  -0.299  -0.298

          Ground-State Mulliken Net Atomic Charges

     Atom                 Charge (a.u.)    Spin (a.u.)
  --------------------------------------------------------
      1 Cl                   -0.103855       0.002453
      2 Cl                   -0.045163       0.136816
      3 C                    -0.196894       0.973375
      4 C                    -0.196304       0.902560
      5 C                    -0.403686       0.000430
      6 H                     0.133048      -0.008399
      7 H                     0.141215       0.008745
      8 H                     0.166230      -0.015905
      9 H                     0.179244      -0.000192
     10 H                     0.162713       0.000084
     11 H                     0.163453       0.000034
  --------------------------------------------------------
  Sum of atomic charges =     0.000000

                    Cartesian Multipole Moments
 -----------------------------------------------------------------
    Charge (ESU x 10^10)
                -0.0000
    Dipole Moment (Debye)
         X      -0.5166      Y      -0.3190      Z      -0.5985
       Tot       0.8525
    Quadrupole Moments (Debye-Ang)
        XX     -43.3001     XY       1.2107     YY     -51.3220
        XZ       1.0476     YZ       0.9988     ZZ     -36.9976

 Final energy is   -1038.20710885016
 **  OPTIMIZATION CONVERGED  **
 Total job time:  24.25s(wall), 269.73s(cpu)
        *  Thank you very much for using Q-Chem.  Have a nice day.  *
