 Q-Chem 5.1, Q-Chem, Inc., Pleasanton, CA (2018)
 Q-Chem 5.1.1 for Intel X86 EM64T Linux

User input:
--------------------------------------------------------------

$comment
potential surface scanner
$end

$rem
JOBTYPE  PES_SCAN
UNRESTRICTED TRUE
SYM_IGNORE  TRUE
GEOM_OPT_MAX_CYCLES 400
SCF_MAX_CYCLES 400
METHOD   B3LYP
BASIS   6-31G**
PDB_PRINT 2
SCF_CONVERGENCE 6
THRESH 14
SCF_PRINT 1
$end
$molecule
0 3
Cl -0.379790 -1.811206 -0.483999
Cl -0.637788 2.222652 0.183579
C -0.909543 0.579584 2.403378
C -0.013316 1.110572 1.407802
C -0.916856 -1.006401 -2.010951
H -1.040503 1.074423 3.363963
H -1.555944 -0.269966 2.184660
H 0.932791 0.668257 1.120094
H -1.079545 0.048514 -1.796189
H -1.838778 -1.482936 -2.340917
H -0.132832 -1.133485 -2.756012
$end
$scan
stre 1 4 3.400000 3.401000 0.100000
$end
--------------------------------------------------------------

   10   -1038.2068674140      9.22e-07  Convergence criterion met
 Total energy in the final basis set =    -1038.2068674140
   10   -1038.2062342219      9.12e-07  Convergence criterion met
 Total energy in the final basis set =    -1038.2062342219
   10   -1038.2064060561      9.19e-07  Convergence criterion met
 Total energy in the final basis set =    -1038.2064060561
   10   -1038.2064530046      9.22e-07  Convergence criterion met
 Total energy in the final basis set =    -1038.2064530046
   10   -1038.2064571208      9.21e-07  Convergence criterion met
 Total energy in the final basis set =    -1038.2064571208
   10   -1038.2064631400      9.19e-07  Convergence criterion met
 Total energy in the final basis set =    -1038.2064631400
   10   -1038.2064657411      9.18e-07  Convergence criterion met
 Total energy in the final basis set =    -1038.2064657411
   10   -1038.2064673106      9.18e-07  Convergence criterion met
 Total energy in the final basis set =    -1038.2064673106

             Standard Nuclear Orientation (Angstroms)
    I     Atom           X                Y                Z
 ----------------------------------------------------------------
    1      Cl     -0.3853245253    -1.7509245800    -0.4520896514
    2      Cl     -0.6431983927     2.2063868877     0.1745060264
    3      C      -0.9095347286     0.5684461621     2.3997885333
    4      C      -0.0213099894     1.0838964031     1.3894547034
    5      C      -0.9143199101    -0.9956409373    -2.0061776001
    6      H      -1.0249370751     1.0723932205     3.3578566241
    7      H      -1.5664665406    -0.2766754287     2.1960053073
    8      H       0.9327548278     0.6544464216     1.1109233851
    9      H      -1.0879499809     0.0636115864    -1.8238566703
   10      H      -1.8294160942    -1.4888552217    -2.3307486856
   11      H      -0.1224015909    -1.1370765137    -2.7402539723
 ----------------------------------------------------------------

   10   -1038.2064679567      9.18e-07  Convergence criterion met
 Total energy in the final basis set =    -1038.2064679567

                    Orbital Energies (a.u.)
 --------------------------------------------------------------

 Alpha MOs
 -- Occupied --
*******-101.538 -10.249 -10.244 -10.216  -9.465  -9.454  -7.229
 -7.221  -7.219  -7.218  -7.208  -7.208  -0.867  -0.849  -0.746
 -0.680  -0.599  -0.462  -0.453  -0.450  -0.447  -0.434  -0.412
 -0.350  -0.312  -0.299  -0.299  -0.234  -0.203

 Beta MOs
 -- Occupied --
*******-101.538 -10.244 -10.236 -10.204  -9.464  -9.454  -7.227
 -7.218  -7.218  -7.218  -7.208  -7.208  -0.851  -0.848  -0.707
 -0.679  -0.566  -0.452  -0.451  -0.440  -0.427  -0.417  -0.411
 -0.329  -0.307  -0.299  -0.298

          Ground-State Mulliken Net Atomic Charges

     Atom                 Charge (a.u.)    Spin (a.u.)
  --------------------------------------------------------
      1 Cl                   -0.102651       0.004363
      2 Cl                   -0.045399       0.133219
      3 C                    -0.195594       0.972651
      4 C                    -0.195820       0.905084
      5 C                    -0.402613       0.000425
      6 H                     0.131443      -0.006743
      7 H                     0.139992       0.008516
      8 H                     0.165599      -0.017581
      9 H                     0.179222      -0.000141
     10 H                     0.162720       0.000158
     11 H                     0.163102       0.000050
  --------------------------------------------------------
  Sum of atomic charges =     0.000000

                    Cartesian Multipole Moments
 -----------------------------------------------------------------
    Charge (ESU x 10^10)
                -0.0000
    Dipole Moment (Debye)
         X      -0.3696      Y      -0.4018      Z      -0.6945
       Tot       0.8834
    Quadrupole Moments (Debye-Ang)
        XX     -43.4788     XY       1.1742     YY     -50.8205
        XZ       1.0426     YZ       1.2335     ZZ     -36.8450

 Final energy is   -1038.20646795668
 **  OPTIMIZATION CONVERGED  **
 Total job time:  29.95s(wall), 339.53s(cpu)
        *  Thank you very much for using Q-Chem.  Have a nice day.  *
