 Q-Chem 5.1, Q-Chem, Inc., Pleasanton, CA (2018)
 Q-Chem 5.1.1 for Intel X86 EM64T Linux

User input:
--------------------------------------------------------------

$comment
potential surface scanner
$end

$rem
JOBTYPE  PES_SCAN
UNRESTRICTED TRUE
SYM_IGNORE  TRUE
GEOM_OPT_MAX_CYCLES 400
SCF_MAX_CYCLES 400
METHOD   B3LYP
BASIS   6-31G**
PDB_PRINT 2
SCF_CONVERGENCE 6
THRESH 14
SCF_PRINT 1
$end
$molecule
0 3
Cl -0.311958 -1.863954 -0.531040
Cl -0.592551 2.246956 0.190519
C -0.924101 0.584822 2.387817
C 0.003374 1.136700 1.432793
C -0.926974 -1.017659 -2.004457
H -1.098561 1.069050 3.346730
H -1.548228 -0.272332 2.136504
H 0.954672 0.692991 1.163317
H -1.073179 0.032398 -1.756494
H -1.868541 -1.481217 -2.295272
H -0.186057 -1.127747 -2.795010
$end
$scan
stre 1 4 3.500000 3.501000 0.100000
$end
--------------------------------------------------------------

   10   -1038.2071088493      9.24e-07  Convergence criterion met
 Total energy in the final basis set =    -1038.2071088493
   10   -1038.2068353726      9.23e-07  Convergence criterion met
 Total energy in the final basis set =    -1038.2068353726
   10   -1038.2068405675      9.23e-07  Convergence criterion met
 Total energy in the final basis set =    -1038.2068405675
   10   -1038.2068509198      9.24e-07  Convergence criterion met
 Total energy in the final basis set =    -1038.2068509198
   10   -1038.2068526334      9.24e-07  Convergence criterion met
 Total energy in the final basis set =    -1038.2068526334
   10   -1038.2068597797      9.23e-07  Convergence criterion met
 Total energy in the final basis set =    -1038.2068597797
   10   -1038.2068619785      9.22e-07  Convergence criterion met
 Total energy in the final basis set =    -1038.2068619785
   10   -1038.2068638271      9.22e-07  Convergence criterion met
 Total energy in the final basis set =    -1038.2068638271
   10   -1038.2068653246      9.21e-07  Convergence criterion met
 Total energy in the final basis set =    -1038.2068653246
   10   -1038.2068667173      9.22e-07  Convergence criterion met
 Total energy in the final basis set =    -1038.2068667173

             Standard Nuclear Orientation (Angstroms)
    I     Atom           X                Y                Z
 ----------------------------------------------------------------
    1      Cl     -0.3797904103    -1.8112056235    -0.4839994268
    2      Cl     -0.6377876337     2.2226522429     0.1835785267
    3      C      -0.9095429273     0.5795839693     2.4033783561
    4      C      -0.0133163302     1.1105718343     1.4078022775
    5      C      -0.9168558475    -1.0064005898    -2.0109514528
    6      H      -1.0405034078     1.0744229004     3.3639627977
    7      H      -1.5559440312    -0.2699663096     2.1846602980
    8      H       0.9327910624     0.6682573468     1.1200939778
    9      H      -1.0795449122     0.0485138871    -1.7961885558
   10      H      -1.8387776682    -1.4829364189    -2.3409174261
   11      H      -0.1328318941    -1.1334852389    -2.7560123722
 ----------------------------------------------------------------

   10   -1038.2068674134      9.22e-07  Convergence criterion met
 Total energy in the final basis set =    -1038.2068674134

                    Orbital Energies (a.u.)
 --------------------------------------------------------------

 Alpha MOs
 -- Occupied --
*******-101.538 -10.250 -10.244 -10.217  -9.466  -9.454  -7.230
 -7.221  -7.220  -7.218  -7.208  -7.208  -0.868  -0.849  -0.747
 -0.680  -0.599  -0.463  -0.453  -0.451  -0.448  -0.435  -0.412
 -0.351  -0.312  -0.299  -0.299  -0.234  -0.205

 Beta MOs
 -- Occupied --
*******-101.538 -10.244 -10.237 -10.204  -9.464  -9.454  -7.228
 -7.219  -7.218  -7.218  -7.208  -7.208  -0.852  -0.848  -0.707
 -0.679  -0.567  -0.452  -0.451  -0.441  -0.427  -0.418  -0.411
 -0.330  -0.307  -0.299  -0.298

          Ground-State Mulliken Net Atomic Charges

     Atom                 Charge (a.u.)    Spin (a.u.)
  --------------------------------------------------------
      1 Cl                   -0.103786       0.003279
      2 Cl                   -0.045060       0.135114
      3 C                    -0.196348       0.973223
      4 C                    -0.196029       0.903577
      5 C                    -0.403045       0.000437
      6 H                     0.132259      -0.007744
      7 H                     0.140736       0.008725
      8 H                     0.165776      -0.016599
      9 H                     0.179361      -0.000159
     10 H                     0.162855       0.000111
     11 H                     0.163279       0.000037
  --------------------------------------------------------
  Sum of atomic charges =    -0.000000

                    Cartesian Multipole Moments
 -----------------------------------------------------------------
    Charge (ESU x 10^10)
                -0.0000
    Dipole Moment (Debye)
         X      -0.3956      Y      -0.3542      Z      -0.6640
       Tot       0.8502
    Quadrupole Moments (Debye-Ang)
        XX     -43.4702     XY       1.1447     YY     -51.0757
        XZ       1.0125     YZ       1.1391     ZZ     -36.8456

 Final energy is   -1038.20686741340
 **  OPTIMIZATION CONVERGED  **
 Total job time:  47.70s(wall), 420.59s(cpu)
        *  Thank you very much for using Q-Chem.  Have a nice day.  *
