 Q-Chem 5.1, Q-Chem, Inc., Pleasanton, CA (2018)
 Q-Chem 5.1.1 for Intel X86 EM64T Linux

User input:
--------------------------------------------------------------

$comment
potential surface scanner
$end

$rem
JOBTYPE  PES_SCAN
UNRESTRICTED TRUE
SYM_IGNORE  TRUE
GEOM_OPT_MAX_CYCLES 400
SCF_MAX_CYCLES 400
METHOD   B3LYP
BASIS   6-31G**
PDB_PRINT 2
SCF_CONVERGENCE 6
THRESH 14
SCF_PRINT 1
$end
$molecule
0 3
Cl -0.989118 -2.447290 -0.655288
Cl -0.214162 2.389066 0.126896
C -0.732257 0.425729 2.019647
C 0.198169 1.416440 1.540604
C -1.129436 -1.115355 -1.870048
H -1.575721 0.699899 2.654090
H -0.692803 -0.601641 1.661062
H 1.030112 1.827945 2.100544
H -1.047835 -0.162778 -1.348603
H -2.097126 -1.204547 -2.361448
H -0.321926 -1.227464 -2.592050
$end
$scan
stre 1 4 4.500000 4.501000 0.100000
$end
--------------------------------------------------------------

   10   -1038.2077858990      9.17e-07  Convergence criterion met
 Total energy in the final basis set =    -1038.2077858990
   10   -1038.2068423172      8.93e-07  Convergence criterion met
 Total energy in the final basis set =    -1038.2068423172
   10   -1038.2074319668      9.06e-07  Convergence criterion met
 Total energy in the final basis set =    -1038.2074319668
   10   -1038.2076795937      9.17e-07  Convergence criterion met
 Total energy in the final basis set =    -1038.2076795937
   10   -1038.2077051570      9.18e-07  Convergence criterion met
 Total energy in the final basis set =    -1038.2077051570
   10   -1038.2077162746      9.16e-07  Convergence criterion met
 Total energy in the final basis set =    -1038.2077162746
   10   -1038.2077181842      9.16e-07  Convergence criterion met
 Total energy in the final basis set =    -1038.2077181842
   10   -1038.2077192507      9.15e-07  Convergence criterion met
 Total energy in the final basis set =    -1038.2077192507

             Standard Nuclear Orientation (Angstroms)
    I     Atom           X                Y                Z
 ----------------------------------------------------------------
    1      Cl     -0.9722392218    -2.4076083313    -0.6123007026
    2      Cl     -0.2282743076     2.3679816038     0.1000308945
    3      C      -0.7423330821     0.4079044913     1.9998112393
    4      C       0.1919238179     1.3876364118     1.5068599392
    5      C      -1.1201615358    -1.0913558253    -1.8429702841
    6      H      -1.5752902295     0.6916536964     2.6439185876
    7      H      -0.7115212698    -0.6215594702     1.6479364436
    8      H       1.0282103855     1.7976341672     2.0617451711
    9      H      -1.0467329940    -0.1324037311    -1.3323431791
   10      H      -2.0858021754    -1.1941151671    -2.3357520431
   11      H      -0.3098823874    -1.2057638455    -2.5615300662
 ----------------------------------------------------------------

   10   -1038.2077200876      9.15e-07  Convergence criterion met
 Total energy in the final basis set =    -1038.2077200876

                    Orbital Energies (a.u.)
 --------------------------------------------------------------

 Alpha MOs
 -- Occupied --
*******-101.537 -10.256 -10.243 -10.220  -9.471  -9.453  -7.235
 -7.227  -7.225  -7.218  -7.208  -7.207  -0.873  -0.848  -0.751
 -0.679  -0.604  -0.467  -0.457  -0.449  -0.446  -0.440  -0.411
 -0.357  -0.317  -0.298  -0.298  -0.238  -0.209

 Beta MOs
 -- Occupied --
*******-101.537 -10.243 -10.243 -10.207  -9.470  -9.453  -7.233
 -7.224  -7.224  -7.218  -7.208  -7.207  -0.856  -0.848  -0.711
 -0.679  -0.572  -0.451  -0.449  -0.446  -0.429  -0.423  -0.411
 -0.335  -0.312  -0.298  -0.298

          Ground-State Mulliken Net Atomic Charges

     Atom                 Charge (a.u.)    Spin (a.u.)
  --------------------------------------------------------
      1 Cl                   -0.102906       0.000762
      2 Cl                   -0.035371       0.137506
      3 C                    -0.205897       0.969516
      4 C                    -0.208009       0.906971
      5 C                    -0.404779       0.000720
      6 H                     0.131312       0.007998
      7 H                     0.158104      -0.006474
      8 H                     0.160623      -0.017397
      9 H                     0.179344       0.000341
     10 H                     0.163057       0.000004
     11 H                     0.164521       0.000053
  --------------------------------------------------------
  Sum of atomic charges =    -0.000000

                    Cartesian Multipole Moments
 -----------------------------------------------------------------
    Charge (ESU x 10^10)
                 0.0000
    Dipole Moment (Debye)
         X      -0.1582      Y       0.6322      Z      -0.0196
       Tot       0.6520
    Quadrupole Moments (Debye-Ang)
        XX     -43.8485     XY      -0.2859     YY     -52.0107
        XZ       1.4719     YZ       1.5621     ZZ     -37.7740

 Final energy is   -1038.20772008758
 **  OPTIMIZATION CONVERGED  **
 Total job time:  29.31s(wall), 334.41s(cpu)
        *  Thank you very much for using Q-Chem.  Have a nice day.  *
