 Q-Chem 5.1, Q-Chem, Inc., Pleasanton, CA (2018)
 Q-Chem 5.1.1 for Intel X86 EM64T Linux

User input:
--------------------------------------------------------------

$comment
potential surface scanner
$end

$rem
JOBTYPE  PES_SCAN
UNRESTRICTED TRUE
SYM_IGNORE  TRUE
GEOM_OPT_MAX_CYCLES 400
SCF_MAX_CYCLES 400
METHOD   B3LYP
BASIS   6-31G**
PDB_PRINT 2
SCF_CONVERGENCE 6
THRESH 14
SCF_PRINT 1
$end
$molecule
0 1
Cl -0.120268 -2.875051 -1.906311
Cl 0.930022 2.031898 -0.008480
C -0.962807 0.216251 0.841739
C 0.308843 0.880218 1.052374
C -1.389694 -0.242060 -0.573461
H -1.718975 0.985708 1.113434
H -1.063027 -0.584090 1.580728
H 0.934182 0.693932 1.919723
H -0.825435 -1.161893 -0.855133
H -2.456808 -0.473590 -0.563061
H -1.208135 0.528677 -1.326154
$end
$scan
stre 1 4 4.900000 4.901000 0.100000
$end
--------------------------------------------------------------

   15   -1038.2167872590      4.25e-07  Convergence criterion met
 Total energy in the final basis set =    -1038.2167872590
   15   -1038.2160459168      3.67e-07  Convergence criterion met
 Total energy in the final basis set =    -1038.2160459168
   15   -1038.2161159145      3.66e-07  Convergence criterion met
 Total energy in the final basis set =    -1038.2161159145
   15   -1038.2161865945      3.27e-07  Convergence criterion met
 Total energy in the final basis set =    -1038.2161865945
   15   -1038.2162001923      3.56e-07  Convergence criterion met
 Total energy in the final basis set =    -1038.2162001923
   15   -1038.2162193055      6.13e-07  Convergence criterion met
 Total energy in the final basis set =    -1038.2162193055
   15   -1038.2162229329      6.75e-07  Convergence criterion met
 Total energy in the final basis set =    -1038.2162229329
   15   -1038.2162273561      7.93e-07  Convergence criterion met
   16   -1038.2162431972      2.98e-07  Convergence criterion met
 Total energy in the final basis set =    -1038.2162431972
   16   -1038.2162513778      1.80e-07  Convergence criterion met
 Total energy in the final basis set =    -1038.2162513778
   16   -1038.2162609143      1.40e-07  Convergence criterion met
 Total energy in the final basis set =    -1038.2162609143
   16   -1038.2162693731      1.44e-07  Convergence criterion met
 Total energy in the final basis set =    -1038.2162693731
   16   -1038.2162741200      1.85e-07  Convergence criterion met
 Total energy in the final basis set =    -1038.2162741200
   16   -1038.2162754316      1.82e-07  Convergence criterion met
 Total energy in the final basis set =    -1038.2162754316

             Standard Nuclear Orientation (Angstroms)
    I     Atom           X                Y                Z
 ----------------------------------------------------------------
    1      Cl     -0.2790105747    -2.9298549622    -1.9252736195
    2      Cl      0.8267387451     2.1854228589     0.0986241229
    3      C      -0.9615549527     0.2318296960     0.8541477153
    4      C       0.2990947361     0.9074750183     1.0664970684
    5      C      -1.3395663392    -0.2641210701    -0.5804120177
    6      H      -1.7446249183     0.9867131437     1.0695219603
    7      H      -1.0635804484    -0.5694429462     1.5900118246
    8      H       0.9942524063     0.6370144532     1.8548541536
    9      H      -0.7731053061    -1.1921244423    -0.8118801479
   10      H      -2.4088020545    -0.4837456877    -0.6013316844
   11      H      -1.1219432937     0.4908339384    -1.3393613756
 ----------------------------------------------------------------

   16   -1038.2162760952      1.69e-07  Convergence criterion met
 Total energy in the final basis set =    -1038.2162760952

                    Orbital Energies (a.u.)
 --------------------------------------------------------------

 Alpha MOs
 -- Occupied --
*******-101.442 -10.350 -10.264 -10.213  -9.554  -9.356  -7.317
 -7.309  -7.306  -7.118  -7.111  -7.111  -0.963  -0.837  -0.722
 -0.688  -0.636  -0.553  -0.514  -0.483  -0.442  -0.413  -0.403
 -0.388  -0.378  -0.223  -0.222  -0.220

 Beta MOs
 -- Occupied --
*******-101.442 -10.350 -10.264 -10.213  -9.554  -9.356  -7.317
 -7.309  -7.306  -7.118  -7.111  -7.111  -0.963  -0.837  -0.722
 -0.688  -0.636  -0.553  -0.514  -0.483  -0.442  -0.413  -0.403
 -0.388  -0.378  -0.223  -0.222  -0.220

          Ground-State Mulliken Net Atomic Charges

     Atom                 Charge (a.u.)    Spin (a.u.)
  --------------------------------------------------------
      1 Cl                   -0.492406      -0.000000
      2 Cl                    0.155849       0.000000
      3 C                    -0.245218      -0.000000
      4 C                    -0.126734       0.000000
      5 C                    -0.301645      -0.000000
      6 H                     0.190138       0.000000
      7 H                     0.168847      -0.000000
      8 H                     0.206897      -0.000000
      9 H                     0.173734       0.000000
     10 H                     0.137156       0.000000
     11 H                     0.133382      -0.000000
  --------------------------------------------------------
  Sum of atomic charges =     0.000000

                    Cartesian Multipole Moments
 -----------------------------------------------------------------
    Charge (ESU x 10^10)
                 0.0000
    Dipole Moment (Debye)
         X      -0.2331      Y       8.0143      Z       6.4094
       Tot      10.2647
    Quadrupole Moments (Debye-Ang)
        XX     -41.8673     XY      -1.2818     YY     -62.3799
        XZ      -0.9622     YZ     -12.4547     ZZ     -50.0095

 Final energy is   -1038.21627609516
 **  OPTIMIZATION CONVERGED  **
 Total job time:  82.68s(wall), 890.73s(cpu)
        *  Thank you very much for using Q-Chem.  Have a nice day.  *
