 Q-Chem 5.1, Q-Chem, Inc., Pleasanton, CA (2018)
 Q-Chem 5.1.1 for Intel X86 EM64T Linux

User input:
--------------------------------------------------------------

$comment
potential surface scanner
$end

$rem
JOBTYPE  PES_SCAN
UNRESTRICTED TRUE
SYM_IGNORE  TRUE
GEOM_OPT_MAX_CYCLES 400
SCF_MAX_CYCLES 400
METHOD   B3LYP
BASIS   6-31G**
PDB_PRINT 2
SCF_CONVERGENCE 6
THRESH 14
SCF_PRINT 1
$end
$molecule
0 1
Cl 1.196157 -2.050243 -0.439860
Cl 1.084273 1.511119 -0.333366
C -1.037511 0.076963 0.720647
C 0.427093 0.294589 0.655721
C -1.783117 0.036610 -0.615523
H -1.423242 0.904891 1.345403
H -1.192674 -0.843877 1.289820
H 1.069862 0.008265 1.479266
H -1.389582 -0.781123 -1.223801
H -2.847758 -0.130676 -0.434524
H -1.675602 0.973484 -1.168388
$end
$scan
stre 1 4 2.800000 2.801000 0.100000
$end
--------------------------------------------------------------

   11   -1038.2802008782      3.68e-07  Convergence criterion met
 Total energy in the final basis set =    -1038.2802008782
   11   -1038.2737770286      6.10e-07  Convergence criterion met
 Total energy in the final basis set =    -1038.2737770286
   11   -1038.2736767200      6.16e-07  Convergence criterion met
 Total energy in the final basis set =    -1038.2736767200
   11   -1038.2738555267      6.22e-07  Convergence criterion met
 Total energy in the final basis set =    -1038.2738555267
   11   -1038.2738598809      6.24e-07  Convergence criterion met
 Total energy in the final basis set =    -1038.2738598809
   11   -1038.2738612244      6.26e-07  Convergence criterion met
 Total energy in the final basis set =    -1038.2738612244

             Standard Nuclear Orientation (Angstroms)
    I     Atom           X                Y                Z
 ----------------------------------------------------------------
    1      Cl      1.2026100865    -2.1160059294    -0.4618785042
    2      Cl      1.0759612720     1.5298394198    -0.3251144701
    3      C      -1.0405957780     0.0870673598     0.7255635938
    4      C       0.4187747961     0.3233400669     0.6673657172
    5      C      -1.7796266398     0.0379282912    -0.6151317078
    6      H      -1.4415067242     0.9104393566     1.3477511216
    7      H      -1.1868475420    -0.8357662113     1.2936246499
    8      H       1.0750962184     0.0052729765     1.4684637467
    9      H      -1.3734463280    -0.7772492528    -1.2186894688
   10      H      -2.8431010346    -0.1401444735    -0.4380570818
   11      H      -1.6794193263     0.9752803961    -1.1685025965
 ----------------------------------------------------------------

   11   -1038.2738614837      6.27e-07  Convergence criterion met
 Total energy in the final basis set =    -1038.2738614837

                    Orbital Energies (a.u.)
 --------------------------------------------------------------

 Alpha MOs
 -- Occupied --
*******-101.473 -10.353 -10.245 -10.204  -9.530  -9.385  -7.294
 -7.286  -7.283  -7.148  -7.141  -7.141  -0.943  -0.821  -0.717
 -0.707  -0.620  -0.532  -0.498  -0.477  -0.419  -0.404  -0.393
 -0.379  -0.358  -0.265  -0.247  -0.247

 Beta MOs
 -- Occupied --
*******-101.473 -10.353 -10.245 -10.204  -9.530  -9.385  -7.294
 -7.286  -7.283  -7.148  -7.141  -7.141  -0.943  -0.821  -0.717
 -0.707  -0.620  -0.532  -0.498  -0.477  -0.419  -0.404  -0.393
 -0.379  -0.358  -0.265  -0.247  -0.247

          Ground-State Mulliken Net Atomic Charges

     Atom                 Charge (a.u.)    Spin (a.u.)
  --------------------------------------------------------
      1 Cl                   -0.474873       0.000000
      2 Cl                    0.143137       0.000000
      3 C                    -0.206895      -0.000000
      4 C                    -0.099814      -0.000000
      5 C                    -0.329906       0.000000
      6 H                     0.149032       0.000000
      7 H                     0.173919       0.000000
      8 H                     0.224041       0.000000
      9 H                     0.174700       0.000000
     10 H                     0.122356      -0.000000
     11 H                     0.124304      -0.000000
  --------------------------------------------------------
  Sum of atomic charges =    -0.000000

                    Cartesian Multipole Moments
 -----------------------------------------------------------------
    Charge (ESU x 10^10)
                -0.0000
    Dipole Moment (Debye)
         X      -2.9361      Y       4.9186      Z       2.5959
       Tot       6.2891
    Quadrupole Moments (Debye-Ang)
        XX     -45.2588     XY       5.9803     YY     -52.8973
        XZ       1.4167     YZ      -2.0336     ZZ     -42.4719

 Final energy is   -1038.27386148370
 **  OPTIMIZATION CONVERGED  **
 Total job time:  29.32s(wall), 309.59s(cpu)
        *  Thank you very much for using Q-Chem.  Have a nice day.  *
