 Q-Chem 5.1, Q-Chem, Inc., Pleasanton, CA (2018)
 Q-Chem 5.1.1 for Intel X86 EM64T Linux

User input:
--------------------------------------------------------------

$comment
potential surface scanner
$end

$rem
JOBTYPE  PES_SCAN
UNRESTRICTED TRUE
SYM_IGNORE  TRUE
GEOM_OPT_MAX_CYCLES 400
SCF_MAX_CYCLES 400
METHOD   B3LYP
BASIS   6-31G**
PDB_PRINT 2
SCF_CONVERGENCE 6
THRESH 14
SCF_PRINT 1
$end
$molecule
0 3
Cl -0.402899 -1.682293 -0.341796
Cl -0.687997 2.284078 0.208370
C -0.923380 0.483034 2.303528
C -0.135581 0.895862 1.168719
C -0.884343 -0.960896 -1.925782
H -0.873318 1.010561 3.256306
H -1.672847 -0.298508 2.202403
H 0.933374 0.744229 1.074897
H -0.985763 0.114843 -1.789572
H -1.832484 -1.403339 -2.227783
H -0.106870 -1.187566 -2.653885
$end
$scan
stre 1 4 2.900000 2.901000 0.100000
$end
--------------------------------------------------------------

   10   -1038.2030326016      9.26e-07  Convergence criterion met
 Total energy in the final basis set =    -1038.2030326016
   10   -1038.2009220958      9.26e-07  Convergence criterion met
 Total energy in the final basis set =    -1038.2009220958
   10   -1038.2012808574      9.29e-07  Convergence criterion met
 Total energy in the final basis set =    -1038.2012808574
   10   -1038.2013676389      9.33e-07  Convergence criterion met
 Total energy in the final basis set =    -1038.2013676389
   10   -1038.2013727667      9.33e-07  Convergence criterion met
 Total energy in the final basis set =    -1038.2013727667
   10   -1038.2013757088      9.34e-07  Convergence criterion met
 Total energy in the final basis set =    -1038.2013757088

             Standard Nuclear Orientation (Angstroms)
    I     Atom           X                Y                Z
 ----------------------------------------------------------------
    1      Cl     -0.4055706579    -1.6268344027    -0.3148840628
    2      Cl     -0.6948952717     2.2626094231     0.1960719039
    3      C      -0.9227594268     0.4717286328     2.2987788331
    4      C      -0.1446742586     0.8629930231     1.1489100970
    5      C      -0.8811294442    -0.9482149548    -1.9193612693
    6      H      -0.8549881646     1.0098473344     3.2444991450
    7      H      -1.6840516573    -0.3002682465     2.2153682098
    8      H       0.9280898409     0.7299913312     1.0683353543
    9      H      -0.9902243724     0.1298490801    -1.8095936509
   10      H      -1.8245322929    -1.4040465361    -2.2161912802
   11      H      -0.0973722944    -1.1876496847    -2.6365282800
 ----------------------------------------------------------------

   10   -1038.2013764540      9.33e-07  Convergence criterion met
 Total energy in the final basis set =    -1038.2013764540

                    Orbital Energies (a.u.)
 --------------------------------------------------------------

 Alpha MOs
 -- Occupied --
*******-101.537 -10.247 -10.244 -10.215  -9.461  -9.453  -7.225
 -7.217  -7.217  -7.215  -7.208  -7.207  -0.863  -0.849  -0.744
 -0.679  -0.597  -0.461  -0.455  -0.450  -0.442  -0.431  -0.411
 -0.347  -0.310  -0.301  -0.299  -0.232  -0.197

 Beta MOs
 -- Occupied --
*******-101.537 -10.244 -10.233 -10.202  -9.460  -9.453  -7.223
 -7.217  -7.214  -7.214  -7.207  -7.207  -0.850  -0.844  -0.706
 -0.678  -0.565  -0.451  -0.450  -0.439  -0.426  -0.414  -0.408
 -0.326  -0.305  -0.298  -0.296

          Ground-State Mulliken Net Atomic Charges

     Atom                 Charge (a.u.)    Spin (a.u.)
  --------------------------------------------------------
      1 Cl                   -0.085099       0.025491
      2 Cl                   -0.060758       0.137550
      3 C                    -0.192543       0.974579
      4 C                    -0.188639       0.881239
      5 C                    -0.402278      -0.000954
      6 H                     0.126278       0.003991
      7 H                     0.138719      -0.009016
      8 H                     0.159364      -0.013297
      9 H                     0.179546       0.000233
     10 H                     0.162874       0.000098
     11 H                     0.162535       0.000086
  --------------------------------------------------------
  Sum of atomic charges =     0.000000

                    Cartesian Multipole Moments
 -----------------------------------------------------------------
    Charge (ESU x 10^10)
                 0.0000
    Dipole Moment (Debye)
         X      -0.1282      Y      -0.4683      Z      -0.5968
       Tot       0.7694
    Quadrupole Moments (Debye-Ang)
        XX     -43.5570     XY       1.7198     YY     -50.4745
        XZ       1.2252     YZ       1.6666     ZZ     -37.0658

 Final energy is   -1038.20137645400
 **  OPTIMIZATION CONVERGED  **
 Total job time:  23.24s(wall), 265.43s(cpu)
        *  Thank you very much for using Q-Chem.  Have a nice day.  *
