 Q-Chem 5.1, Q-Chem, Inc., Pleasanton, CA (2018)
 Q-Chem 5.1.1 for Intel X86 EM64T Linux

User input:
--------------------------------------------------------------

$comment
potential surface scanner
$end

$rem
JOBTYPE  PES_SCAN
UNRESTRICTED TRUE
SYM_IGNORE  TRUE
GEOM_OPT_MAX_CYCLES 400
SCF_MAX_CYCLES 400
METHOD   B3LYP
BASIS   6-31G**
PDB_PRINT 2
SCF_CONVERGENCE 6
THRESH 14
SCF_PRINT 1
$end
$molecule
0 3
Cl -1.356457 -2.731165 -0.918692
Cl 0.074094 2.427174 0.120727
C -0.566334 0.421994 1.927302
C 0.198722 1.618791 1.679250
C -1.228420 -1.185418 -1.847267
H -1.611189 0.468251 2.234863
H -0.157827 -0.565853 1.719132
H 0.687903 2.225381 2.432423
H -0.999763 -0.381430 -1.149633
H -2.181792 -1.004755 -2.341613
H -0.431034 -1.292970 -2.581087
$end
$scan
stre 1 4 5.200000 5.201000 0.100000
$end
--------------------------------------------------------------

   10   -1038.2074131645      9.06e-07  Convergence criterion met
 Total energy in the final basis set =    -1038.2074131645
   10   -1038.2072601137      9.02e-07  Convergence criterion met
 Total energy in the final basis set =    -1038.2072601137
   10   -1038.2073329849      9.04e-07  Convergence criterion met
 Total energy in the final basis set =    -1038.2073329849
   10   -1038.2074834219      9.09e-07  Convergence criterion met
 Total energy in the final basis set =    -1038.2074834219
   10   -1038.2074915890      9.09e-07  Convergence criterion met
 Total energy in the final basis set =    -1038.2074915890
   10   -1038.2074988352      9.08e-07  Convergence criterion met
 Total energy in the final basis set =    -1038.2074988352
   10   -1038.2075000887      9.07e-07  Convergence criterion met
 Total energy in the final basis set =    -1038.2075000887
   10   -1038.2075012574      9.06e-07  Convergence criterion met
 Total energy in the final basis set =    -1038.2075012574

             Standard Nuclear Orientation (Angstroms)
    I     Atom           X                Y                Z
 ----------------------------------------------------------------
    1      Cl     -1.3430129494    -2.6874585932    -0.8533166085
    2      Cl      0.0655149823     2.4247221156     0.1083357136
    3      C      -0.5733953167     0.4003489505     1.8942612619
    4      C       0.1921971494     1.5991524370     1.6582758371
    5      C      -1.2196409340    -1.1648402900    -1.8192460969
    6      H      -1.6180439341     0.4448709145     2.2030359561
    7      H      -0.1668309561    -0.5860760707     1.6760421291
    8      H       0.6798547306     2.1992141046     2.4176709874
    9      H      -0.9855795525    -0.3450389775    -1.1418242221
   10      H      -2.1758123987    -0.9945034377    -2.3120187146
   11      H      -0.4273478209    -1.2903911529    -2.5558112431
 ----------------------------------------------------------------

   10   -1038.2075018020      9.06e-07  Convergence criterion met
 Total energy in the final basis set =    -1038.2075018020

                    Orbital Energies (a.u.)
 --------------------------------------------------------------

 Alpha MOs
 -- Occupied --
*******-101.535 -10.258 -10.243 -10.225  -9.473  -9.451  -7.237
 -7.229  -7.227  -7.216  -7.206  -7.205  -0.876  -0.847  -0.754
 -0.678  -0.607  -0.469  -0.459  -0.449  -0.448  -0.443  -0.410
 -0.359  -0.320  -0.296  -0.296  -0.242  -0.211

 Beta MOs
 -- Occupied --
*******-101.535 -10.245 -10.243 -10.212  -9.472  -9.451  -7.235
 -7.226  -7.226  -7.216  -7.206  -7.205  -0.859  -0.847  -0.715
 -0.678  -0.575  -0.451  -0.449  -0.448  -0.434  -0.426  -0.410
 -0.336  -0.315  -0.296  -0.296

          Ground-State Mulliken Net Atomic Charges

     Atom                 Charge (a.u.)    Spin (a.u.)
  --------------------------------------------------------
      1 Cl                   -0.103676       0.000360
      2 Cl                   -0.027394       0.137962
      3 C                    -0.203856       0.968387
      4 C                    -0.209263       0.904999
      5 C                    -0.404841       0.002575
      6 H                     0.136081       0.006503
      7 H                     0.150357      -0.004521
      8 H                     0.161628      -0.017865
      9 H                     0.173886       0.001432
     10 H                     0.163052       0.000047
     11 H                     0.164025       0.000121
  --------------------------------------------------------
  Sum of atomic charges =    -0.000000

                    Cartesian Multipole Moments
 -----------------------------------------------------------------
    Charge (ESU x 10^10)
                 0.0000
    Dipole Moment (Debye)
         X      -0.0524      Y       1.0095      Z       0.3512
       Tot       1.0701
    Quadrupole Moments (Debye-Ang)
        XX     -44.9630     XY      -2.2040     YY     -52.9208
        XZ       0.9024     YZ       1.0586     ZZ     -38.2694

 Final energy is   -1038.20750180197
 **  OPTIMIZATION CONVERGED  **
 Total job time:  29.73s(wall), 336.29s(cpu)
        *  Thank you very much for using Q-Chem.  Have a nice day.  *
