 Q-Chem 5.1, Q-Chem, Inc., Pleasanton, CA (2018)
 Q-Chem 5.1.1 for Intel X86 EM64T Linux

User input:
--------------------------------------------------------------

$comment
potential surface scanner
$end

$rem
JOBTYPE  PES_SCAN
UNRESTRICTED TRUE
SYM_IGNORE  TRUE
GEOM_OPT_MAX_CYCLES 400
SCF_MAX_CYCLES 400
METHOD   B3LYP
BASIS   6-31G**
PDB_PRINT 2
SCF_CONVERGENCE 6
THRESH 14
SCF_PRINT 1
$end
$molecule
0 1
Cl 1.116811 -1.487890 -0.297674
Cl 1.116723 1.487948 -0.297811
C -1.001691 0.000017 0.686110
C 0.516784 0.000065 0.544144
C -1.798478 -0.000063 -0.617334
H -1.254734 0.881037 1.288339
H -1.254672 -0.880971 1.288410
H 1.009290 0.000112 1.514472
H -1.576223 -0.885775 -1.218175
H -2.869628 -0.000091 -0.396831
H -1.576282 0.885612 -1.218250
$end
$scan
stre 1 4 1.700000 1.701000 0.100000
$end
--------------------------------------------------------------

    9   -1038.3381067175      4.42e-07  Convergence criterion met
 Total energy in the final basis set =    -1038.3381067175
    9   -1038.3333474444      4.29e-07  Convergence criterion met
 Total energy in the final basis set =    -1038.3333474444
    9   -1038.3337685146      4.33e-07  Convergence criterion met
 Total energy in the final basis set =    -1038.3337685146
    9   -1038.3338693508      4.34e-07  Convergence criterion met
 Total energy in the final basis set =    -1038.3338693508
    9   -1038.3338801231      4.34e-07  Convergence criterion met
 Total energy in the final basis set =    -1038.3338801231
    9   -1038.3338819602      4.34e-07  Convergence criterion met
 Total energy in the final basis set =    -1038.3338819602

             Standard Nuclear Orientation (Angstroms)
    I     Atom           X                Y                Z
 ----------------------------------------------------------------
    1      Cl      1.0981529134    -1.4234027186    -0.2792114177
    2      Cl      1.1161042157     1.4980820487    -0.2865119608
    3      C      -0.9957325438    -0.0078740106     0.6826024577
    4      C       0.5282850907    -0.0411666468     0.5299082704
    5      C      -1.7979778547    -0.0053865676    -0.6178207772
    6      H      -1.2332809265     0.8789660077     1.2803741028
    7      H      -1.2616790143    -0.8825000178     1.2898718639
    8      H       1.0019791442    -0.0036494605     1.5106468443
    9      H      -1.5962387976    -0.8989614626    -1.2149416850
   10      H      -2.8682699070     0.0138068900    -0.3934572767
   11      H      -1.5634423201     0.8720869382    -1.2260604216
 ----------------------------------------------------------------

    9   -1038.3338821956      4.34e-07  Convergence criterion met
 Total energy in the final basis set =    -1038.3338821956

                    Orbital Energies (a.u.)
 --------------------------------------------------------------

 Alpha MOs
 -- Occupied --
*******-101.541 -10.308 -10.213 -10.186  -9.475  -9.458  -7.239
 -7.229  -7.228  -7.222  -7.212  -7.212  -0.920  -0.822  -0.779
 -0.679  -0.591  -0.499  -0.482  -0.452  -0.424  -0.386  -0.374
 -0.358  -0.325  -0.321  -0.302  -0.300

 Beta MOs
 -- Occupied --
*******-101.541 -10.308 -10.213 -10.186  -9.475  -9.458  -7.239
 -7.229  -7.228  -7.222  -7.212  -7.212  -0.920  -0.822  -0.779
 -0.679  -0.591  -0.499  -0.482  -0.452  -0.424  -0.386  -0.374
 -0.358  -0.325  -0.321  -0.302  -0.300

          Ground-State Mulliken Net Atomic Charges

     Atom                 Charge (a.u.)    Spin (a.u.)
  --------------------------------------------------------
      1 Cl                    0.023137      -0.000000
      2 Cl                   -0.065388       0.000000
      3 C                    -0.173631       0.000000
      4 C                    -0.281445      -0.000000
      5 C                    -0.322866      -0.000000
      6 H                     0.128644       0.000000
      7 H                     0.124657       0.000000
      8 H                     0.194100       0.000000
      9 H                     0.127089      -0.000000
     10 H                     0.112525      -0.000000
     11 H                     0.133178       0.000000
  --------------------------------------------------------
  Sum of atomic charges =    -0.000000

                    Cartesian Multipole Moments
 -----------------------------------------------------------------
    Charge (ESU x 10^10)
                -0.0000
    Dipole Moment (Debye)
         X      -1.5660      Y      -0.5080      Z       1.4633
       Tot       2.2027
    Quadrupole Moments (Debye-Ang)
        XX     -45.1247     XY      -0.6197     YY     -46.8806
        XZ       0.7896     YZ       0.1186     ZZ     -43.1851

 Final energy is   -1038.33388219562
 **  OPTIMIZATION CONVERGED  **
 Total job time:  25.34s(wall), 275.85s(cpu)
        *  Thank you very much for using Q-Chem.  Have a nice day.  *
