 Q-Chem 5.1, Q-Chem, Inc., Pleasanton, CA (2018)
 Q-Chem 5.1.1 for Intel X86 EM64T Linux

User input:
--------------------------------------------------------------

$comment
potential surface scanner
$end

$rem
JOBTYPE  PES_SCAN
UNRESTRICTED TRUE
SYM_IGNORE  TRUE
GEOM_OPT_MAX_CYCLES 400
SCF_MAX_CYCLES 400
METHOD   B3LYP
BASIS   6-31G**
PDB_PRINT 2
SCF_CONVERGENCE 6
THRESH 14
SCF_PRINT 1
$end
$molecule
0 1
Cl 1.116811 -1.487890 -0.297674
Cl 1.116723 1.487948 -0.297811
C -1.001691 0.000017 0.686110
C 0.516784 0.000065 0.544144
C -1.798478 -0.000063 -0.617334
H -1.254734 0.881037 1.288339
H -1.254672 -0.880971 1.288410
H 1.009290 0.000112 1.514472
H -1.576223 -0.885775 -1.218175
H -2.869628 -0.000091 -0.396831
H -1.576282 0.885612 -1.218250
$end
$scan
stre 1 4 1.300000 1.301000 0.100000
$end
--------------------------------------------------------------

    9   -1038.3381067175      4.42e-07  Convergence criterion met
 Total energy in the final basis set =    -1038.3381067175
    9   -1038.3286526835      4.29e-07  Convergence criterion met
 Total energy in the final basis set =    -1038.3286526835
    9   -1038.2898121648      4.77e-07  Convergence criterion met
 Total energy in the final basis set =    -1038.2898121648
    9   -1038.2146614532      4.46e-07  Convergence criterion met
 Total energy in the final basis set =    -1038.2146614532
    9   -1038.1381098854      4.79e-07  Convergence criterion met
 Total energy in the final basis set =    -1038.1381098854
    9   -1038.1303070212      5.36e-07  Convergence criterion met
 Total energy in the final basis set =    -1038.1303070212
    9   -1038.1320348953      4.73e-07  Convergence criterion met
 Total energy in the final basis set =    -1038.1320348953
    9   -1038.1328131880      4.95e-07  Convergence criterion met
    9   -1038.1335198574      5.55e-07  Convergence criterion met
 Total energy in the final basis set =    -1038.1335198574
    9   -1038.1335855422      5.67e-07  Convergence criterion met
 Total energy in the final basis set =    -1038.1335855422
    9   -1038.1336093465      5.69e-07  Convergence criterion met
 Total energy in the final basis set =    -1038.1336093465
    9   -1038.1336168916      5.68e-07  Convergence criterion met
 Total energy in the final basis set =    -1038.1336168916
    9   -1038.1336196798      5.68e-07  Convergence criterion met
 Total energy in the final basis set =    -1038.1336196798
    9   -1038.1336209264      5.69e-07  Convergence criterion met
 Total energy in the final basis set =    -1038.1336209264

             Standard Nuclear Orientation (Angstroms)
    I     Atom           X                Y                Z
 ----------------------------------------------------------------
    1      Cl      1.0213319792    -1.2184768292    -0.2230375485
    2      Cl      1.1191453665     1.6388923555    -0.2452592504
    3      C      -0.9867908459    -0.0448703906     0.6767124954
    4      C       0.5488564628    -0.2426980027     0.4943347518
    5      C      -1.7938830926    -0.0295559974    -0.6193939887
    6      H      -1.1439615948     0.8709659766     1.2481238789
    7      H      -1.3106716844    -0.8863665369     1.3090016000
    8      H       0.9961790456    -0.0166584889     1.4725638911
    9      H      -1.6680545090    -0.9528035701    -1.1952896421
   10      H      -2.8593122198     0.0694097914    -0.3934844914
   11      H      -1.4949389078     0.8121626924    -1.2488716960
 ----------------------------------------------------------------

    9   -1038.1336216420      5.69e-07  Convergence criterion met
 Total energy in the final basis set =    -1038.1336216420

                    Orbital Energies (a.u.)
 --------------------------------------------------------------

 Alpha MOs
 -- Occupied --
*******-101.491 -10.295 -10.210 -10.186  -9.531  -9.407  -7.293
 -7.284  -7.282  -7.169  -7.161  -7.161  -1.070  -0.792  -0.757
 -0.674  -0.604  -0.555  -0.506  -0.495  -0.443  -0.400  -0.377
 -0.361  -0.307  -0.290  -0.272  -0.268

 Beta MOs
 -- Occupied --
*******-101.491 -10.295 -10.210 -10.186  -9.531  -9.407  -7.293
 -7.284  -7.282  -7.169  -7.161  -7.161  -1.070  -0.792  -0.757
 -0.674  -0.604  -0.555  -0.506  -0.495  -0.443  -0.400  -0.377
 -0.361  -0.307  -0.290  -0.272  -0.268

          Ground-State Mulliken Net Atomic Charges

     Atom                 Charge (a.u.)    Spin (a.u.)
  --------------------------------------------------------
      1 Cl                    0.268076      -0.000000
      2 Cl                   -0.307118      -0.000000
      3 C                    -0.185527       0.000000
      4 C                    -0.241125      -0.000000
      5 C                    -0.331939      -0.000000
      6 H                     0.139911       0.000000
      7 H                     0.107270      -0.000000
      8 H                     0.178561      -0.000000
      9 H                     0.108967      -0.000000
     10 H                     0.115664      -0.000000
     11 H                     0.147260       0.000000
  --------------------------------------------------------
  Sum of atomic charges =    -0.000000

                    Cartesian Multipole Moments
 -----------------------------------------------------------------
    Charge (ESU x 10^10)
                -0.0000
    Dipole Moment (Debye)
         X      -1.4364      Y      -3.3973      Z       1.2601
       Tot       3.8978
    Quadrupole Moments (Debye-Ang)
        XX     -44.8041     XY      -4.1080     YY     -47.7349
        XZ       0.6792     YZ       0.6098     ZZ     -43.0774

 Final energy is   -1038.13362164198
 **  OPTIMIZATION CONVERGED  **
 Total job time:  59.90s(wall), 633.58s(cpu)
        *  Thank you very much for using Q-Chem.  Have a nice day.  *
