 Q-Chem 5.1, Q-Chem, Inc., Pleasanton, CA (2018)
 Q-Chem 5.1.1 for Intel X86 EM64T Linux

User input:
--------------------------------------------------------------

$comment
potential surface scanner
$end

$rem
JOBTYPE  PES_SCAN
UNRESTRICTED TRUE
SYM_IGNORE  TRUE
GEOM_OPT_MAX_CYCLES 400
SCF_MAX_CYCLES 400
METHOD   B3LYP
BASIS   6-31G**
PDB_PRINT 2
SCF_CONVERGENCE 6
THRESH 14
SCF_PRINT 1
$end
$molecule
0 3
Cl -0.660713 -1.400619 -0.057628
Cl -1.000082 2.248640 0.191226
C -0.869261 0.347629 2.193644
C -0.369109 0.579287 0.856122
C -0.772591 -0.845865 -1.776287
H -0.359601 0.742146 3.070595
H -1.862328 -0.069319 2.339090
H 0.708898 0.631227 0.721985
H -0.854807 0.240721 -1.759742
H -1.660456 -1.301990 -2.209937
H 0.127944 -1.171849 -2.293663
$end
$scan
stre 1 4 2.100000 2.101000 0.100000
$end
--------------------------------------------------------------

   11   -1038.1651872984      3.56e-07  Convergence criterion met
 Total energy in the final basis set =    -1038.1651872984
   11   -1038.1541809998      3.39e-07  Convergence criterion met
 Total energy in the final basis set =    -1038.1541809998
   11   -1038.1541480236      3.42e-07  Convergence criterion met
 Total energy in the final basis set =    -1038.1541480236
   11   -1038.1544007838      3.48e-07  Convergence criterion met
 Total energy in the final basis set =    -1038.1544007838
   11   -1038.1544957725      3.51e-07  Convergence criterion met
 Total energy in the final basis set =    -1038.1544957725
   11   -1038.1546074352      3.55e-07  Convergence criterion met
 Total energy in the final basis set =    -1038.1546074352
   11   -1038.1546398253      3.58e-07  Convergence criterion met
 Total energy in the final basis set =    -1038.1546398253
   11   -1038.1546546282      3.60e-07  Convergence criterion met
 Total energy in the final basis set =    -1038.1546546282
   11   -1038.1546651256      3.61e-07  Convergence criterion met
 Total energy in the final basis set =    -1038.1546651256
   11   -1038.1546730617      3.60e-07  Convergence criterion met
 Total energy in the final basis set =    -1038.1546730617
   11   -1038.1546775296      3.59e-07  Convergence criterion met
 Total energy in the final basis set =    -1038.1546775296
   11   -1038.1546795008      3.59e-07  Convergence criterion met
 Total energy in the final basis set =    -1038.1546795008

             Standard Nuclear Orientation (Angstroms)
    I     Atom           X                Y                Z
 ----------------------------------------------------------------
    1      Cl     -0.6009750444    -1.3941307238    -0.0363994530
    2      Cl     -0.9881384764     2.2782870260     0.1577461505
    3      C      -0.8838391590     0.3410294687     2.1640003946
    4      C      -0.3643089438     0.5034298034     0.8315022666
    5      C      -0.7765999916    -0.8316293995    -1.7532168416
    6      H      -0.3248474267     0.6577166185     3.0417716419
    7      H      -1.9166717861     0.0370978324     2.3106406157
    8      H       0.7145861903     0.6017732784     0.7299733266
    9      H      -0.9441657122     0.2446503605    -1.7147306259
   10      H      -1.6300236968    -1.3574905220    -2.1764310677
   11      H       0.1428780467    -1.0807257427    -2.2794514077
 ----------------------------------------------------------------

   11   -1038.1546803877      3.58e-07  Convergence criterion met
 Total energy in the final basis set =    -1038.1546803877

                    Orbital Energies (a.u.)
 --------------------------------------------------------------

 Alpha MOs
 -- Occupied --
*******-101.502 -10.259 -10.245 -10.216  -9.494  -9.417  -7.257
 -7.252  -7.247  -7.182  -7.173  -7.172  -0.897  -0.809  -0.742
 -0.701  -0.597  -0.484  -0.473  -0.463  -0.445  -0.419  -0.392
 -0.361  -0.331  -0.296  -0.278  -0.227  -0.166

 Beta MOs
 -- Occupied --
*******-101.500 -10.259 -10.231 -10.203  -9.492  -9.415  -7.255
 -7.247  -7.246  -7.176  -7.170  -7.170  -0.886  -0.786  -0.720
 -0.691  -0.571  -0.473  -0.470  -0.454  -0.434  -0.404  -0.371
 -0.335  -0.323  -0.280  -0.271

          Ground-State Mulliken Net Atomic Charges

     Atom                 Charge (a.u.)    Spin (a.u.)
  --------------------------------------------------------
      1 Cl                    0.083717       0.196163
      2 Cl                   -0.227321       0.285524
      3 C                    -0.163713       0.916363
      4 C                    -0.262440       0.638761
      5 C                    -0.403274       0.006614
      6 H                     0.128433      -0.014806
      7 H                     0.133407      -0.028462
      8 H                     0.163387      -0.007153
      9 H                     0.202792       0.007389
     10 H                     0.173533      -0.000120
     11 H                     0.171480      -0.000274
  --------------------------------------------------------
  Sum of atomic charges =     0.000000

                    Cartesian Multipole Moments
 -----------------------------------------------------------------
    Charge (ESU x 10^10)
                 0.0000
    Dipole Moment (Debye)
         X       0.6923      Y      -2.9972      Z      -0.9110
       Tot       3.2082
    Quadrupole Moments (Debye-Ang)
        XX     -44.8297     XY       3.8063     YY     -53.7700
        XZ       1.0950     YZ       1.8914     ZZ     -37.2241

 Final energy is   -1038.15468038772
 **  OPTIMIZATION CONVERGED  **
 Total job time:  46.98s(wall), 542.83s(cpu)
        *  Thank you very much for using Q-Chem.  Have a nice day.  *
