 Q-Chem 5.1, Q-Chem, Inc., Pleasanton, CA (2018)
 Q-Chem 5.1.1 for Intel X86 EM64T Linux

User input:
--------------------------------------------------------------

$comment
potential surface scanner
$end

$rem
JOBTYPE  PES_SCAN
UNRESTRICTED TRUE
SYM_IGNORE  TRUE
GEOM_OPT_MAX_CYCLES 400
SCF_MAX_CYCLES 400
METHOD   B3LYP
BASIS   6-31G**
PDB_PRINT 2
SCF_CONVERGENCE 6
THRESH 14
SCF_PRINT 1
$end
$molecule
0 1
Cl 1.170676 -1.790979 -0.365408
Cl 1.104978 1.474302 -0.338794
C -1.023063 0.037508 0.703006
C 0.465019 0.169944 0.607643
C -1.793737 0.024524 -0.616631
H -1.349065 0.886806 1.326560
H -1.218759 -0.870910 1.281121
H 1.046492 0.014892 1.509473
H -1.474337 -0.820193 -1.231118
H -2.864206 -0.071608 -0.416798
H -1.636100 0.945713 -1.183661
$end
$scan
stre 1 4 2.400000 2.401000 0.100000
$end
--------------------------------------------------------------

    9   -1038.3090003559      9.84e-07  Convergence criterion met
 Total energy in the final basis set =    -1038.3090003559
   10   -1038.3012620520      3.44e-07  Convergence criterion met
 Total energy in the final basis set =    -1038.3012620520
   10   -1038.3012217421      3.45e-07  Convergence criterion met
 Total energy in the final basis set =    -1038.3012217421
   10   -1038.3013627165      3.46e-07  Convergence criterion met
 Total energy in the final basis set =    -1038.3013627165
   10   -1038.3013669269      3.46e-07  Convergence criterion met
 Total energy in the final basis set =    -1038.3013669269
   10   -1038.3013683202      3.46e-07  Convergence criterion met
 Total energy in the final basis set =    -1038.3013683202

             Standard Nuclear Orientation (Angstroms)
    I     Atom           X                Y                Z
 ----------------------------------------------------------------
    1      Cl      1.1762586673    -1.8550293734    -0.3827723009
    2      Cl      1.1014230049     1.4789661156    -0.3406090950
    3      C      -1.0269536861     0.0471896653     0.7072052835
    4      C       0.4550790206     0.2027383704     0.6199692893
    5      C      -1.7914742893     0.0282996505    -0.6163963249
    6      H      -1.3680293345     0.8905615312     1.3326887609
    7      H      -1.2116665551    -0.8652092608     1.2821276551
    8      H       1.0531957810     0.0142323754     1.5038687505
    9      H      -1.4510679937    -0.8083686735    -1.2305819325
   10      H      -2.8607546050    -0.0882962152    -0.4217389437
   11      H      -1.6481120099     0.9549148146    -1.1783681424
 ----------------------------------------------------------------

   10   -1038.3013685058      3.46e-07  Convergence criterion met
 Total energy in the final basis set =    -1038.3013685058

                    Orbital Energies (a.u.)
 --------------------------------------------------------------

 Alpha MOs
 -- Occupied --
*******-101.500 -10.341 -10.234 -10.197  -9.507  -9.413  -7.271
 -7.262  -7.260  -7.176  -7.168  -7.168  -0.919  -0.809  -0.746
 -0.700  -0.608  -0.516  -0.488  -0.463  -0.407  -0.396  -0.385
 -0.368  -0.341  -0.298  -0.272  -0.271

 Beta MOs
 -- Occupied --
*******-101.500 -10.341 -10.234 -10.197  -9.507  -9.413  -7.271
 -7.262  -7.260  -7.176  -7.168  -7.168  -0.919  -0.809  -0.746
 -0.700  -0.608  -0.516  -0.488  -0.463  -0.407  -0.396  -0.385
 -0.368  -0.341  -0.298  -0.272  -0.271

          Ground-State Mulliken Net Atomic Charges

     Atom                 Charge (a.u.)    Spin (a.u.)
  --------------------------------------------------------
      1 Cl                   -0.344472       0.000000
      2 Cl                    0.089523      -0.000000
      3 C                    -0.189013      -0.000000
      4 C                    -0.146680       0.000000
      5 C                    -0.325284       0.000000
      6 H                     0.140309      -0.000000
      7 H                     0.158866      -0.000000
      8 H                     0.214016      -0.000000
      9 H                     0.159528       0.000000
     10 H                     0.117291      -0.000000
     11 H                     0.125918      -0.000000
  --------------------------------------------------------
  Sum of atomic charges =    -0.000000

                    Cartesian Multipole Moments
 -----------------------------------------------------------------
    Charge (ESU x 10^10)
                 0.0000
    Dipole Moment (Debye)
         X      -2.4701      Y       3.0147      Z       2.1763
       Tot       4.4638
    Quadrupole Moments (Debye-Ang)
        XX     -45.2903     XY       3.6962     YY     -49.9096
        XZ       1.1266     YZ      -1.0387     ZZ     -42.6341

 Final energy is   -1038.30136850576
 **  OPTIMIZATION CONVERGED  **
 Total job time:  27.51s(wall), 291.40s(cpu)
        *  Thank you very much for using Q-Chem.  Have a nice day.  *
