 Q-Chem 5.1, Q-Chem, Inc., Pleasanton, CA (2018)
 Q-Chem 5.1.1 for Intel X86 EM64T Linux

User input:
--------------------------------------------------------------

$comment
potential surface scanner
$end

$rem
JOBTYPE  PES_SCAN
UNRESTRICTED TRUE
SYM_IGNORE  TRUE
GEOM_OPT_MAX_CYCLES 400
SCF_MAX_CYCLES 400
METHOD   B3LYP
BASIS   6-31G**
PDB_PRINT 2
SCF_CONVERGENCE 6
THRESH 14
SCF_PRINT 1
$end
$molecule
0 3
Cl -1.054004 -2.513434 -0.671359
Cl 0.039241 2.390850 0.111587
C -0.666241 0.394691 1.907014
C 0.207277 1.506822 1.627927
C -1.191442 -1.130149 -1.826766
H -1.671554 0.546900 2.300182
H -0.400926 -0.619875 1.612958
H 0.817614 2.032046 2.353137
H -1.001024 -0.206053 -1.282470
H -2.198173 -1.131963 -2.242089
H -0.452870 -1.269832 -2.614715
$end
$scan
stre 1 4 4.700000 4.701000 0.100000
$end
--------------------------------------------------------------

   10   -1038.2077582655      9.11e-07  Convergence criterion met
 Total energy in the final basis set =    -1038.2077582655
   10   -1038.2065752238      8.89e-07  Convergence criterion met
 Total energy in the final basis set =    -1038.2065752238
   10   -1038.2073396983      9.02e-07  Convergence criterion met
 Total energy in the final basis set =    -1038.2073396983
   10   -1038.2076595022      9.13e-07  Convergence criterion met
 Total energy in the final basis set =    -1038.2076595022
   10   -1038.2076956717      9.14e-07  Convergence criterion met
 Total energy in the final basis set =    -1038.2076956717
   10   -1038.2077160685      9.12e-07  Convergence criterion met
 Total energy in the final basis set =    -1038.2077160685
   10   -1038.2077196342      9.11e-07  Convergence criterion met
 Total energy in the final basis set =    -1038.2077196342
   10   -1038.2077211942      9.10e-07  Convergence criterion met
   10   -1038.2077344846      9.13e-07  Convergence criterion met
 Total energy in the final basis set =    -1038.2077344846
   10   -1038.2077386903      9.13e-07  Convergence criterion met
 Total energy in the final basis set =    -1038.2077386903
   10   -1038.2077423127      9.14e-07  Convergence criterion met
 Total energy in the final basis set =    -1038.2077423127
   10   -1038.2077455525      9.14e-07  Convergence criterion met
 Total energy in the final basis set =    -1038.2077455525
   10   -1038.2077485526      9.14e-07  Convergence criterion met
 Total energy in the final basis set =    -1038.2077485526
   10   -1038.2077504606      9.14e-07  Convergence criterion met
 Total energy in the final basis set =    -1038.2077504606

             Standard Nuclear Orientation (Angstroms)
    I     Atom           X                Y                Z
 ----------------------------------------------------------------
    1      Cl     -0.9868873220    -2.4840958584    -0.6778805964
    2      Cl     -0.0262253665     2.3161569762     0.0606542705
    3      C      -0.6987805031     0.3962078981     1.9512949810
    4      C       0.2034849274     1.4589069175     1.5861298134
    5      C      -1.1679446540    -1.1042588435    -1.8320597540
    6      H      -1.6684718881     0.6062610393     2.4036646214
    7      H      -0.4941744816    -0.6370530693     1.6759210834
    8      H       0.8718554245     1.9822709848     2.2601191098
    9      H      -1.0020960628    -0.1767358888    -1.2861728982
   10      H      -2.1753707554    -1.1353192849    -2.2444807468
   11      H      -0.4274913184    -1.2223378711    -2.6217838841
 ----------------------------------------------------------------

   10   -1038.2077513177      9.14e-07  Convergence criterion met
 Total energy in the final basis set =    -1038.2077513177

                    Orbital Energies (a.u.)
 --------------------------------------------------------------

 Alpha MOs
 -- Occupied --
*******-101.536 -10.257 -10.242 -10.221  -9.472  -9.452  -7.235
 -7.227  -7.226  -7.217  -7.207  -7.206  -0.874  -0.847  -0.752
 -0.678  -0.605  -0.467  -0.457  -0.449  -0.447  -0.441  -0.410
 -0.357  -0.318  -0.297  -0.297  -0.239  -0.210

 Beta MOs
 -- Occupied --
*******-101.536 -10.244 -10.242 -10.209  -9.470  -9.452  -7.233
 -7.224  -7.224  -7.217  -7.207  -7.206  -0.857  -0.847  -0.712
 -0.678  -0.573  -0.450  -0.449  -0.447  -0.430  -0.424  -0.410
 -0.335  -0.313  -0.297  -0.297

          Ground-State Mulliken Net Atomic Charges

     Atom                 Charge (a.u.)    Spin (a.u.)
  --------------------------------------------------------
      1 Cl                   -0.104328       0.001034
      2 Cl                   -0.033145       0.137688
      3 C                    -0.205399       0.968142
      4 C                    -0.207609       0.907131
      5 C                    -0.405224       0.001106
      6 H                     0.132419       0.007635
      7 H                     0.157119      -0.005811
      8 H                     0.160983      -0.017782
      9 H                     0.178599       0.000752
     10 H                     0.162428       0.000005
     11 H                     0.164157       0.000102
  --------------------------------------------------------
  Sum of atomic charges =     0.000000

                    Cartesian Multipole Moments
 -----------------------------------------------------------------
    Charge (ESU x 10^10)
                 0.0000
    Dipole Moment (Debye)
         X      -0.3590      Y       0.8174      Z       0.1292
       Tot       0.9021
    Quadrupole Moments (Debye-Ang)
        XX     -43.9017     XY      -0.7753     YY     -51.9723
        XZ       1.4394     YZ       1.5583     ZZ     -37.9064

 Final energy is   -1038.20775131773
 **  OPTIMIZATION CONVERGED  **
 Total job time:  63.03s(wall), 712.32s(cpu)
        *  Thank you very much for using Q-Chem.  Have a nice day.  *
