 Q-Chem 5.1, Q-Chem, Inc., Pleasanton, CA (2018)
 Q-Chem 5.1.1 for Intel X86 EM64T Linux

User input:
--------------------------------------------------------------

$comment
potential surface scanner
$end

$rem
JOBTYPE  PES_SCAN
UNRESTRICTED TRUE
SYM_IGNORE  TRUE
GEOM_OPT_MAX_CYCLES 400
SCF_MAX_CYCLES 400
METHOD   B3LYP
BASIS   6-31G**
PDB_PRINT 2
SCF_CONVERGENCE 6
THRESH 14
SCF_PRINT 1
$end
$molecule
0 1
Cl 1.116811 -1.487890 -0.297674
Cl 1.116723 1.487948 -0.297811
C -1.001691 0.000017 0.686110
C 0.516784 0.000065 0.544144
C -1.798478 -0.000063 -0.617334
H -1.254734 0.881037 1.288339
H -1.254672 -0.880971 1.288410
H 1.009290 0.000112 1.514472
H -1.576223 -0.885775 -1.218175
H -2.869628 -0.000091 -0.396831
H -1.576282 0.885612 -1.218250
$end
$scan
stre 1 4 1.600000 1.601000 0.100000
$end
--------------------------------------------------------------

    9   -1038.3381067175      4.42e-07  Convergence criterion met
 Total energy in the final basis set =    -1038.3381067175
    9   -1038.3286526835      4.29e-07  Convergence criterion met
 Total energy in the final basis set =    -1038.3286526835
    9   -1038.3183215323      4.37e-07  Convergence criterion met
 Total energy in the final basis set =    -1038.3183215323
    9   -1038.3190504591      4.34e-07  Convergence criterion met
 Total energy in the final basis set =    -1038.3190504591
    9   -1038.3196407469      4.32e-07  Convergence criterion met
 Total energy in the final basis set =    -1038.3196407469
    9   -1038.3196919720      4.31e-07  Convergence criterion met
 Total energy in the final basis set =    -1038.3196919720
    9   -1038.3197530036      4.32e-07  Convergence criterion met
 Total energy in the final basis set =    -1038.3197530036
    9   -1038.3197570498      4.32e-07  Convergence criterion met
 Total energy in the final basis set =    -1038.3197570498
    9   -1038.3197589823      4.32e-07  Convergence criterion met
 Total energy in the final basis set =    -1038.3197589823

             Standard Nuclear Orientation (Angstroms)
    I     Atom           X                Y                Z
 ----------------------------------------------------------------
    1      Cl      1.0840936454    -1.3689384200    -0.2584096631
    2      Cl      1.1145246888     1.5105161704    -0.2783933877
    3      C      -0.9914026689    -0.0162179189     0.6791598458
    4      C       0.5379594763    -0.0804293218     0.5171429152
    5      C      -1.7979232248    -0.0094553553    -0.6183850946
    6      H      -1.2133999822     0.8756049782     1.2736288571
    7      H      -1.2679665783    -0.8856418424     1.2903141186
    8      H       0.9954968038    -0.0048740618     1.5053341327
    9      H      -1.6145696454    -0.9090631942    -1.2129962374
   10      H      -2.8670754496     0.0270758989    -0.3905060938
   11      H      -1.5518370650     0.8614240668    -1.2314893928
 ----------------------------------------------------------------

    9   -1038.3197594377      4.33e-07  Convergence criterion met
 Total energy in the final basis set =    -1038.3197594377

                    Orbital Energies (a.u.)
 --------------------------------------------------------------

 Alpha MOs
 -- Occupied --
*******-101.533 -10.303 -10.211 -10.185  -9.484  -9.450  -7.247
 -7.238  -7.237  -7.214  -7.204  -7.204  -0.945  -0.820  -0.777
 -0.676  -0.591  -0.506  -0.483  -0.460  -0.427  -0.388  -0.375
 -0.358  -0.322  -0.320  -0.299  -0.295

 Beta MOs
 -- Occupied --
*******-101.533 -10.303 -10.211 -10.185  -9.484  -9.450  -7.247
 -7.238  -7.237  -7.214  -7.204  -7.204  -0.945  -0.820  -0.777
 -0.676  -0.591  -0.506  -0.483  -0.460  -0.427  -0.388  -0.375
 -0.358  -0.322  -0.320  -0.299  -0.295

          Ground-State Mulliken Net Atomic Charges

     Atom                 Charge (a.u.)    Spin (a.u.)
  --------------------------------------------------------
      1 Cl                    0.074076      -0.000000
      2 Cl                   -0.097325       0.000000
      3 C                    -0.175005       0.000000
      4 C                    -0.287514      -0.000000
      5 C                    -0.323860      -0.000000
      6 H                     0.128465       0.000000
      7 H                     0.120329       0.000000
      8 H                     0.190383       0.000000
      9 H                     0.122990      -0.000000
     10 H                     0.112642      -0.000000
     11 H                     0.134819       0.000000
  --------------------------------------------------------
  Sum of atomic charges =    -0.000000

                    Cartesian Multipole Moments
 -----------------------------------------------------------------
    Charge (ESU x 10^10)
                 0.0000
    Dipole Moment (Debye)
         X      -1.4779      Y      -0.9791      Z       1.3860
       Tot       2.2502
    Quadrupole Moments (Debye-Ang)
        XX     -45.0549     XY      -1.1926     YY     -46.7753
        XZ       0.7575     YZ       0.2140     ZZ     -43.2185

 Final energy is   -1038.31975943767
 **  OPTIMIZATION CONVERGED  **
 Total job time:  35.27s(wall), 388.18s(cpu)
        *  Thank you very much for using Q-Chem.  Have a nice day.  *
