 Q-Chem 5.1, Q-Chem, Inc., Pleasanton, CA (2018)
 Q-Chem 5.1.1 for Intel X86 EM64T Linux

User input:
--------------------------------------------------------------

$comment
potential surface scanner
$end

$rem
JOBTYPE  PES_SCAN
UNRESTRICTED TRUE
SYM_IGNORE  TRUE
GEOM_OPT_MAX_CYCLES 400
SCF_MAX_CYCLES 400
METHOD   B3LYP
BASIS   6-31G**
PDB_PRINT 2
SCF_CONVERGENCE 6
THRESH 14
SCF_PRINT 1
$end
$molecule
0 1
Cl 1.136630 -2.296566 -0.609861
Cl 1.043797 1.635362 -0.248088
C -1.046966 0.126782 0.750067
C 0.399687 0.408864 0.712094
C -1.750542 0.017617 -0.612031
H -1.498955 0.952649 1.333299
H -1.177003 -0.788744 1.332799
H 1.094611 -0.006434 1.433563
H -1.306290 -0.811590 -1.168126
H -2.814296 -0.175353 -0.454092
H -1.652776 0.937414 -1.194229
$end
$scan
stre 1 4 3.200000 3.201000 0.100000
$end
--------------------------------------------------------------

   11   -1038.2570643781      8.16e-07  Convergence criterion met
 Total energy in the final basis set =    -1038.2570643781
   11   -1038.2520619746      7.43e-07  Convergence criterion met
 Total energy in the final basis set =    -1038.2520619746
   11   -1038.2520777318      7.43e-07  Convergence criterion met
 Total energy in the final basis set =    -1038.2520777318
   11   -1038.2522244764      7.41e-07  Convergence criterion met
 Total energy in the final basis set =    -1038.2522244764
   11   -1038.2522279589      7.41e-07  Convergence criterion met
 Total energy in the final basis set =    -1038.2522279589
   11   -1038.2522342702      7.40e-07  Convergence criterion met
 Total energy in the final basis set =    -1038.2522342702
   11   -1038.2522360223      7.40e-07  Convergence criterion met
 Total energy in the final basis set =    -1038.2522360223
   11   -1038.2522385780      7.39e-07  Convergence criterion met
 Total energy in the final basis set =    -1038.2522385780
   11   -1038.2522398324      7.39e-07  Convergence criterion met
 Total energy in the final basis set =    -1038.2522398324

             Standard Nuclear Orientation (Angstroms)
    I     Atom           X                Y                Z
 ----------------------------------------------------------------
    1      Cl      1.1165372279    -2.3565076958    -0.6628440843
    2      Cl      1.0317738014     1.6746070973    -0.2171910639
    3      C      -1.0487903510     0.1398071667     0.7581973614
    4      C       0.3941270158     0.4342635776     0.7262987256
    5      C      -1.7404922468     0.0094796307    -0.6106105263
    6      H      -1.5161298621     0.9684686154     1.3248347888
    7      H      -1.1762130717    -0.7714481930     1.3478817375
    8      H       1.0996561317    -0.0100801611     1.4201252802
    9      H      -1.2876896630    -0.8264453262    -1.1498776559
   10      H      -2.8048699351    -0.1841698363    -0.4578803525
   11      H      -1.6400120471     0.9220261248    -1.2035392106
 ----------------------------------------------------------------

   11   -1038.2522405723      7.38e-07  Convergence criterion met
 Total energy in the final basis set =    -1038.2522405723

                    Orbital Energies (a.u.)
 --------------------------------------------------------------

 Alpha MOs
 -- Occupied --
*******-101.458 -10.359 -10.252 -10.209  -9.546  -9.370  -7.309
 -7.302  -7.299  -7.132  -7.125  -7.125  -0.958  -0.828  -0.717
 -0.697  -0.629  -0.544  -0.506  -0.482  -0.431  -0.410  -0.399
 -0.385  -0.370  -0.245  -0.233  -0.232

 Beta MOs
 -- Occupied --
*******-101.458 -10.359 -10.252 -10.209  -9.546  -9.370  -7.309
 -7.302  -7.299  -7.132  -7.125  -7.125  -0.958  -0.828  -0.717
 -0.697  -0.629  -0.544  -0.506  -0.482  -0.431  -0.410  -0.399
 -0.385  -0.370  -0.245  -0.233  -0.232

          Ground-State Mulliken Net Atomic Charges

     Atom                 Charge (a.u.)    Spin (a.u.)
  --------------------------------------------------------
      1 Cl                   -0.529591       0.000000
      2 Cl                    0.168693      -0.000000
      3 C                    -0.218175      -0.000000
      4 C                    -0.091862      -0.000000
      5 C                    -0.330693       0.000000
      6 H                     0.155505      -0.000000
      7 H                     0.177280       0.000000
      8 H                     0.231390       0.000000
      9 H                     0.187822      -0.000000
     10 H                     0.125549       0.000000
     11 H                     0.124081      -0.000000
  --------------------------------------------------------
  Sum of atomic charges =    -0.000000

                    Cartesian Multipole Moments
 -----------------------------------------------------------------
    Charge (ESU x 10^10)
                 0.0000
    Dipole Moment (Debye)
         X      -2.9705      Y       6.2666      Z       3.2163
       Tot       7.6445
    Quadrupole Moments (Debye-Ang)
        XX     -44.7015     XY       7.0054     YY     -55.7366
        XZ       2.0025     YZ      -3.5864     ZZ     -42.9905

 Final energy is   -1038.25224057234
 **  OPTIMIZATION CONVERGED  **
 Total job time:  43.21s(wall), 428.30s(cpu)
        *  Thank you very much for using Q-Chem.  Have a nice day.  *
