 Q-Chem 5.1, Q-Chem, Inc., Pleasanton, CA (2018)
 Q-Chem 5.1.1 for Intel X86 EM64T Linux

User input:
--------------------------------------------------------------
$comment
A single point DFT calculation of PE with thio-ketone
$end

$molecule
0  1
S -1.38480 -0.00009 -0.00065
C 0.25474 0.00000 -0.00046
C 1.06965 1.26880 0.00007
C 1.06993 -1.26864 0.00006
H 1.72378 1.29023 0.88230
H 1.73058 1.28750 -0.87707
H 0.44018 2.15893 -0.00345
H 0.44073 -2.15896 -0.00203
H 1.72526 -1.28932 0.88140
H 1.72968 -1.28788 -0.87796
$end

$rem
JOBTYPE  OPT
UNRESTRICTED TRUE
SYM_IGNORE  TRUE
GEOM_OPT_MAX_CYCLES 400
SCF_MAX_CYCLES 400
METHOD   B3LYP
BASIS   6-31G**
PDB_PRINT 2
SCF_CONVERGENCE 8
THRESH 10
SCF_PRINT 1
$end

--------------------------------------------------------------

   11    -516.1187619787      6.52e-09  Convergence criterion met
 Total energy in the final basis set =     -516.1187619787
    7    -516.1187652864      6.06e-09  Convergence criterion met
 Total energy in the final basis set =     -516.1187652864
    7    -516.1187697231      9.34e-09  Convergence criterion met
 Total energy in the final basis set =     -516.1187697231
    7    -516.1187707778      2.96e-09  Convergence criterion met
 Total energy in the final basis set =     -516.1187707778
    7    -516.1187724679      4.70e-09  Convergence criterion met
 Total energy in the final basis set =     -516.1187724679
    7    -516.1187736971      2.87e-09  Convergence criterion met
 Total energy in the final basis set =     -516.1187736971
    7    -516.1187758606      2.98e-09  Convergence criterion met
 Total energy in the final basis set =     -516.1187758606
    7    -516.1187775817      5.29e-09  Convergence criterion met
 Total energy in the final basis set =     -516.1187775817

             Standard Nuclear Orientation (Angstroms)
    I     Atom           X                Y                Z
 ----------------------------------------------------------------
    1      S      -1.3809758033    -0.0002238183    -0.0009680941
    2      C       0.2579360783    -0.0000193551    -0.0004673253
    3      C       1.0691537037     1.2690810966     0.0001499674
    4      C       1.0694111076    -1.2689415527     0.0001658481
    5      H       1.7254251735     1.2948925789     0.8802181797
    6      H       1.7319200482     1.2922906087    -0.8750648982
    7      H       0.4342858250     2.1544353083    -0.0033152491
    8      H       0.4346940957    -2.1544153984    -0.0019224732
    9      H       1.7268891033    -1.2939532289     0.8793505748
   10      H       1.7309906680    -1.2925762393    -0.8759365300
 ----------------------------------------------------------------

    7    -516.1187786349      5.12e-09  Convergence criterion met
 Total energy in the final basis set =     -516.1187786349
 Final energy is   -516.118778634881
 **  OPTIMIZATION CONVERGED  **

                    Orbital Energies (a.u.)
 --------------------------------------------------------------

 Alpha MOs
 -- Occupied --
-88.854 -10.266 -10.200 -10.200  -7.917  -5.880  -5.880  -5.871
 -0.833  -0.712  -0.704  -0.528  -0.454  -0.445  -0.442  -0.404
 -0.376  -0.355  -0.283  -0.216

 Beta MOs
 -- Occupied --
-88.854 -10.266 -10.200 -10.200  -7.917  -5.880  -5.880  -5.871
 -0.833  -0.712  -0.704  -0.528  -0.454  -0.445  -0.442  -0.404
 -0.376  -0.355  -0.283  -0.216

          Ground-State Mulliken Net Atomic Charges

     Atom                 Charge (a.u.)    Spin (a.u.)
  --------------------------------------------------------
      1 S                    -0.133460      -0.000000
      2 C                    -0.011130      -0.000000
      3 C                    -0.334847       0.000000
      4 C                    -0.334839      -0.000000
      5 H                     0.130962      -0.000000
      6 H                     0.130740      -0.000000
      7 H                     0.145437       0.000000
      8 H                     0.145437      -0.000000
      9 H                     0.130913       0.000000
     10 H                     0.130788       0.000000
  --------------------------------------------------------
  Sum of atomic charges =    -0.000000

                    Cartesian Multipole Moments
 -----------------------------------------------------------------
    Charge (ESU x 10^10)
                -0.0000
    Dipole Moment (Debye)
         X       3.0658      Y       0.0004      Z       0.0029
       Tot       3.0658
    Quadrupole Moments (Debye-Ang)
        XX     -33.1209     XY      -0.0000     YY     -32.0359
        XZ       0.0008     YZ       0.0006     ZZ     -32.1517

 Total job time:  20.46s(wall), 264.66s(cpu)
        *  Thank you very much for using Q-Chem.  Have a nice day.  *
