 Q-Chem 5.1, Q-Chem, Inc., Pleasanton, CA (2018)
 Q-Chem 5.1.1 for Intel X86 EM64T Linux

User input:
--------------------------------------------------------------
$comment
A single point DFT calculation of PE with thio-ketone
$end

$molecule
0  3
S -1.38480 -0.00009 -0.00065
C 0.25474 0.00000 -0.00046
C 1.06965 1.26880 0.00007
C 1.06993 -1.26864 0.00006
H 1.72378 1.29023 0.88230
H 1.73058 1.28750 -0.87707
H 0.44018 2.15893 -0.00345
H 0.44073 -2.15896 -0.00203
H 1.72526 -1.28932 0.88140
H 1.72968 -1.28788 -0.87796
$end

$rem
JOBTYPE  OPT
UNRESTRICTED TRUE
SYM_IGNORE  TRUE
GEOM_OPT_MAX_CYCLES 400
SCF_MAX_CYCLES 400
METHOD   B3LYP
BASIS   6-31G**
PDB_PRINT 2
SCF_CONVERGENCE 8
THRESH 10
SCF_PRINT 1
$end

--------------------------------------------------------------

   13    -516.0379548359      4.57e-09  Convergence criterion met
 Total energy in the final basis set =     -516.0379548359
   11    -516.0420564231      4.22e-09  Convergence criterion met
 Total energy in the final basis set =     -516.0420564231
   11    -516.0429385157      2.70e-09  Convergence criterion met
 Total energy in the final basis set =     -516.0429385157
   10    -516.0430119837      3.35e-09  Convergence criterion met
 Total energy in the final basis set =     -516.0430119837
    8    -516.0430143279      7.68e-09  Convergence criterion met
 Total energy in the final basis set =     -516.0430143279

             Standard Nuclear Orientation (Angstroms)
    I     Atom           X                Y                Z
 ----------------------------------------------------------------
    1      S      -1.4026179078    -0.0001796714     0.0048107678
    2      C       0.3313014133    -0.0000024632    -0.0050372574
    3      C       1.0754006674     1.3037006337    -0.0005226519
    4      C       1.0756797941    -1.3035459290    -0.0005169360
    5      H       1.7205978546     1.3894061066     0.8875864536
    6      H       1.7304858927     1.3887281879    -0.8812592627
    7      H       0.4083681143     2.1703076898    -0.0046096843
    8      H       0.4088294412    -2.1702977547    -0.0036402768
    9      H       1.7215879372    -1.3886658650     0.8871256099
   10      H       1.7300967930    -1.3888809348    -0.8817267621
 ----------------------------------------------------------------

    8    -516.0430151016      6.53e-09  Convergence criterion met
 Total energy in the final basis set =     -516.0430151016
 Final energy is   -516.043015101618
 **  OPTIMIZATION CONVERGED  **

                    Orbital Energies (a.u.)
 --------------------------------------------------------------

 Alpha MOs
 -- Occupied --
-88.905 -10.213 -10.194 -10.194  -7.964  -5.935  -5.924  -5.920
 -0.822  -0.712  -0.703  -0.537  -0.443  -0.442  -0.434  -0.394
 -0.370  -0.351  -0.301  -0.292  -0.151

 Beta MOs
 -- Occupied --
-88.898 -10.200 -10.194 -10.194  -7.958  -5.922  -5.917  -5.913
 -0.795  -0.699  -0.684  -0.509  -0.433  -0.425  -0.419  -0.389
 -0.365  -0.337  -0.264

          Ground-State Mulliken Net Atomic Charges

     Atom                 Charge (a.u.)    Spin (a.u.)
  --------------------------------------------------------
      1 S                     0.070894       1.096780
      2 C                    -0.137189       0.825034
      3 C                    -0.323958      -0.040096
      4 C                    -0.323959      -0.040097
      5 H                     0.119973       0.040323
      6 H                     0.120251       0.039317
      7 H                     0.116881      -0.000451
      8 H                     0.116882      -0.000451
      9 H                     0.119971       0.040292
     10 H                     0.120254       0.039348
  --------------------------------------------------------
  Sum of atomic charges =    -0.000000

                    Cartesian Multipole Moments
 -----------------------------------------------------------------
    Charge (ESU x 10^10)
                -0.0000
    Dipole Moment (Debye)
         X       1.2833      Y       0.0001      Z       0.0028
       Tot       1.2833
    Quadrupole Moments (Debye-Ang)
        XX     -32.8183     XY      -0.0003     YY     -30.3179
        XZ      -0.0084     YZ      -0.0003     ZZ     -34.3196

 Total job time:  14.95s(wall), 223.12s(cpu)
        *  Thank you very much for using Q-Chem.  Have a nice day.  *
