 Q-Chem 5.1, Q-Chem, Inc., Pleasanton, CA (2018)
 Q-Chem 5.1.1 for Intel X86 EM64T Linux

User input:
--------------------------------------------------------------

$comment
potential surface scanner
$end

$rem
JOBTYPE  PES_SCAN
UNRESTRICTED TRUE
SYM_IGNORE  TRUE
GEOM_OPT_MAX_CYCLES 400
SCF_MAX_CYCLES 400
METHOD   B3LYP
BASIS   6-31G**
PDB_PRINT 2
SCF_CONVERGENCE 6
THRESH 14
SCF_PRINT 1
$end
$molecule
0 3
Se 3.560917 1.846421 0.000135
C 0.264972 -2.264359 0.573051
C -0.745767 -1.600977 -0.227369
C -2.187406 -2.033080 0.014084
Se -0.569704 0.480005 0.121885
H -0.769622 0.336247 1.573779
H 2.294567 1.063444 0.001627
H 1.303388 -2.276079 0.262632
H 0.034494 -2.588906 1.583566
H -0.497328 -1.601358 -1.292005
H -2.454979 -1.947932 1.071902
H -2.889205 -1.429251 -0.564696
H -2.306328 -3.083579 -0.277087
$end
$scan
stre 1 2 5.200000 5.201000 0.100000
$end
--------------------------------------------------------------

   11   -4921.6405034445      8.00e-07  Convergence criterion met
 Total energy in the final basis set =    -4921.6405034445
   11   -4921.6404555705      7.72e-07  Convergence criterion met
 Total energy in the final basis set =    -4921.6404555705
   11   -4921.6404679584      7.76e-07  Convergence criterion met
 Total energy in the final basis set =    -4921.6404679584
   11   -4921.6404769586      7.93e-07  Convergence criterion met
 Total energy in the final basis set =    -4921.6404769586
   11   -4921.6404797071      8.04e-07  Convergence criterion met
 Total energy in the final basis set =    -4921.6404797071
   11   -4921.6404844097      8.32e-07  Convergence criterion met
 Total energy in the final basis set =    -4921.6404844097
   11   -4921.6404858297      8.37e-07  Convergence criterion met
 Total energy in the final basis set =    -4921.6404858297
   11   -4921.6404871326      8.39e-07  Convergence criterion met
 Total energy in the final basis set =    -4921.6404871326

             Standard Nuclear Orientation (Angstroms)
    I     Atom           X                Y                Z
 ----------------------------------------------------------------
    1      Se      3.5444166198     1.7746689322     0.0100525230
    2      C       0.2788787611    -2.2336116903     0.5667833552
    3      C      -0.7441124252    -1.5840727457    -0.2297190009
    4      C      -2.1785377841    -2.0376156750     0.0161770098
    5      Se     -0.5977365986     0.4980503949     0.1209470713
    6      H      -0.7950958500     0.3508466314     1.5727965388
    7      H       2.2746494155     0.9974368194     0.0099642728
    8      H       1.3159849431    -2.2329744265     0.2517272878
    9      H       0.0567787630    -2.5614150585     1.5781042858
   10      H      -0.4992549134    -1.5802353953    -1.2951793802
   11      H      -2.4433291334    -1.9581449285     1.0751272233
   12      H      -2.8912214374    -1.4430887605    -0.5589773393
   13      H      -2.2834213604    -3.0892480977    -0.2762998474
 ----------------------------------------------------------------

   11   -4921.6404879780      8.39e-07  Convergence criterion met
 Total energy in the final basis set =    -4921.6404879780

                    Orbital Energies (a.u.)
 --------------------------------------------------------------

 Alpha MOs
 -- Occupied --
*******-453.899 -58.101 -58.094 -52.161 -52.158 -52.155 -52.152
-52.151 -52.148 -10.242 -10.210 -10.196  -7.835  -7.828  -5.784
 -5.776  -5.773  -5.770  -5.765  -5.760  -2.116  -2.115  -2.107
 -2.106  -2.106  -2.101  -2.099  -2.098  -2.096  -2.094  -0.817
 -0.701  -0.695  -0.690  -0.585  -0.482  -0.439  -0.431  -0.390
 -0.383  -0.378  -0.361  -0.338  -0.285  -0.243  -0.242  -0.206

 Beta MOs
 -- Occupied --
*******-453.898 -58.100 -58.094 -52.157 -52.156 -52.154 -52.151
-52.150 -52.148 -10.244 -10.197 -10.196  -7.832  -7.827  -5.775
 -5.775  -5.771  -5.768  -5.764  -5.759  -2.110  -2.110  -2.105
 -2.104  -2.101  -2.100  -2.097  -2.097  -2.095  -2.093  -0.809
 -0.693  -0.673  -0.660  -0.576  -0.477  -0.436  -0.426  -0.387
 -0.378  -0.369  -0.358  -0.319  -0.235  -0.229

          Ground-State Mulliken Net Atomic Charges

     Atom                 Charge (a.u.)    Spin (a.u.)
  --------------------------------------------------------
      1 Se                   -0.117672       1.023650
      2 C                    -0.198972       0.929747
      3 C                    -0.150911      -0.112544
      4 C                    -0.307894       0.007347
      5 Se                   -0.110932       0.256204
      6 H                     0.061300      -0.006295
      7 H                     0.093981      -0.026451
      8 H                     0.118836      -0.041110
      9 H                     0.112379      -0.041261
     10 H                     0.138005       0.011932
     11 H                     0.114897      -0.000916
     12 H                     0.128824       0.001056
     13 H                     0.118159      -0.001360
  --------------------------------------------------------
  Sum of atomic charges =     0.000000

                    Cartesian Multipole Moments
 -----------------------------------------------------------------
    Charge (ESU x 10^10)
                 0.0000
    Dipole Moment (Debye)
         X      -1.7124      Y      -2.4888      Z       0.3361
       Tot       3.0397
    Quadrupole Moments (Debye-Ang)
        XX     -63.0920     XY      -1.6893     YY     -57.4191
        XZ      -1.2087     YZ       0.9560     ZZ     -56.9651

 Final energy is   -4921.64048797804
 **  OPTIMIZATION CONVERGED  **
 Total job time:  61.05s(wall), 651.12s(cpu)
        *  Thank you very much for using Q-Chem.  Have a nice day.  *
