 Q-Chem 5.1, Q-Chem, Inc., Pleasanton, CA (2018)
 Q-Chem 5.1.1 for Intel X86 EM64T Linux

User input:
--------------------------------------------------------------

$comment
potential surface scanner
$end

$rem
JOBTYPE  PES_SCAN
UNRESTRICTED TRUE
SYM_IGNORE  TRUE
GEOM_OPT_MAX_CYCLES 400
SCF_MAX_CYCLES 400
METHOD   B3LYP
BASIS   6-31G**
PDB_PRINT 2
SCF_CONVERGENCE 6
THRESH 14
SCF_PRINT 1
$end
$molecule
0 1
Se 1.918633 0.397815 0.269771
C 0.560789 -1.165509 0.619455
C -0.665319 -1.046880 -0.271578
C -1.636992 -2.210537 -0.055594
Se -1.582153 0.721770 -0.069058
H -2.089456 0.446609 1.292417
H 3.101914 -0.492883 0.285331
H 1.113542 -2.085102 0.411558
H 0.309304 -1.120657 1.679591
H -0.350923 -1.013528 -1.318888
H -1.991446 -2.245765 0.979897
H -2.508073 -2.119588 -0.708627
H -1.141820 -3.165142 -0.272773
$end
$scan
stre 1 2 2.200000 2.201000 0.100000
$end
--------------------------------------------------------------

   10   -4921.7284790145      4.02e-07  Convergence criterion met
 Total energy in the final basis set =    -4921.7284790145
   10   -4921.7228718501      3.81e-07  Convergence criterion met
 Total energy in the final basis set =    -4921.7228718501
   10   -4921.7229123763      3.82e-07  Convergence criterion met
 Total energy in the final basis set =    -4921.7229123763
   10   -4921.7229630225      3.80e-07  Convergence criterion met
 Total energy in the final basis set =    -4921.7229630225

             Standard Nuclear Orientation (Angstroms)
    I     Atom           X                Y                Z
 ----------------------------------------------------------------
    1      Se      1.9667522941     0.4434226401     0.2612406472
    2      C       0.5425879173    -1.1929556732     0.6273303462
    3      C      -0.6710959546    -1.0554165482    -0.2687136989
    4      C      -1.6527317310    -2.2142023566    -0.0588107929
    5      Se     -1.5778448136     0.7172031101    -0.0662519565
    6      H      -2.0919698738     0.4417438998     1.2925109760
    7      H       3.1414556085    -0.4592152130     0.2794854297
    8      H       1.1163465656    -2.0975618976     0.4157291819
    9      H       0.3113456828    -1.1233086439     1.6894237721
   10      H      -0.3507801839    -1.0241846704    -1.3139737260
   11      H      -2.0138585026    -2.2466837172     0.9743838900
   12      H      -2.5188521451    -2.1159981732    -0.7174312192
   13      H      -1.1633548637    -3.1722397567    -0.2734208497
 ----------------------------------------------------------------

   10   -4921.7229646678      3.79e-07  Convergence criterion met
 Total energy in the final basis set =    -4921.7229646678

                    Orbital Energies (a.u.)
 --------------------------------------------------------------

 Alpha MOs
 -- Occupied --
*******-453.892 -58.092 -58.087 -52.150 -52.149 -52.146 -52.144
-52.143 -52.140 -10.241 -10.237 -10.198  -7.825  -7.819  -5.771
 -5.767  -5.764  -5.761  -5.757  -5.751  -2.105  -2.104  -2.098
 -2.098  -2.096  -2.093  -2.091  -2.089  -2.087  -2.085  -0.821
 -0.717  -0.696  -0.655  -0.585  -0.474  -0.446  -0.429  -0.412
 -0.386  -0.360  -0.358  -0.319  -0.296  -0.231  -0.225

 Beta MOs
 -- Occupied --
*******-453.892 -58.092 -58.087 -52.150 -52.149 -52.146 -52.144
-52.143 -52.140 -10.241 -10.237 -10.198  -7.825  -7.819  -5.771
 -5.767  -5.764  -5.761  -5.757  -5.751  -2.105  -2.104  -2.098
 -2.098  -2.096  -2.093  -2.091  -2.089  -2.087  -2.085  -0.821
 -0.717  -0.696  -0.655  -0.585  -0.474  -0.446  -0.429  -0.412
 -0.386  -0.360  -0.358  -0.319  -0.296  -0.231  -0.225

          Ground-State Mulliken Net Atomic Charges

     Atom                 Charge (a.u.)    Spin (a.u.)
  --------------------------------------------------------
      1 Se                   -0.093104       0.000000
      2 C                    -0.250273       0.000000
      3 C                    -0.150272       0.000000
      4 C                    -0.315421       0.000000
      5 Se                   -0.066150      -0.000000
      6 H                     0.050245       0.000000
      7 H                     0.041126      -0.000000
      8 H                     0.133439       0.000000
      9 H                     0.144044       0.000000
     10 H                     0.147227       0.000000
     11 H                     0.113265      -0.000000
     12 H                     0.135660      -0.000000
     13 H                     0.110213      -0.000000
  --------------------------------------------------------
  Sum of atomic charges =     0.000000

                    Cartesian Multipole Moments
 -----------------------------------------------------------------
    Charge (ESU x 10^10)
                -0.0000
    Dipole Moment (Debye)
         X      -0.5062      Y      -2.9612      Z       0.5302
       Tot       3.0505
    Quadrupole Moments (Debye-Ang)
        XX     -57.7954     XY      -1.1073     YY     -55.3149
        XZ      -2.3692     YZ      -0.4311     ZZ     -57.3751

 Final energy is   -4921.72296466781
 **  OPTIMIZATION CONVERGED  **
 Total job time:  33.09s(wall), 383.59s(cpu)
        *  Thank you very much for using Q-Chem.  Have a nice day.  *
