 Q-Chem 5.1, Q-Chem, Inc., Pleasanton, CA (2018)
 Q-Chem 5.1.1 for Intel X86 EM64T Linux

User input:
--------------------------------------------------------------

$comment
potential surface scanner
$end

$rem
JOBTYPE  PES_SCAN
UNRESTRICTED TRUE
SYM_IGNORE  TRUE
GEOM_OPT_MAX_CYCLES 400
SCF_MAX_CYCLES 400
METHOD   B3LYP
BASIS   6-31G**
PDB_PRINT 2
SCF_CONVERGENCE 6
THRESH 14
SCF_PRINT 1
$end
$molecule
0 3
Se 2.440740 1.244788 -0.125155
C 0.434616 -2.074882 0.281361
C -0.729639 -1.507837 -0.351508
C -2.087227 -2.002322 0.132051
Se -0.656995 0.626148 -0.066629
H -0.693224 0.517021 1.404065
H 2.474428 0.442843 1.118770
H 1.409389 -2.002553 -0.185834
H 0.384429 -2.421324 1.309688
H -0.653898 -1.496186 -1.441251
H -2.175613 -1.917409 1.219716
H -2.909272 -1.446588 -0.323900
H -2.199734 -3.061103 -0.129875
$end
$scan
stre 1 2 3.800000 3.801000 0.100000
$end
--------------------------------------------------------------

   11   -4921.6480065867      7.54e-07  Convergence criterion met
 Total energy in the final basis set =    -4921.6480065867
   11   -4921.6477205765      7.25e-07  Convergence criterion met
 Total energy in the final basis set =    -4921.6477205765
   11   -4921.6478786201      7.30e-07  Convergence criterion met
 Total energy in the final basis set =    -4921.6478786201
   11   -4921.6479329168      7.40e-07  Convergence criterion met
 Total energy in the final basis set =    -4921.6479329168
   11   -4921.6479391720      7.46e-07  Convergence criterion met
 Total energy in the final basis set =    -4921.6479391720
   11   -4921.6479469184      7.58e-07  Convergence criterion met
 Total energy in the final basis set =    -4921.6479469184
   11   -4921.6479487245      7.61e-07  Convergence criterion met
 Total energy in the final basis set =    -4921.6479487245
   11   -4921.6479499503      7.62e-07  Convergence criterion met
 Total energy in the final basis set =    -4921.6479499503

             Standard Nuclear Orientation (Angstroms)
    I     Atom           X                Y                Z
 ----------------------------------------------------------------
    1      Se      2.4323297673     1.1730266794    -0.1101268123
    2      C       0.4464791348    -2.0442026195     0.2717564784
    3      C      -0.7294598541    -1.4951788552    -0.3558471141
    4      C      -2.0779394137    -2.0040219976     0.1382070107
    5      Se     -0.6807677885     0.6387783321    -0.0775416985
    6      H      -0.7209392218     0.5333756522     1.3932169500
    7      H       2.4547555786     0.3747161450     1.1364928762
    8      H       1.4156864700    -1.9678394445    -0.2053351049
    9      H       0.4083145649    -2.3804263301     1.3041031641
   10      H      -0.6607067325    -1.4873158386    -1.4461167904
   11      H      -2.1651061357    -1.9058218669     1.2248581091
   12      H      -2.9094067457    -1.4667514642    -0.3229317695
   13      H      -2.1752396234    -3.0677423920    -0.1092362987
 ----------------------------------------------------------------

   11   -4921.6479504263      7.61e-07  Convergence criterion met
 Total energy in the final basis set =    -4921.6479504263

                    Orbital Energies (a.u.)
 --------------------------------------------------------------

 Alpha MOs
 -- Occupied --
*******-453.873 -58.115 -58.067 -52.173 -52.172 -52.170 -52.126
-52.124 -52.121 -10.251 -10.217 -10.205  -7.849  -7.801  -5.793
 -5.790  -5.784  -5.746  -5.744  -5.732  -2.126  -2.126  -2.120
 -2.118  -2.117  -2.080  -2.080  -2.070  -2.069  -2.067  -0.826
 -0.715  -0.707  -0.663  -0.593  -0.489  -0.448  -0.440  -0.402
 -0.391  -0.372  -0.358  -0.344  -0.295  -0.219  -0.216  -0.206

 Beta MOs
 -- Occupied --
*******-453.871 -58.115 -58.067 -52.172 -52.171 -52.169 -52.124
-52.122 -52.121 -10.253 -10.205 -10.205  -7.847  -7.798  -5.791
 -5.787  -5.781  -5.743  -5.739  -5.731  -2.124  -2.123  -2.118
 -2.115  -2.114  -2.076  -2.075  -2.068  -2.066  -2.065  -0.818
 -0.703  -0.685  -0.637  -0.584  -0.484  -0.445  -0.435  -0.397
 -0.387  -0.369  -0.347  -0.325  -0.260  -0.206

          Ground-State Mulliken Net Atomic Charges

     Atom                 Charge (a.u.)    Spin (a.u.)
  --------------------------------------------------------
      1 Se                   -0.236152       0.798641
      2 C                    -0.198270       0.904119
      3 C                    -0.155582      -0.125699
      4 C                    -0.316220       0.009501
      5 Se                    0.010352       0.517612
      6 H                     0.068603      -0.015293
      7 H                     0.043776      -0.021859
      8 H                     0.147824      -0.039682
      9 H                     0.113812      -0.040091
     10 H                     0.147154       0.012093
     11 H                     0.117495      -0.001357
     12 H                     0.131242       0.000905
     13 H                     0.125965       0.001111
  --------------------------------------------------------
  Sum of atomic charges =    -0.000000

                    Cartesian Multipole Moments
 -----------------------------------------------------------------
    Charge (ESU x 10^10)
                 0.0000
    Dipole Moment (Debye)
         X      -2.9500      Y      -3.1261      Z       0.9020
       Tot       4.3919
    Quadrupole Moments (Debye-Ang)
        XX     -63.2894     XY      -1.9481     YY     -58.8538
        XZ       1.2996     YZ      -0.6411     ZZ     -54.2523

 Final energy is   -4921.64795042626
 **  OPTIMIZATION CONVERGED  **
 Total job time:  61.12s(wall), 702.84s(cpu)
        *  Thank you very much for using Q-Chem.  Have a nice day.  *
