 Q-Chem 5.1, Q-Chem, Inc., Pleasanton, CA (2018)
 Q-Chem 5.1.1 for Intel X86 EM64T Linux

User input:
--------------------------------------------------------------

$comment
potential surface scanner
$end

$rem
JOBTYPE  PES_SCAN
UNRESTRICTED TRUE
SYM_IGNORE  TRUE
GEOM_OPT_MAX_CYCLES 400
SCF_MAX_CYCLES 400
METHOD   B3LYP
BASIS   6-31G**
PDB_PRINT 2
SCF_CONVERGENCE 6
THRESH 14
SCF_PRINT 1
$end
$molecule
0 1
Se 1.870900 0.175900 -0.051900
C 0.575300 -1.200000 0.467400
C -0.687000 -1.059800 -0.385600
C -1.647200 -2.208000 -0.068200
Se -1.558500 0.649900 0.013200
H -1.851500 0.486400 1.536700
H 3.049900 -0.144000 0.918300
H 1.011300 -2.186800 0.311700
H 0.318200 -1.078300 1.519600
H -0.417700 -1.092800 -1.441300
H -1.916600 -2.175000 0.987500
H -2.546500 -2.108100 -0.675900
H -1.162600 -3.158800 -0.290000
$end
$scan
stre 1 2 1.200000 1.201000 0.100000
$end
--------------------------------------------------------------

   10   -4921.7171930318      4.57e-07  Convergence criterion met
 Total energy in the final basis set =    -4921.7171930318
   10   -4921.7133446033      4.67e-07  Convergence criterion met
 Total energy in the final basis set =    -4921.7133446033
   10   -4921.6872331772      4.63e-07  Convergence criterion met
 Total energy in the final basis set =    -4921.6872331772
   10   -4921.6268283755      5.06e-07  Convergence criterion met
 Total energy in the final basis set =    -4921.6268283755
   10   -4921.5243799599      5.78e-07  Convergence criterion met
 Total energy in the final basis set =    -4921.5243799599
   10   -4921.3882599207      6.50e-07  Convergence criterion met
 Total energy in the final basis set =    -4921.3882599207
   10   -4921.1442047848      7.10e-07  Convergence criterion met
 Total energy in the final basis set =    -4921.1442047848
   10   -4921.0376621047      7.32e-07  Convergence criterion met
   10   -4921.0216136394      7.94e-07  Convergence criterion met
 Total energy in the final basis set =    -4921.0216136394
   10   -4921.0216155462      7.94e-07  Convergence criterion met
 Total energy in the final basis set =    -4921.0216155462
   10   -4921.0216170543      7.95e-07  Convergence criterion met
 Total energy in the final basis set =    -4921.0216170543
   10   -4921.0216185728      7.95e-07  Convergence criterion met
 Total energy in the final basis set =    -4921.0216185728
   10   -4921.0216203938      7.94e-07  Convergence criterion met
 Total energy in the final basis set =    -4921.0216203938
   10   -4921.0216220053      7.94e-07  Convergence criterion met
 Total energy in the final basis set =    -4921.0216220053

             Standard Nuclear Orientation (Angstroms)
    I     Atom           X                Y                Z
 ----------------------------------------------------------------
    1      Se      1.6156997243    -0.2197662735     0.0367237297
    2      C       0.8006606594    -1.0233855654     0.3971504518
    3      C      -0.6643166095    -0.9640575376    -0.3518480118
    4      C      -1.5255869288    -2.1746736893    -0.0092049790
    5      Se     -1.6264707102     0.7536628762    -0.0467881192
    6      H      -1.9124520023     0.4512997135     1.3707732250
    7      H       2.8139851355    -0.3126423968     0.9460483781
    8      H       0.8822621224    -2.1618213630     0.2636234598
    9      H       0.3517771334    -1.0769287159     1.4415433578
   10      H      -0.4571116069    -0.9344415354    -1.4282780838
   11      H      -1.7482723339    -2.2126356421     1.0612427391
   12      H      -2.4719190343    -2.1188490516    -0.5508665022
   13      H      -1.0202555492    -3.1051608192    -0.2886196453
 ----------------------------------------------------------------

   10   -4921.0216228010      7.94e-07  Convergence criterion met
 Total energy in the final basis set =    -4921.0216228010

                    Orbital Energies (a.u.)
 --------------------------------------------------------------

 Alpha MOs
 -- Occupied --
*******-453.881 -58.096 -58.094 -52.154 -52.153 -52.150 -52.150
-52.147 -52.146 -10.260 -10.234 -10.201  -7.850  -7.830  -5.805
 -5.787  -5.778  -5.775  -5.771  -5.761  -2.154  -2.134  -2.126
 -2.113  -2.113  -2.109  -2.108  -2.100  -2.097  -2.095  -0.937
 -0.797  -0.702  -0.635  -0.581  -0.508  -0.501  -0.446  -0.435
 -0.405  -0.382  -0.367  -0.327  -0.270  -0.236  -0.184

 Beta MOs
 -- Occupied --
*******-453.881 -58.096 -58.094 -52.154 -52.153 -52.150 -52.150
-52.147 -52.146 -10.260 -10.234 -10.201  -7.850  -7.830  -5.805
 -5.787  -5.778  -5.775  -5.771  -5.761  -2.154  -2.134  -2.126
 -2.113  -2.113  -2.109  -2.108  -2.100  -2.097  -2.095  -0.937
 -0.797  -0.702  -0.635  -0.581  -0.508  -0.501  -0.446  -0.435
 -0.405  -0.382  -0.367  -0.327  -0.270  -0.236  -0.184

          Ground-State Mulliken Net Atomic Charges

     Atom                 Charge (a.u.)    Spin (a.u.)
  --------------------------------------------------------
      1 Se                    0.121097      -0.000000
      2 C                    -0.251275       0.000000
      3 C                    -0.215836      -0.000000
      4 C                    -0.310037       0.000000
      5 Se                   -0.053190       0.000000
      6 H                     0.052008      -0.000000
      7 H                     0.011554       0.000000
      8 H                     0.047488       0.000000
      9 H                     0.071072       0.000000
     10 H                     0.149117       0.000000
     11 H                     0.120284      -0.000000
     12 H                     0.136966      -0.000000
     13 H                     0.120754      -0.000000
  --------------------------------------------------------
  Sum of atomic charges =     0.000000

                    Cartesian Multipole Moments
 -----------------------------------------------------------------
    Charge (ESU x 10^10)
                -0.0000
    Dipole Moment (Debye)
         X      -0.9015      Y      -2.3894      Z       1.0820
       Tot       2.7736
    Quadrupole Moments (Debye-Ang)
        XX     -59.4106     XY       0.3798     YY     -56.3806
        XZ       0.6959     YZ       0.1992     ZZ     -54.7361

 Final energy is   -4921.02162280102
 **  OPTIMIZATION CONVERGED  **
 Total job time:  281.43s(wall), 3298.05s(cpu)
        *  Thank you very much for using Q-Chem.  Have a nice day.  *
