 Q-Chem 5.1, Q-Chem, Inc., Pleasanton, CA (2018)
 Q-Chem 5.1.1 for Intel X86 EM64T Linux

User input:
--------------------------------------------------------------

$comment
potential surface scanner
$end

$rem
JOBTYPE  PES_SCAN
UNRESTRICTED TRUE
SYM_IGNORE  TRUE
GEOM_OPT_MAX_CYCLES 400
SCF_MAX_CYCLES 400
METHOD   B3LYP
BASIS   6-31G**
PDB_PRINT 2
SCF_CONVERGENCE 6
THRESH 14
SCF_PRINT 1
$end
$molecule
0 1
Se 1.870900 0.175900 -0.051900
C 0.575300 -1.200000 0.467400
C -0.687000 -1.059800 -0.385600
C -1.647200 -2.208000 -0.068200
Se -1.558500 0.649900 0.013200
H -1.851500 0.486400 1.536700
H 3.049900 -0.144000 0.918300
H 1.011300 -2.186800 0.311700
H 0.318200 -1.078300 1.519600
H -0.417700 -1.092800 -1.441300
H -1.916600 -2.175000 0.987500
H -2.546500 -2.108100 -0.675900
H -1.162600 -3.158800 -0.290000
$end
$scan
stre 1 2 1.800000 1.801000 0.100000
$end
--------------------------------------------------------------

   10   -4921.7171930318      4.57e-07  Convergence criterion met
 Total energy in the final basis set =    -4921.7171930318
   10   -4921.7133446033      4.67e-07  Convergence criterion met
 Total energy in the final basis set =    -4921.7133446033
   10   -4921.7140063939      4.42e-07  Convergence criterion met
 Total energy in the final basis set =    -4921.7140063939
   10   -4921.7155306172      4.27e-07  Convergence criterion met
 Total energy in the final basis set =    -4921.7155306172
   10   -4921.7158292417      4.26e-07  Convergence criterion met
 Total energy in the final basis set =    -4921.7158292417
   10   -4921.7162527635      4.25e-07  Convergence criterion met
 Total energy in the final basis set =    -4921.7162527635
   10   -4921.7163298033      4.25e-07  Convergence criterion met
 Total energy in the final basis set =    -4921.7163298033
   10   -4921.7166276808      4.25e-07  Convergence criterion met
   10   -4921.7173524382      4.22e-07  Convergence criterion met
 Total energy in the final basis set =    -4921.7173524382
   10   -4921.7173802264      4.22e-07  Convergence criterion met
 Total energy in the final basis set =    -4921.7173802264
   10   -4921.7173921621      4.23e-07  Convergence criterion met
 Total energy in the final basis set =    -4921.7173921621
   10   -4921.7173956267      4.23e-07  Convergence criterion met
 Total energy in the final basis set =    -4921.7173956267
   10   -4921.7173991307      4.23e-07  Convergence criterion met
 Total energy in the final basis set =    -4921.7173991307
   10   -4921.7174010087      4.23e-07  Convergence criterion met
 Total energy in the final basis set =    -4921.7174010087

             Standard Nuclear Orientation (Angstroms)
    I     Atom           X                Y                Z
 ----------------------------------------------------------------
    1      Se      1.7625397836     0.2479009665     0.2009705582
    2      C       0.6061905725    -1.0922237622     0.5279606043
    3      C      -0.6797966574    -1.0271647379    -0.3142746618
    4      C      -1.6002403370    -2.2160755808    -0.0433911289
    5      Se     -1.6460170313     0.7150845649    -0.0869521567
    6      H      -1.8607723197     0.5319682021     1.3610179798
    7      H       2.9722408092    -0.5012691153     0.6058288485
    8      H       1.0739105801    -2.0578595054     0.3030148908
    9      H       0.3152174797    -1.1361986417     1.5850520627
   10      H      -0.4118464362    -0.9943666945    -1.3755061539
   11      H      -1.9143583952    -2.2453366503     1.0050985323
   12      H      -2.4982500324    -2.1666349449    -0.6629495383
   13      H      -1.0808180157    -3.1572241004    -0.2643698372
 ----------------------------------------------------------------

   10   -4921.7174018980      4.22e-07  Convergence criterion met
 Total energy in the final basis set =    -4921.7174018980

                    Orbital Energies (a.u.)
 --------------------------------------------------------------

 Alpha MOs
 -- Occupied --
*******-453.891 -58.091 -58.087 -52.149 -52.147 -52.145 -52.144
-52.143 -52.141 -10.239 -10.219 -10.194  -7.824  -7.821  -5.770
 -5.767  -5.766  -5.763  -5.756  -5.753  -2.104  -2.103  -2.101
 -2.100  -2.095  -2.092  -2.092  -2.090  -2.089  -2.087  -0.833
 -0.755  -0.695  -0.644  -0.580  -0.473  -0.451  -0.440  -0.412
 -0.389  -0.361  -0.356  -0.330  -0.306  -0.233  -0.219

 Beta MOs
 -- Occupied --
*******-453.891 -58.091 -58.087 -52.149 -52.147 -52.145 -52.144
-52.143 -52.141 -10.239 -10.219 -10.194  -7.824  -7.821  -5.770
 -5.767  -5.766  -5.763  -5.756  -5.753  -2.104  -2.103  -2.101
 -2.100  -2.095  -2.092  -2.092  -2.090  -2.089  -2.087  -0.833
 -0.755  -0.695  -0.644  -0.580  -0.473  -0.451  -0.440  -0.412
 -0.389  -0.361  -0.356  -0.330  -0.306  -0.233  -0.219

          Ground-State Mulliken Net Atomic Charges

     Atom                 Charge (a.u.)    Spin (a.u.)
  --------------------------------------------------------
      1 Se                   -0.060791       0.000000
      2 C                    -0.225637      -0.000000
      3 C                    -0.170433      -0.000000
      4 C                    -0.307961       0.000000
      5 Se                   -0.073198      -0.000000
      6 H                     0.052489       0.000000
      7 H                     0.037367       0.000000
      8 H                     0.129224       0.000000
      9 H                     0.125178       0.000000
     10 H                     0.142549      -0.000000
     11 H                     0.113024      -0.000000
     12 H                     0.131037       0.000000
     13 H                     0.107155       0.000000
  --------------------------------------------------------
  Sum of atomic charges =    -0.000000

                    Cartesian Multipole Moments
 -----------------------------------------------------------------
    Charge (ESU x 10^10)
                 0.0000
    Dipole Moment (Debye)
         X      -0.0578      Y      -2.7151      Z       0.7550
       Tot       2.8188
    Quadrupole Moments (Debye-Ang)
        XX     -58.0919     XY      -0.9588     YY     -55.8800
        XZ      -0.5899     YZ      -0.3203     ZZ     -56.4254

 Final energy is   -4921.71740189801
 **  OPTIMIZATION CONVERGED  **
 Total job time:  120.87s(wall), 1411.39s(cpu)
        *  Thank you very much for using Q-Chem.  Have a nice day.  *
