 Q-Chem 5.1, Q-Chem, Inc., Pleasanton, CA (2018)
 Q-Chem 5.1.1 for Intel X86 EM64T Linux

User input:
--------------------------------------------------------------

$comment
potential surface scanner
$end

$rem
JOBTYPE  PES_SCAN
UNRESTRICTED TRUE
SYM_IGNORE  TRUE
GEOM_OPT_MAX_CYCLES 400
SCF_MAX_CYCLES 400
METHOD   B3LYP
BASIS   6-31G**
PDB_PRINT 2
SCF_CONVERGENCE 6
THRESH 14
SCF_PRINT 1
$end
$molecule
0 3
Se 2.373772 0.900679 0.059725
C 0.504072 -1.936510 0.180489
C -0.726193 -1.462106 -0.400158
C -2.025282 -1.992511 0.193942
Se -0.750826 0.684355 -0.191279
H -0.893249 0.610443 1.273813
H 2.354353 0.122647 1.319829
H 1.430350 -1.916812 -0.376943
H 0.545547 -2.188405 1.236513
H -0.721749 -1.500288 -1.491642
H -2.055055 -1.845167 1.278205
H -2.900195 -1.506191 -0.243314
H -2.097544 -3.069534 0.002322
$end
$scan
stre 1 2 3.300000 3.301000 0.100000
$end
--------------------------------------------------------------

   11   -4921.6462683289      9.73e-07  Convergence criterion met
 Total energy in the final basis set =    -4921.6462683289
   11   -4921.6443725248      8.63e-07  Convergence criterion met
 Total energy in the final basis set =    -4921.6443725248
   12   -4921.6450584287      4.43e-07  Convergence criterion met
 Total energy in the final basis set =    -4921.6450584287
   12   -4921.6452372621      4.35e-07  Convergence criterion met
 Total energy in the final basis set =    -4921.6452372621
   12   -4921.6452604202      4.38e-07  Convergence criterion met
 Total energy in the final basis set =    -4921.6452604202
   12   -4921.6452733640      4.39e-07  Convergence criterion met
 Total energy in the final basis set =    -4921.6452733640
   12   -4921.6452905758      4.40e-07  Convergence criterion met
 Total energy in the final basis set =    -4921.6452905758
   12   -4921.6453035691      4.41e-07  Convergence criterion met
   12   -4921.6453408168      4.51e-07  Convergence criterion met
 Total energy in the final basis set =    -4921.6453408168
   12   -4921.6453433198      4.49e-07  Convergence criterion met
 Total energy in the final basis set =    -4921.6453433198
   12   -4921.6453450351      4.49e-07  Convergence criterion met
 Total energy in the final basis set =    -4921.6453450351
   12   -4921.6453467009      4.51e-07  Convergence criterion met
 Total energy in the final basis set =    -4921.6453467009
   12   -4921.6453482608      4.53e-07  Convergence criterion met
 Total energy in the final basis set =    -4921.6453482608
   12   -4921.6453494233      4.56e-07  Convergence criterion met
 Total energy in the final basis set =    -4921.6453494233

             Standard Nuclear Orientation (Angstroms)
    I     Atom           X                Y                Z
 ----------------------------------------------------------------
    1      Se      2.3399404584     0.8388486830     0.1370001489
    2      C       0.5231334096    -1.9160032869     0.1392541675
    3      C      -0.7227721463    -1.4584263935    -0.4181132855
    4      C      -2.0045963361    -1.9835469229     0.2170170418
    5      Se     -0.7659733174     0.6969064684    -0.2383444656
    6      H      -0.9348790086     0.6405552468     1.2246201112
    7      H       2.3017943550     0.0662426143     1.3996464432
    8      H       1.4290252140    -1.9432552417    -0.4491425760
    9      H       0.5955558373    -2.1374670261     1.2002741471
   10      H      -0.7461011284    -1.5132478488    -1.5084338401
   11      H      -2.0065575063    -1.8211079954     1.2994589299
   12      H      -2.8917844971    -1.5055253262    -0.2045358511
   13      H      -2.0787843342    -3.0633729710     0.0428010288
 ----------------------------------------------------------------

   12   -4921.6453502617      4.58e-07  Convergence criterion met
 Total energy in the final basis set =    -4921.6453502617

                    Orbital Energies (a.u.)
 --------------------------------------------------------------

 Alpha MOs
 -- Occupied --
*******-453.871 -58.115 -58.066 -52.172 -52.171 -52.170 -52.124
-52.123 -52.120 -10.249 -10.213 -10.205  -7.849  -7.799  -5.792
 -5.789  -5.784  -5.745  -5.742  -5.731  -2.125  -2.125  -2.120
 -2.118  -2.117  -2.079  -2.078  -2.069  -2.068  -2.066  -0.824
 -0.714  -0.706  -0.663  -0.590  -0.488  -0.447  -0.438  -0.403
 -0.392  -0.372  -0.357  -0.342  -0.295  -0.224  -0.207  -0.204

 Beta MOs
 -- Occupied --
*******-453.870 -58.114 -58.065 -52.171 -52.170 -52.168 -52.122
-52.121 -52.119 -10.251 -10.205 -10.201  -7.846  -7.797  -5.790
 -5.787  -5.780  -5.741  -5.737  -5.730  -2.123  -2.122  -2.117
 -2.115  -2.114  -2.075  -2.074  -2.067  -2.064  -2.063  -0.816
 -0.702  -0.684  -0.637  -0.581  -0.483  -0.443  -0.433  -0.397
 -0.388  -0.369  -0.347  -0.322  -0.259  -0.205

          Ground-State Mulliken Net Atomic Charges

     Atom                 Charge (a.u.)    Spin (a.u.)
  --------------------------------------------------------
      1 Se                   -0.243912       0.783416
      2 C                    -0.194725       0.870864
      3 C                    -0.152330      -0.116168
      4 C                    -0.317764       0.009682
      5 Se                    0.012854       0.560046
      6 H                     0.069952      -0.016527
      7 H                     0.042490      -0.021153
      8 H                     0.154590      -0.038580
      9 H                     0.112245      -0.039100
     10 H                     0.143230       0.007331
     11 H                     0.116309      -0.001446
     12 H                     0.130617       0.002634
     13 H                     0.126443      -0.000999
  --------------------------------------------------------
  Sum of atomic charges =    -0.000000

                    Cartesian Multipole Moments
 -----------------------------------------------------------------
    Charge (ESU x 10^10)
                 0.0000
    Dipole Moment (Debye)
         X      -2.9556      Y      -2.8575      Z       0.5889
       Tot       4.1530
    Quadrupole Moments (Debye-Ang)
        XX     -63.2620     XY      -1.5926     YY     -58.1900
        XZ       0.0550     YZ      -0.6499     ZZ     -54.1152

 Final energy is   -4921.64535026173
 **  OPTIMIZATION CONVERGED  **
 Total job time:  149.89s(wall), 1754.60s(cpu)
        *  Thank you very much for using Q-Chem.  Have a nice day.  *
