 Q-Chem 5.1, Q-Chem, Inc., Pleasanton, CA (2018)
 Q-Chem 5.1.1 for Intel X86 EM64T Linux

User input:
--------------------------------------------------------------

$comment
potential surface scanner
$end

$rem
JOBTYPE  PES_SCAN
UNRESTRICTED TRUE
SYM_IGNORE  TRUE
GEOM_OPT_MAX_CYCLES 400
SCF_MAX_CYCLES 400
METHOD   B3LYP
BASIS   6-31G**
PDB_PRINT 2
SCF_CONVERGENCE 6
THRESH 14
SCF_PRINT 1
$end
$molecule
0 3
Se 3.399463 1.248641 0.504987
C 0.412839 -1.977190 0.320328
C -0.786027 -1.515571 -0.354640
C -2.107897 -2.067676 0.167576
Se -0.813785 0.593493 -0.224850
H -0.954234 0.578291 1.243279
H 2.148714 0.450157 0.508576
H 1.378408 -1.938950 -0.170749
H 0.389170 -2.210387 1.380679
H -0.711222 -1.608007 -1.441246
H -2.214161 -1.887028 1.242063
H -2.961212 -1.613434 -0.340418
H -2.142056 -3.151743 0.005913
$end
$scan
stre 1 2 4.300000 4.301000 0.100000
$end
--------------------------------------------------------------

   17   -4921.6401389698      9.76e-07  Convergence criterion met
 Total energy in the final basis set =    -4921.6401389698
   16   -4921.6397657293      9.49e-07  Convergence criterion met
 Total energy in the final basis set =    -4921.6397657293
   16   -4921.6399806938      9.30e-07  Convergence criterion met
 Total energy in the final basis set =    -4921.6399806938
   16   -4921.6400464991      8.91e-07  Convergence criterion met
 Total energy in the final basis set =    -4921.6400464991
   16   -4921.6400512213      8.78e-07  Convergence criterion met
 Total energy in the final basis set =    -4921.6400512213
   16   -4921.6400576649      8.53e-07  Convergence criterion met
 Total energy in the final basis set =    -4921.6400576649
   15   -4921.6400590322      9.87e-07  Convergence criterion met
 Total energy in the final basis set =    -4921.6400590322
   15   -4921.6400614348      9.79e-07  Convergence criterion met
 Total energy in the final basis set =    -4921.6400614348

             Standard Nuclear Orientation (Angstroms)
    I     Atom           X                Y                Z
 ----------------------------------------------------------------
    1      Se      3.3626496695     1.1840328344     0.5788157133
    2      C       0.4297761747    -1.9466632373     0.2838612477
    3      C      -0.7892434143    -1.5085776137    -0.3713922016
    4      C      -2.0924566198    -2.0648887288     0.1917047548
    5      Se     -0.8362617183     0.6009009683    -0.2806352059
    6      H      -0.9772527811     0.6128721203     1.1876685730
    7      H       2.1206152733     0.3731463182     0.5826700548
    8      H       1.3820465997    -1.9186585785    -0.2329905089
    9      H       0.4326509735    -2.1632838912     1.3479564028
   10      H      -0.7387921938    -1.6212550844    -1.4574639074
   11      H      -2.1747711544    -1.8670296037     1.2652529329
   12      H      -2.9623365754    -1.6281427241    -0.3033156981
   13      H      -2.1186242336    -3.1518567795     0.0493658424
 ----------------------------------------------------------------

   15   -4921.6400622589      9.81e-07  Convergence criterion met
 Total energy in the final basis set =    -4921.6400622589

                    Orbital Energies (a.u.)
 --------------------------------------------------------------

 Alpha MOs
 -- Occupied --
*******-453.900 -58.102 -58.095 -52.162 -52.159 -52.156 -52.153
-52.152 -52.149 -10.243 -10.211 -10.197  -7.836  -7.828  -5.784
 -5.777  -5.773  -5.770  -5.766  -5.761  -2.117  -2.116  -2.107
 -2.107  -2.107  -2.102  -2.100  -2.099  -2.096  -2.095  -0.818
 -0.702  -0.696  -0.692  -0.585  -0.483  -0.439  -0.432  -0.391
 -0.384  -0.381  -0.362  -0.336  -0.286  -0.244  -0.243  -0.207

 Beta MOs
 -- Occupied --
*******-453.899 -58.101 -58.095 -52.158 -52.157 -52.155 -52.152
-52.151 -52.149 -10.244 -10.199 -10.197  -7.833  -7.827  -5.776
 -5.776  -5.772  -5.769  -5.765  -5.760  -2.111  -2.111  -2.106
 -2.105  -2.102  -2.101  -2.098  -2.098  -2.095  -2.094  -0.810
 -0.694  -0.674  -0.662  -0.577  -0.478  -0.437  -0.427  -0.388
 -0.380  -0.370  -0.359  -0.319  -0.235  -0.231

          Ground-State Mulliken Net Atomic Charges

     Atom                 Charge (a.u.)    Spin (a.u.)
  --------------------------------------------------------
      1 Se                   -0.112625       1.015188
      2 C                    -0.210565       0.928666
      3 C                    -0.150809      -0.110763
      4 C                    -0.310825       0.007824
      5 Se                   -0.095852       0.265501
      6 H                     0.058607      -0.006722
      7 H                     0.082400      -0.027058
      8 H                     0.124545      -0.041511
      9 H                     0.113435      -0.041547
     10 H                     0.138765       0.011281
     11 H                     0.113983      -0.000933
     12 H                     0.129804       0.001130
     13 H                     0.119137      -0.001055
  --------------------------------------------------------
  Sum of atomic charges =     0.000000

                    Cartesian Multipole Moments
 -----------------------------------------------------------------
    Charge (ESU x 10^10)
                 0.0000
    Dipole Moment (Debye)
         X      -1.5767      Y      -2.3559      Z       0.3849
       Tot       2.8609
    Quadrupole Moments (Debye-Ang)
        XX     -62.9577     XY      -0.4546     YY     -57.2261
        XZ      -0.7091     YZ      -0.5529     ZZ     -56.6823

 Final energy is   -4921.64006225885
 **  OPTIMIZATION CONVERGED  **
 Total job time:  74.51s(wall), 868.75s(cpu)
        *  Thank you very much for using Q-Chem.  Have a nice day.  *
