 Q-Chem 5.1, Q-Chem, Inc., Pleasanton, CA (2018)
 Q-Chem 5.1.1 for Intel X86 EM64T Linux

User input:
--------------------------------------------------------------

$comment
potential surface scanner
$end

$rem
JOBTYPE  PES_SCAN
UNRESTRICTED TRUE
SYM_IGNORE  TRUE
GEOM_OPT_MAX_CYCLES 400
SCF_MAX_CYCLES 400
METHOD   B3LYP
BASIS   6-31G**
PDB_PRINT 2
SCF_CONVERGENCE 6
THRESH 14
SCF_PRINT 1
$end
$molecule
0 3
Se 3.214972 0.997320 0.738897
C 0.478232 -1.870291 0.203115
C -0.784213 -1.485028 -0.404180
C -2.041440 -2.048532 0.249047
Se -0.882975 0.621720 -0.408115
H -1.019850 0.703448 1.058233
H 1.989309 0.164275 0.738127
H 1.397876 -1.865655 -0.369721
H 0.538398 -2.065566 1.269690
H -0.786979 -1.646315 -1.485248
H -2.069459 -1.814973 1.318097
H -2.947068 -1.649574 -0.212449
H -2.048802 -3.140233 0.146005
$end
$scan
stre 1 2 3.900000 3.901000 0.100000
$end
--------------------------------------------------------------

   12   -4921.6397046978      9.27e-07  Convergence criterion met
 Total energy in the final basis set =    -4921.6397046978
   12   -4921.6384327094      8.09e-07  Convergence criterion met
 Total energy in the final basis set =    -4921.6384327094
   12   -4921.6391846284      8.26e-07  Convergence criterion met
 Total energy in the final basis set =    -4921.6391846284
   12   -4921.6394166571      8.44e-07  Convergence criterion met
 Total energy in the final basis set =    -4921.6394166571
   12   -4921.6394264777      8.53e-07  Convergence criterion met
 Total energy in the final basis set =    -4921.6394264777
   12   -4921.6394313432      8.64e-07  Convergence criterion met
 Total energy in the final basis set =    -4921.6394313432
   12   -4921.6394394647      8.84e-07  Convergence criterion met
 Total energy in the final basis set =    -4921.6394394647
   12   -4921.6394447470      8.95e-07  Convergence criterion met
   11   -4921.6479917722      7.50e-07  Convergence criterion met
 Total energy in the final basis set =    -4921.6479917722
   11   -4921.6479948597      7.48e-07  Convergence criterion met
 Total energy in the final basis set =    -4921.6479948597
   11   -4921.6479976256      7.48e-07  Convergence criterion met
 Total energy in the final basis set =    -4921.6479976256
   11   -4921.6480008656      7.49e-07  Convergence criterion met
 Total energy in the final basis set =    -4921.6480008656
   11   -4921.6480038306      7.51e-07  Convergence criterion met
 Total energy in the final basis set =    -4921.6480038306
   11   -4921.6480056978      7.53e-07  Convergence criterion met
 Total energy in the final basis set =    -4921.6480056978

             Standard Nuclear Orientation (Angstroms)
    I     Atom           X                Y                Z
 ----------------------------------------------------------------
    1      Se      2.4407400267     1.2447878734    -0.1251549649
    2      C       0.4346155723    -2.0748822170     0.2813609662
    3      C      -0.7296393433    -1.5078366336    -0.3515077063
    4      C      -2.0872273726    -2.0023216906     0.1320513761
    5      Se     -0.6569948043     0.6261476308    -0.0666294510
    6      H      -0.6932237267     0.5170207943     1.4040652355
    7      H       2.4744277139     0.4428428204     1.1187696292
    8      H       1.4093894563    -2.0025531697    -0.1858335213
    9      H       0.3844292954    -2.4213235714     1.3096877795
   10      H      -0.6538975337    -1.4961859437    -1.4412512539
   11      H      -2.1756127154    -1.9174091431     1.2197157369
   12      H      -2.9092716703    -1.4465878918    -0.3239003477
   13      H      -2.1997338983    -3.0611028579    -0.1298754783
 ----------------------------------------------------------------

   11   -4921.6480065865      7.54e-07  Convergence criterion met
 Total energy in the final basis set =    -4921.6480065865

                    Orbital Energies (a.u.)
 --------------------------------------------------------------

 Alpha MOs
 -- Occupied --
*******-453.873 -58.115 -58.068 -52.173 -52.172 -52.170 -52.126
-52.125 -52.121 -10.251 -10.217 -10.205  -7.849  -7.801  -5.793
 -5.790  -5.784  -5.746  -5.744  -5.732  -2.126  -2.125  -2.120
 -2.118  -2.117  -2.080  -2.080  -2.070  -2.069  -2.067  -0.826
 -0.715  -0.707  -0.663  -0.593  -0.489  -0.448  -0.441  -0.402
 -0.391  -0.373  -0.358  -0.344  -0.295  -0.220  -0.216  -0.206

 Beta MOs
 -- Occupied --
*******-453.871 -58.115 -58.067 -52.172 -52.171 -52.169 -52.124
-52.122 -52.121 -10.253 -10.205 -10.205  -7.847  -7.798  -5.791
 -5.787  -5.781  -5.743  -5.739  -5.731  -2.124  -2.123  -2.118
 -2.115  -2.114  -2.076  -2.076  -2.069  -2.066  -2.065  -0.818
 -0.703  -0.685  -0.637  -0.584  -0.484  -0.445  -0.436  -0.397
 -0.387  -0.370  -0.347  -0.325  -0.260  -0.206

          Ground-State Mulliken Net Atomic Charges

     Atom                 Charge (a.u.)    Spin (a.u.)
  --------------------------------------------------------
      1 Se                   -0.234328       0.801000
      2 C                    -0.198056       0.904305
      3 C                    -0.155659      -0.125836
      4 C                    -0.316396       0.009512
      5 Se                    0.008997       0.514267
      6 H                     0.068429      -0.015228
      7 H                     0.044184      -0.021762
      8 H                     0.146131      -0.039610
      9 H                     0.114282      -0.040065
     10 H                     0.147389       0.012496
     11 H                     0.117587      -0.001322
     12 H                     0.131508       0.000789
     13 H                     0.125932       0.001454
  --------------------------------------------------------
  Sum of atomic charges =    -0.000000

                    Cartesian Multipole Moments
 -----------------------------------------------------------------
    Charge (ESU x 10^10)
                 0.0000
    Dipole Moment (Debye)
         X      -2.9387      Y      -3.1998      Z       0.9214
       Tot       4.4411
    Quadrupole Moments (Debye-Ang)
        XX     -63.2416     XY      -2.0512     YY     -58.9895
        XZ       1.4107     YZ      -0.6182     ZZ     -54.2717

 Final energy is   -4921.64800658655
 **  OPTIMIZATION CONVERGED  **
 Total job time:  380.16s(wall), 4439.72s(cpu)
        *  Thank you very much for using Q-Chem.  Have a nice day.  *
