 Q-Chem 5.1, Q-Chem, Inc., Pleasanton, CA (2018)
 Q-Chem 5.1.1 for Intel X86 EM64T Linux

User input:
--------------------------------------------------------------

$comment
potential surface scanner
$end

$rem
JOBTYPE  PES_SCAN
UNRESTRICTED TRUE
SYM_IGNORE  TRUE
GEOM_OPT_MAX_CYCLES 400
SCF_MAX_CYCLES 400
METHOD   B3LYP
BASIS   6-31G**
PDB_PRINT 2
SCF_CONVERGENCE 6
THRESH 14
SCF_PRINT 1
$end
$molecule
0 3
Se 3.269070 1.056246 0.709668
C 0.462551 -1.891744 0.216912
C -0.790885 -1.495195 -0.400169
C -2.058138 -2.055094 0.236506
Se -0.873610 0.613462 -0.383750
H -1.008815 0.679745 1.083670
H 2.043258 0.222319 0.718269
H 1.389689 -1.879360 -0.343849
H 0.512263 -2.082003 1.284973
H -0.784023 -1.646133 -1.482683
H -2.095371 -1.828272 1.306754
H -2.956705 -1.647338 -0.231080
H -2.071284 -3.146037 0.126277
$end
$scan
stre 1 2 4.000000 4.001000 0.100000
$end
--------------------------------------------------------------

   12   -4921.6398740027      9.43e-07  Convergence criterion met
 Total energy in the final basis set =    -4921.6398740027
   12   -4921.6386888409      8.75e-07  Convergence criterion met
 Total energy in the final basis set =    -4921.6386888409
   12   -4921.6394489951      8.81e-07  Convergence criterion met
 Total energy in the final basis set =    -4921.6394489951
   12   -4921.6396813638      8.90e-07  Convergence criterion met
 Total energy in the final basis set =    -4921.6396813638
   12   -4921.6396905035      8.98e-07  Convergence criterion met
 Total energy in the final basis set =    -4921.6396905035
   12   -4921.6396943200      9.08e-07  Convergence criterion met
 Total energy in the final basis set =    -4921.6396943200
   12   -4921.6396997230      9.28e-07  Convergence criterion met
 Total energy in the final basis set =    -4921.6396997230
   12   -4921.6397023176      9.36e-07  Convergence criterion met
 Total energy in the final basis set =    -4921.6397023176
   12   -4921.6397037299      9.34e-07  Convergence criterion met
 Total energy in the final basis set =    -4921.6397037299

             Standard Nuclear Orientation (Angstroms)
    I     Atom           X                Y                Z
 ----------------------------------------------------------------
    1      Se      3.2149715752     0.9973200645     0.7388971743
    2      C       0.4782318494    -1.8702909246     0.2031146501
    3      C      -0.7842134476    -1.4850281966    -0.4041798311
    4      C      -2.0414400986    -2.0485315111     0.2490471772
    5      Se     -0.8829749356     0.6217202267    -0.4081153423
    6      H      -1.0198498582     0.7034480126     1.0582331761
    7      H       1.9893092910     0.1642747859     0.7381270505
    8      H       1.3978755561    -1.8656549343    -0.3697209828
    9      H       0.5383975147    -2.0655659544     1.2696898495
   10      H      -0.7869785593    -1.6463154174    -1.4852477529
   11      H      -2.0694585856    -1.8149729752     1.3180969404
   12      H      -2.9470682567    -1.6495743724    -0.2124490349
   13      H      -2.0488020445    -3.1402328037     0.1460049259
 ----------------------------------------------------------------

   12   -4921.6397046974      9.27e-07  Convergence criterion met
 Total energy in the final basis set =    -4921.6397046974

                    Orbital Energies (a.u.)
 --------------------------------------------------------------

 Alpha MOs
 -- Occupied --
*******-453.901 -58.101 -58.096 -52.160 -52.157 -52.154 -52.154
-52.153 -52.150 -10.244 -10.212 -10.198  -7.835  -7.829  -5.783
 -5.776  -5.774  -5.771  -5.765  -5.762  -2.115  -2.115  -2.108
 -2.107  -2.105  -2.101  -2.100  -2.099  -2.097  -2.096  -0.819
 -0.703  -0.694  -0.693  -0.587  -0.484  -0.440  -0.433  -0.393
 -0.385  -0.381  -0.362  -0.335  -0.285  -0.244  -0.242  -0.208

 Beta MOs
 -- Occupied --
*******-453.900 -58.100 -58.095 -52.157 -52.156 -52.154 -52.153
-52.152 -52.149 -10.245 -10.200 -10.198  -7.831  -7.828  -5.775
 -5.774  -5.773  -5.769  -5.763  -5.761  -2.110  -2.109  -2.107
 -2.106  -2.100  -2.100  -2.099  -2.097  -2.096  -2.095  -0.811
 -0.694  -0.676  -0.661  -0.578  -0.479  -0.437  -0.428  -0.389
 -0.381  -0.369  -0.360  -0.319  -0.235  -0.230

          Ground-State Mulliken Net Atomic Charges

     Atom                 Charge (a.u.)    Spin (a.u.)
  --------------------------------------------------------
      1 Se                   -0.115008       1.015256
      2 C                    -0.216854       0.925466
      3 C                    -0.150462      -0.110097
      4 C                    -0.312468       0.008005
      5 Se                   -0.089791       0.268099
      6 H                     0.059035      -0.006966
      7 H                     0.075874      -0.027371
      8 H                     0.130803      -0.041513
      9 H                     0.115305      -0.041715
     10 H                     0.139296       0.011493
     11 H                     0.114173      -0.000910
     12 H                     0.130459       0.001247
     13 H                     0.119638      -0.000993
  --------------------------------------------------------
  Sum of atomic charges =    -0.000000

                    Cartesian Multipole Moments
 -----------------------------------------------------------------
    Charge (ESU x 10^10)
                -0.0000
    Dipole Moment (Debye)
         X      -1.6233      Y      -2.3844      Z       0.3688
       Tot       2.9080
    Quadrupole Moments (Debye-Ang)
        XX     -62.9873     XY      -0.2643     YY     -56.9371
        XZ      -0.9984     YZ      -0.4428     ZZ     -56.7645

 Final energy is   -4921.63970469744
 **  OPTIMIZATION CONVERGED  **
 Total job time:  68.67s(wall), 799.10s(cpu)
        *  Thank you very much for using Q-Chem.  Have a nice day.  *
