 Q-Chem 5.1, Q-Chem, Inc., Pleasanton, CA (2018)
 Q-Chem 5.1.1 for Intel X86 EM64T Linux

User input:
--------------------------------------------------------------

$comment
potential surface scanner
$end

$rem
JOBTYPE  PES_SCAN
UNRESTRICTED TRUE
SYM_IGNORE  TRUE
GEOM_OPT_MAX_CYCLES 400
SCF_MAX_CYCLES 400
METHOD   B3LYP
BASIS   6-31G**
PDB_PRINT 2
SCF_CONVERGENCE 6
THRESH 14
SCF_PRINT 1
$end
$molecule
0 3
Se 0.697288 0.089827 1.450101
C 0.547685 -1.677372 0.148323
C -0.804153 -1.861175 -0.279261
C -1.817629 -2.621546 0.505925
Se 0.432299 1.997958 -0.991535
H -0.908141 2.293924 -0.444634
H 2.153284 0.225460 1.267173
H 1.240895 -1.370705 -0.631638
H 0.946442 -2.450983 0.803003
H -1.144913 -1.275044 -1.129410
H -1.353114 -3.285365 1.241438
H -2.492155 -1.941954 1.051237
H -2.459789 -3.222425 -0.149220
$end
$scan
stre 1 2 2.100000 2.101000 0.100000
$end
--------------------------------------------------------------

   12   -4921.6539031427      4.69e-07  Convergence criterion met
 Total energy in the final basis set =    -4921.6539031427
   11   -4921.6532591256      6.85e-07  Convergence criterion met
 Total energy in the final basis set =    -4921.6532591256
   11   -4921.6534903809      6.77e-07  Convergence criterion met
 Total energy in the final basis set =    -4921.6534903809
   11   -4921.6538670147      6.66e-07  Convergence criterion met
 Total energy in the final basis set =    -4921.6538670147
   11   -4921.6538701662      6.66e-07  Convergence criterion met
 Total energy in the final basis set =    -4921.6538701662
   11   -4921.6538752540      6.66e-07  Convergence criterion met
 Total energy in the final basis set =    -4921.6538752540
   11   -4921.6538766330      6.66e-07  Convergence criterion met
 Total energy in the final basis set =    -4921.6538766330
   11   -4921.6538800315      6.67e-07  Convergence criterion met
   11   -4921.6538836271      6.69e-07  Convergence criterion met
 Total energy in the final basis set =    -4921.6538836271
   11   -4921.6538852558      6.69e-07  Convergence criterion met
 Total energy in the final basis set =    -4921.6538852558
   11   -4921.6538869578      6.68e-07  Convergence criterion met
 Total energy in the final basis set =    -4921.6538869578
   11   -4921.6538883490      6.66e-07  Convergence criterion met
 Total energy in the final basis set =    -4921.6538883490
   11   -4921.6538895771      6.64e-07  Convergence criterion met
 Total energy in the final basis set =    -4921.6538895771
   11   -4921.6538907023      6.61e-07  Convergence criterion met
 Total energy in the final basis set =    -4921.6538907023

             Standard Nuclear Orientation (Angstroms)
    I     Atom           X                Y                Z
 ----------------------------------------------------------------
    1      Se      0.6633162217     0.0587030623     1.4113093111
    2      C       0.5492166890    -1.6322924941     0.1713434548
    3      C      -0.8123676607    -1.8521252340    -0.2755771706
    4      C      -1.8120410102    -2.6294539177     0.5111048416
    5      Se      0.4631349035     2.0130872331    -1.0049869431
    6      H      -0.8852619000     2.2992909786    -0.4724382714
    7      H       2.1258611733     0.2017854457     1.2925643680
    8      H       1.2339711224    -1.3640308190    -0.6321391522
    9      H       0.9475345049    -2.4316611621     0.7975255979
   10      H      -1.1593473265    -1.2680006775    -1.1242180505
   11      H      -1.3328466999    -3.3159450321     1.2165564134
   12      H      -2.4726053501    -1.9678474196     1.0955047227
   13      H      -2.4705656675    -3.2109099636    -0.1450471218
 ----------------------------------------------------------------

   11   -4921.6538916820      6.58e-07  Convergence criterion met
 Total energy in the final basis set =    -4921.6538916820

                    Orbital Energies (a.u.)
 --------------------------------------------------------------

 Alpha MOs
 -- Occupied --
*******-453.870 -58.117 -58.065 -52.175 -52.173 -52.172 -52.124
-52.122 -52.119 -10.238 -10.221 -10.201  -7.851  -7.799  -5.795
 -5.791  -5.786  -5.744  -5.741  -5.730  -2.128  -2.127  -2.122
 -2.120  -2.119  -2.078  -2.077  -2.068  -2.067  -2.065  -0.820
 -0.744  -0.686  -0.660  -0.586  -0.489  -0.450  -0.437  -0.411
 -0.386  -0.377  -0.355  -0.346  -0.294  -0.216  -0.209  -0.202

 Beta MOs
 -- Occupied --
*******-453.869 -58.116 -58.064 -52.174 -52.173 -52.170 -52.121
-52.120 -52.118 -10.240 -10.209 -10.202  -7.849  -7.796  -5.793
 -5.789  -5.782  -5.740  -5.737  -5.729  -2.126  -2.126  -2.120
 -2.117  -2.116  -2.074  -2.073  -2.066  -2.064  -2.062  -0.804
 -0.734  -0.674  -0.635  -0.571  -0.484  -0.441  -0.426  -0.405
 -0.379  -0.372  -0.346  -0.335  -0.259  -0.205

          Ground-State Mulliken Net Atomic Charges

     Atom                 Charge (a.u.)    Spin (a.u.)
  --------------------------------------------------------
      1 Se                    0.014156       0.470367
      2 C                    -0.291420      -0.114995
      3 C                    -0.055930       0.893010
      4 C                    -0.348930      -0.068175
      5 Se                   -0.267244       0.777708
      6 H                     0.056244      -0.020654
      7 H                     0.074012      -0.003372
      8 H                     0.163379       0.015402
      9 H                     0.143403       0.009504
     10 H                     0.132494      -0.039434
     11 H                     0.117258       0.005439
     12 H                     0.133305       0.053365
     13 H                     0.129273       0.021834
  --------------------------------------------------------
  Sum of atomic charges =     0.000000

                    Cartesian Multipole Moments
 -----------------------------------------------------------------
    Charge (ESU x 10^10)
                -0.0000
    Dipole Moment (Debye)
         X      -0.4927      Y      -3.7130      Z       1.2093
       Tot       3.9359
    Quadrupole Moments (Debye-Ang)
        XX     -52.1027     XY      -1.7781     YY     -59.8139
        XZ       0.9416     YZ       1.6575     ZZ     -61.2014

 Final energy is   -4921.65389168204
 **  OPTIMIZATION CONVERGED  **
 Total job time:  102.10s(wall), 1194.63s(cpu)
        *  Thank you very much for using Q-Chem.  Have a nice day.  *
