 Q-Chem 5.1, Q-Chem, Inc., Pleasanton, CA (2018)
 Q-Chem 5.1.1 for Intel X86 EM64T Linux

User input:
--------------------------------------------------------------

$comment
potential surface scanner
$end

$rem
JOBTYPE  PES_SCAN
UNRESTRICTED TRUE
SYM_IGNORE  TRUE
GEOM_OPT_MAX_CYCLES 400
SCF_MAX_CYCLES 400
METHOD   B3LYP
BASIS   6-31G**
PDB_PRINT 2
SCF_CONVERGENCE 6
THRESH 14
SCF_PRINT 1
$end
$molecule
0 3
Se 2.421225 1.102041 -0.094283
C 0.458662 -2.014216 0.262495
C -0.728311 -1.482507 -0.360084
C -2.067600 -2.004645 0.145220
Se -0.703455 0.651380 -0.091098
H -0.752982 0.551074 1.379539
H 2.434625 0.307208 1.154824
H 1.422181 -1.934646 -0.224594
H 0.431708 -2.342586 1.297767
H -0.666498 -1.480768 -1.450817
H -2.151060 -1.897554 1.231334
H -2.908214 -1.482447 -0.316787
H -2.152281 -3.071737 -0.092015
$end
$scan
stre 1 2 3.600000 3.601000 0.100000
$end
--------------------------------------------------------------

   11   -4921.6477778587      7.81e-07  Convergence criterion met
 Total energy in the final basis set =    -4921.6477778587
   11   -4921.6469771163      6.50e-07  Convergence criterion met
 Total energy in the final basis set =    -4921.6469771163
   11   -4921.6474004976      8.31e-07  Convergence criterion met
 Total energy in the final basis set =    -4921.6474004976
   11   -4921.6474431508      8.20e-07  Convergence criterion met
 Total energy in the final basis set =    -4921.6474431508
   11   -4921.6474534035      8.15e-07  Convergence criterion met
 Total energy in the final basis set =    -4921.6474534035
   11   -4921.6474582628      8.14e-07  Convergence criterion met
 Total energy in the final basis set =    -4921.6474582628
   11   -4921.6474597768      8.15e-07  Convergence criterion met
 Total energy in the final basis set =    -4921.6474597768
   11   -4921.6474614218      8.19e-07  Convergence criterion met
 Total energy in the final basis set =    -4921.6474614218

             Standard Nuclear Orientation (Angstroms)
    I     Atom           X                Y                Z
 ----------------------------------------------------------------
    1      Se      2.4104292122     1.0307998317    -0.0696525406
    2      C       0.4713398670    -1.9856274515     0.2483080344
    3      C      -0.7270770640    -1.4720008319    -0.3671346053
    4      C      -2.0561037943    -2.0037619460     0.1548319274
    5      Se     -0.7223281712     0.6641387637    -0.1099130732
    6      H      -0.7952685018     0.5681280672     1.3598076254
    7      H       2.4153536960     0.2402172657     1.1821813692
    8      H       1.4280800222    -1.9082952763    -0.2513681060
    9      H       0.4584655509    -2.2990642686     1.2885469869
   10      H      -0.6758641046    -1.4776387469    -1.4583621721
   11      H      -2.1315951982    -1.8870523697     1.2405669648
   12      H      -2.9063070315    -1.4952815096    -0.3050380639
   13      H      -2.1311244825    -3.0739645277    -0.0712733470
 ----------------------------------------------------------------

   11   -4921.6474620413      8.22e-07  Convergence criterion met
 Total energy in the final basis set =    -4921.6474620413

                    Orbital Energies (a.u.)
 --------------------------------------------------------------

 Alpha MOs
 -- Occupied --
*******-453.872 -58.116 -58.067 -52.173 -52.172 -52.171 -52.126
-52.124 -52.121 -10.251 -10.215 -10.205  -7.849  -7.801  -5.793
 -5.790  -5.784  -5.746  -5.744  -5.732  -2.126  -2.126  -2.121
 -2.118  -2.117  -2.080  -2.079  -2.070  -2.069  -2.067  -0.826
 -0.715  -0.706  -0.663  -0.592  -0.488  -0.448  -0.440  -0.402
 -0.391  -0.372  -0.359  -0.343  -0.296  -0.220  -0.215  -0.206

 Beta MOs
 -- Occupied --
*******-453.871 -58.115 -58.066 -52.172 -52.171 -52.169 -52.123
-52.122 -52.120 -10.252 -10.205 -10.203  -7.847  -7.798  -5.791
 -5.787  -5.781  -5.742  -5.739  -5.731  -2.124  -2.123  -2.118
 -2.115  -2.115  -2.076  -2.075  -2.068  -2.066  -2.064  -0.817
 -0.703  -0.684  -0.637  -0.583  -0.483  -0.444  -0.435  -0.397
 -0.387  -0.369  -0.347  -0.325  -0.260  -0.206

          Ground-State Mulliken Net Atomic Charges

     Atom                 Charge (a.u.)    Spin (a.u.)
  --------------------------------------------------------
      1 Se                   -0.239435       0.793847
      2 C                    -0.198608       0.900463
      3 C                    -0.154870      -0.124275
      4 C                    -0.316414       0.009339
      5 Se                    0.012374       0.526583
      6 H                     0.068851      -0.015480
      7 H                     0.043413      -0.022025
      8 H                     0.151355      -0.039721
      9 H                     0.112819      -0.040043
     10 H                     0.146435       0.011137
     11 H                     0.117071      -0.001386
     12 H                     0.130874       0.001205
     13 H                     0.126134       0.000355
  --------------------------------------------------------
  Sum of atomic charges =    -0.000000

                    Cartesian Multipole Moments
 -----------------------------------------------------------------
    Charge (ESU x 10^10)
                -0.0000
    Dipole Moment (Debye)
         X      -2.9631      Y      -2.9809      Z       0.8506
       Tot       4.2883
    Quadrupole Moments (Debye-Ang)
        XX     -63.3297     XY      -1.7522     YY     -58.5957
        XZ       1.0052     YZ      -0.6730     ZZ     -54.2237

 Final energy is   -4921.64746204126
 **  OPTIMIZATION CONVERGED  **
 Total job time:  66.39s(wall), 711.72s(cpu)
        *  Thank you very much for using Q-Chem.  Have a nice day.  *
