 Q-Chem 5.1, Q-Chem, Inc., Pleasanton, CA (2018)
 Q-Chem 5.1.1 for Intel X86 EM64T Linux

User input:
--------------------------------------------------------------

$comment
potential surface scanner
$end

$rem
JOBTYPE  PES_SCAN
UNRESTRICTED TRUE
SYM_IGNORE  TRUE
GEOM_OPT_MAX_CYCLES 400
SCF_MAX_CYCLES 400
METHOD   B3LYP
BASIS   6-31G**
PDB_PRINT 2
SCF_CONVERGENCE 6
THRESH 14
SCF_PRINT 1
$end
$molecule
0 3
Se 3.317876 1.119975 0.648757
C 0.446308 -1.918782 0.248694
C -0.790947 -1.502412 -0.386865
C -2.075870 -2.060595 0.215023
Se -0.856035 0.607174 -0.334965
H -0.992351 0.647133 1.133389
H 2.083849 0.297650 0.654017
H 1.385654 -1.898250 -0.291440
H 0.474044 -2.120160 1.315469
H -0.763537 -1.634970 -1.471486
H -2.134448 -1.847519 1.287185
H -2.960863 -1.638856 -0.265930
H -2.095681 -3.149794 0.089651
$end
$scan
stre 1 2 4.100000 4.101000 0.100000
$end
--------------------------------------------------------------

   13   -4921.6399802779      9.82e-07  Convergence criterion met
 Total energy in the final basis set =    -4921.6399802779
   14   -4921.6396277872      9.93e-07  Convergence criterion met
 Total energy in the final basis set =    -4921.6396277872
   13   -4921.6397999167      9.86e-07  Convergence criterion met
 Total energy in the final basis set =    -4921.6397999167
   13   -4921.6398595872      8.98e-07  Convergence criterion met
 Total energy in the final basis set =    -4921.6398595872
   12   -4921.6398631130      9.97e-07  Convergence criterion met
 Total energy in the final basis set =    -4921.6398631130
   12   -4921.6398693392      9.57e-07  Convergence criterion met
 Total energy in the final basis set =    -4921.6398693392
   12   -4921.6398722548      9.42e-07  Convergence criterion met
 Total energy in the final basis set =    -4921.6398722548
   12   -4921.6398735321      9.41e-07  Convergence criterion met
 Total energy in the final basis set =    -4921.6398735321

             Standard Nuclear Orientation (Angstroms)
    I     Atom           X                Y                Z
 ----------------------------------------------------------------
    1      Se      3.2690700578     1.0562455537     0.7096684372
    2      C       0.4625505024    -1.8917437720     0.2169117337
    3      C      -0.7908853637    -1.4951947812    -0.4001694964
    4      C      -2.0581376542    -2.0550940691     0.2365058040
    5      Se     -0.8736103518     0.6134616144    -0.3837496050
    6      H      -1.0088153624     0.6797445976     1.0836701411
    7      H       2.0432577274     0.2223187763     0.7182693571
    8      H       1.3896888593    -1.8793600072    -0.3438485140
    9      H       0.5122627081    -2.0820028669     1.2849727463
   10      H      -0.7840229683    -1.6461331834    -1.4826827721
   11      H      -2.0953707648    -1.8282724808     1.3067543931
   12      H      -2.9567047511    -1.6473380553    -0.2310799163
   13      H      -2.0712836389    -3.1460373260     0.1262766913
 ----------------------------------------------------------------

   12   -4921.6398740026      9.43e-07  Convergence criterion met
 Total energy in the final basis set =    -4921.6398740026

                    Orbital Energies (a.u.)
 --------------------------------------------------------------

 Alpha MOs
 -- Occupied --
*******-453.900 -58.102 -58.095 -52.161 -52.158 -52.155 -52.153
-52.152 -52.150 -10.243 -10.211 -10.197  -7.836  -7.829  -5.784
 -5.777  -5.774  -5.771  -5.766  -5.761  -2.116  -2.115  -2.108
 -2.107  -2.106  -2.102  -2.100  -2.099  -2.097  -2.095  -0.818
 -0.703  -0.695  -0.693  -0.586  -0.483  -0.440  -0.433  -0.392
 -0.385  -0.381  -0.362  -0.336  -0.285  -0.244  -0.243  -0.207

 Beta MOs
 -- Occupied --
*******-453.900 -58.101 -58.095 -52.158 -52.157 -52.154 -52.152
-52.151 -52.149 -10.245 -10.199 -10.197  -7.832  -7.828  -5.776
 -5.775  -5.772  -5.769  -5.764  -5.760  -2.111  -2.110  -2.106
 -2.106  -2.101  -2.101  -2.098  -2.098  -2.096  -2.094  -0.811
 -0.694  -0.675  -0.662  -0.578  -0.479  -0.437  -0.428  -0.389
 -0.381  -0.370  -0.360  -0.319  -0.235  -0.230

          Ground-State Mulliken Net Atomic Charges

     Atom                 Charge (a.u.)    Spin (a.u.)
  --------------------------------------------------------
      1 Se                   -0.113041       1.014621
      2 C                    -0.214363       0.926013
      3 C                    -0.150522      -0.110360
      4 C                    -0.311879       0.007945
      5 Se                   -0.091851       0.268279
      6 H                     0.058596      -0.006955
      7 H                     0.077448      -0.027021
      8 H                     0.128614      -0.041464
      9 H                     0.114222      -0.041606
     10 H                     0.139045       0.011274
     11 H                     0.113999      -0.000916
     12 H                     0.130220       0.001205
     13 H                     0.119514      -0.001015
  --------------------------------------------------------
  Sum of atomic charges =     0.000000

                    Cartesian Multipole Moments
 -----------------------------------------------------------------
    Charge (ESU x 10^10)
                -0.0000
    Dipole Moment (Debye)
         X      -1.5878      Y      -2.3653      Z       0.3831
       Tot       2.8744
    Quadrupole Moments (Debye-Ang)
        XX     -62.9243     XY      -0.2864     YY     -57.0585
        XZ      -0.9049     YZ      -0.4630     ZZ     -56.7316

 Final energy is   -4921.63987400264
 **  OPTIMIZATION CONVERGED  **
 Total job time:  68.41s(wall), 740.37s(cpu)
        *  Thank you very much for using Q-Chem.  Have a nice day.  *
