 Q-Chem 5.1, Q-Chem, Inc., Pleasanton, CA (2018)
 Q-Chem 5.1.1 for Intel X86 EM64T Linux

User input:
--------------------------------------------------------------

$comment
potential surface scanner
$end

$rem
JOBTYPE  PES_SCAN
UNRESTRICTED TRUE
SYM_IGNORE  TRUE
GEOM_OPT_MAX_CYCLES 400
SCF_MAX_CYCLES 400
METHOD   B3LYP
BASIS   6-31G**
PDB_PRINT 2
SCF_CONVERGENCE 6
THRESH 14
SCF_PRINT 1
$end
$molecule
0 3
Se 0.790631 0.159228 1.474056
C 0.549936 -1.807545 0.119852
C -0.779370 -1.894213 -0.274860
C -1.839179 -2.607917 0.493161
Se 0.377466 2.077070 -0.892816
H -0.969791 2.331797 -0.339867
H 2.206680 0.290482 1.081256
H 1.275489 -1.455878 -0.606254
H 0.923371 -2.506882 0.862522
H -1.091022 -1.312368 -1.139844
H -1.430491 -3.170020 1.337481
H -2.586103 -1.899937 0.880506
H -2.389618 -3.303218 -0.153691
$end
$scan
stre 1 2 2.300000 2.301000 0.100000
$end
--------------------------------------------------------------

   14   -4921.6537582778      3.46e-07  Convergence criterion met
 Total energy in the final basis set =    -4921.6537582778
   13   -4921.6528766139      5.32e-07  Convergence criterion met
 Total energy in the final basis set =    -4921.6528766139
   13   -4921.6530612531      5.26e-07  Convergence criterion met
 Total energy in the final basis set =    -4921.6530612531
   13   -4921.6535147671      5.79e-07  Convergence criterion met
 Total energy in the final basis set =    -4921.6535147671
   13   -4921.6535206528      5.80e-07  Convergence criterion met
 Total energy in the final basis set =    -4921.6535206528
   13   -4921.6535269033      5.78e-07  Convergence criterion met
 Total energy in the final basis set =    -4921.6535269033
   13   -4921.6535292452      5.78e-07  Convergence criterion met
 Total energy in the final basis set =    -4921.6535292452
   13   -4921.6535329999      5.80e-07  Convergence criterion met
   13   -4921.6535757796      5.27e-07  Convergence criterion met
 Total energy in the final basis set =    -4921.6535757796
   13   -4921.6535800173      5.42e-07  Convergence criterion met
 Total energy in the final basis set =    -4921.6535800173
   13   -4921.6535840486      5.62e-07  Convergence criterion met
 Total energy in the final basis set =    -4921.6535840486
   13   -4921.6535878080      5.82e-07  Convergence criterion met
 Total energy in the final basis set =    -4921.6535878080
   13   -4921.6535908635      5.97e-07  Convergence criterion met
 Total energy in the final basis set =    -4921.6535908635
   13   -4921.6535927211      6.03e-07  Convergence criterion met
 Total energy in the final basis set =    -4921.6535927211

             Standard Nuclear Orientation (Angstroms)
    I     Atom           X                Y                Z
 ----------------------------------------------------------------
    1      Se      0.7325463204     0.1287659391     1.4664766587
    2      C       0.5450634598    -1.7327839828     0.1287614178
    3      C      -0.7963724607    -1.8753383483    -0.2787435657
    4      C      -1.8252288738    -2.6200398243     0.5013712513
    5      Se      0.4077209885     2.0174063980    -0.9691752636
    6      H      -0.9248543817     2.3165022589    -0.4045733904
    7      H       2.1809243321     0.2523749068     1.2178571875
    8      H       1.2498163510    -1.3962123799    -0.6260655630
    9      H       0.9368297035    -2.4709664282     0.8245056679
   10      H      -1.1283100067    -1.2913323072    -1.1341125906
   11      H      -1.3782209105    -3.2532319196     1.2730992548
   12      H      -2.5218408026    -1.9258704267     0.9964046195
   13      H      -2.4400747195    -3.2486748858    -0.1543036842
 ----------------------------------------------------------------

   13   -4921.6535936280      6.04e-07  Convergence criterion met
 Total energy in the final basis set =    -4921.6535936280

                    Orbital Energies (a.u.)
 --------------------------------------------------------------

 Alpha MOs
 -- Occupied --
*******-453.867 -58.111 -58.062 -52.168 -52.167 -52.166 -52.120
-52.118 -52.115 -10.237 -10.231 -10.206  -7.844  -7.795  -5.788
 -5.785  -5.779  -5.740  -5.738  -5.727  -2.121  -2.121  -2.116
 -2.114  -2.113  -2.074  -2.074  -2.064  -2.063  -2.061  -0.823
 -0.735  -0.693  -0.657  -0.590  -0.496  -0.452  -0.442  -0.405
 -0.389  -0.382  -0.351  -0.340  -0.292  -0.219  -0.210  -0.198

 Beta MOs
 -- Occupied --
*******-453.865 -58.110 -58.061 -52.167 -52.166 -52.164 -52.118
-52.116 -52.115 -10.239 -10.221 -10.207  -7.842  -7.792  -5.785
 -5.782  -5.776  -5.737  -5.733  -5.725  -2.119  -2.118  -2.113
 -2.110  -2.109  -2.070  -2.069  -2.063  -2.060  -2.059  -0.809
 -0.727  -0.676  -0.631  -0.578  -0.492  -0.447  -0.429  -0.400
 -0.383  -0.378  -0.342  -0.320  -0.255  -0.202

          Ground-State Mulliken Net Atomic Charges

     Atom                 Charge (a.u.)    Spin (a.u.)
  --------------------------------------------------------
      1 Se                   -0.033983       0.692301
      2 C                    -0.283591      -0.147274
      3 C                    -0.021582       0.726369
      4 C                    -0.354943      -0.054362
      5 Se                   -0.280436       0.765942
      6 H                     0.054675      -0.020466
      7 H                     0.075765      -0.014694
      8 H                     0.164080       0.011889
      9 H                     0.146589       0.007502
     10 H                     0.138777      -0.032097
     11 H                     0.121746       0.002298
     12 H                     0.139236       0.040988
     13 H                     0.133666       0.021603
  --------------------------------------------------------
  Sum of atomic charges =    -0.000000

                    Cartesian Multipole Moments
 -----------------------------------------------------------------
    Charge (ESU x 10^10)
                 0.0000
    Dipole Moment (Debye)
         X      -0.8118      Y      -4.2597      Z       0.9665
       Tot       4.4428
    Quadrupole Moments (Debye-Ang)
        XX     -51.6432     XY      -1.1783     YY     -59.3503
        XZ       0.3277     YZ       1.7475     ZZ     -61.5735

 Final energy is   -4921.65359362798
 **  OPTIMIZATION CONVERGED  **
 Total job time:  172.04s(wall), 2015.51s(cpu)
        *  Thank you very much for using Q-Chem.  Have a nice day.  *
