 Q-Chem 5.1, Q-Chem, Inc., Pleasanton, CA (2018)
 Q-Chem 5.1.1 for Intel X86 EM64T Linux

User input:
--------------------------------------------------------------

$comment
potential surface scanner
$end

$rem
JOBTYPE  PES_SCAN
UNRESTRICTED TRUE
SYM_IGNORE  TRUE
GEOM_OPT_MAX_CYCLES 400
SCF_MAX_CYCLES 400
METHOD   B3LYP
BASIS   6-31G**
PDB_PRINT 2
SCF_CONVERGENCE 6
THRESH 14
SCF_PRINT 1
$end
$molecule
0 3
Se 3.362650 1.184033 0.578816
C 0.429776 -1.946663 0.283861
C -0.789243 -1.508578 -0.371392
C -2.092457 -2.064889 0.191705
Se -0.836262 0.600901 -0.280635
H -0.977253 0.612872 1.187669
H 2.120615 0.373146 0.582670
H 1.382047 -1.918659 -0.232991
H 0.432651 -2.163284 1.347956
H -0.738792 -1.621255 -1.457464
H -2.174771 -1.867030 1.265253
H -2.962337 -1.628143 -0.303316
H -2.118624 -3.151857 0.049366
$end
$scan
stre 1 2 4.200000 4.201000 0.100000
$end
--------------------------------------------------------------

   15   -4921.6400622592      9.81e-07  Convergence criterion met
 Total energy in the final basis set =    -4921.6400622592
   16   -4921.6397108116      7.45e-07  Convergence criterion met
 Total energy in the final basis set =    -4921.6397108116
   16   -4921.6399041100      7.45e-07  Convergence criterion met
 Total energy in the final basis set =    -4921.6399041100
   15   -4921.6399641779      9.42e-07  Convergence criterion met
 Total energy in the final basis set =    -4921.6399641779
   14   -4921.6399674576      9.95e-07  Convergence criterion met
 Total energy in the final basis set =    -4921.6399674576
   14   -4921.6399739756      9.66e-07  Convergence criterion met
 Total energy in the final basis set =    -4921.6399739756
   13   -4921.6399786138      9.82e-07  Convergence criterion met
 Total energy in the final basis set =    -4921.6399786138
   13   -4921.6399798576      9.79e-07  Convergence criterion met
 Total energy in the final basis set =    -4921.6399798576

             Standard Nuclear Orientation (Angstroms)
    I     Atom           X                Y                Z
 ----------------------------------------------------------------
    1      Se      3.3178762319     1.1199749359     0.6487572535
    2      C       0.4463075852    -1.9187823005     0.2486940923
    3      C      -0.7909468328    -1.5024124255    -0.3868654767
    4      C      -2.0758701492    -2.0605952599     0.2150233753
    5      Se     -0.8560345765     0.6071739981    -0.3349648561
    6      H      -0.9923506423     0.6471333959     1.1333891832
    7      H       2.0838491064     0.2976500573     0.6540166904
    8      H       1.3856535244    -1.8982502122    -0.2914401878
    9      H       0.4740440699    -2.1201596909     1.3154686809
   10      H      -0.7635368904    -1.6349696642    -1.4714860499
   11      H      -2.1344477366    -1.8475188248     1.2871845044
   12      H      -2.9608626718    -1.6388561613    -0.2659301525
   13      H      -2.0956810181    -3.1497938480     0.0896509432
 ----------------------------------------------------------------

   13   -4921.6399802785      9.82e-07  Convergence criterion met
 Total energy in the final basis set =    -4921.6399802785

                    Orbital Energies (a.u.)
 --------------------------------------------------------------

 Alpha MOs
 -- Occupied --
*******-453.900 -58.102 -58.095 -52.162 -52.159 -52.156 -52.153
-52.152 -52.149 -10.243 -10.211 -10.197  -7.836  -7.829  -5.784
 -5.777  -5.773  -5.770  -5.766  -5.761  -2.117  -2.116  -2.107
 -2.107  -2.107  -2.102  -2.100  -2.099  -2.097  -2.095  -0.818
 -0.703  -0.696  -0.692  -0.586  -0.483  -0.440  -0.432  -0.392
 -0.384  -0.381  -0.362  -0.336  -0.286  -0.244  -0.243  -0.207

 Beta MOs
 -- Occupied --
*******-453.899 -58.101 -58.095 -52.158 -52.157 -52.155 -52.152
-52.151 -52.149 -10.244 -10.199 -10.197  -7.833  -7.827  -5.776
 -5.775  -5.772  -5.769  -5.765  -5.760  -2.111  -2.111  -2.106
 -2.105  -2.102  -2.101  -2.098  -2.098  -2.095  -2.094  -0.810
 -0.694  -0.675  -0.662  -0.577  -0.478  -0.437  -0.427  -0.388
 -0.380  -0.370  -0.360  -0.319  -0.235  -0.231

          Ground-State Mulliken Net Atomic Charges

     Atom                 Charge (a.u.)    Spin (a.u.)
  --------------------------------------------------------
      1 Se                   -0.112630       1.014617
      2 C                    -0.212373       0.927460
      3 C                    -0.150653      -0.110610
      4 C                    -0.311318       0.007883
      5 Se                   -0.093834       0.267072
      6 H                     0.058465      -0.006856
      7 H                     0.079939      -0.026965
      8 H                     0.126409      -0.041503
      9 H                     0.113790      -0.041574
     10 H                     0.138903       0.011260
     11 H                     0.113966      -0.000922
     12 H                     0.130019       0.001167
     13 H                     0.119316      -0.001030
  --------------------------------------------------------
  Sum of atomic charges =     0.000000

                    Cartesian Multipole Moments
 -----------------------------------------------------------------
    Charge (ESU x 10^10)
                -0.0000
    Dipole Moment (Debye)
         X      -1.5779      Y      -2.3590      Z       0.3839
       Tot       2.8639
    Quadrupole Moments (Debye-Ang)
        XX     -62.9208     XY      -0.3838     YY     -57.1177
        XZ      -0.8168     YZ      -0.4910     ZZ     -56.7504

 Final energy is   -4921.63998027849
 **  OPTIMIZATION CONVERGED  **
 Total job time:  70.11s(wall), 814.64s(cpu)
        *  Thank you very much for using Q-Chem.  Have a nice day.  *
