 Q-Chem 5.1, Q-Chem, Inc., Pleasanton, CA (2018)
 Q-Chem 5.1.1 for Intel X86 EM64T Linux

User input:
--------------------------------------------------------------

$comment
potential surface scanner
$end

$rem
JOBTYPE  PES_SCAN
UNRESTRICTED TRUE
SYM_IGNORE  TRUE
GEOM_OPT_MAX_CYCLES 400
SCF_MAX_CYCLES 400
METHOD   B3LYP
BASIS   6-31G**
PDB_PRINT 2
SCF_CONVERGENCE 6
THRESH 14
SCF_PRINT 1
$end
$molecule
0 1
Se 1.804869 0.298193 0.185836
C 0.585589 -1.114436 0.543374
C -0.684931 -1.040161 -0.308910
C -1.616835 -2.224296 -0.050460
Se -1.640930 0.708190 -0.083816
H -1.848578 0.532569 1.365925
H 3.001117 -0.479595 0.577923
H 1.083238 -2.065949 0.329366
H 0.314508 -1.119306 1.603813
H -0.408055 -1.005944 -1.367536
H -1.941111 -2.254661 0.994850
H -2.508611 -2.165713 -0.678393
H -1.102270 -3.168289 -0.270471
$end
$scan
stre 1 2 2.000000 2.001000 0.100000
$end
--------------------------------------------------------------

   10   -4921.7280670093      4.24e-07  Convergence criterion met
 Total energy in the final basis set =    -4921.7280670093
   10   -4921.7303221885      4.03e-07  Convergence criterion met
 Total energy in the final basis set =    -4921.7303221885
    9   -4921.7305588121      9.23e-07  Convergence criterion met
 Total energy in the final basis set =    -4921.7305588121
    9   -4921.7306076679      9.15e-07  Convergence criterion met
 Total energy in the final basis set =    -4921.7306076679
    9   -4921.7306099356      9.11e-07  Convergence criterion met
 Total energy in the final basis set =    -4921.7306099356

             Standard Nuclear Orientation (Angstroms)
    I     Atom           X                Y                Z
 ----------------------------------------------------------------
    1      Se      1.8509172429     0.3479657315     0.1805260401
    2      C       0.5672124115    -1.1394230193     0.5543929444
    3      C      -0.6902912372    -1.0494860281    -0.3046628655
    4      C      -1.6327388507    -2.2289679154    -0.0552978007
    5      Se     -1.6346897227     0.7040846269    -0.0816136283
    6      H      -1.8509579536     0.5285307864     1.3669133022
    7      H       3.0336894111    -0.4548090412     0.5639739306
    8      H       1.0918683136    -2.0742362013     0.3374192376
    9      H       0.3168324796    -1.1187344090     1.6175650548
   10      H      -0.4065597407    -1.0167337211    -1.3612959509
   11      H      -1.9644125962    -2.2597127249     0.9876316088
   12      H      -2.5195543365    -2.1620226946    -0.6894892196
   13      H      -1.1233154211    -3.1758533898    -0.2745616536
 ----------------------------------------------------------------

    9   -4921.7306108830      9.07e-07  Convergence criterion met
 Total energy in the final basis set =    -4921.7306108830

                    Orbital Energies (a.u.)
 --------------------------------------------------------------

 Alpha MOs
 -- Occupied --
*******-453.893 -58.091 -58.088 -52.149 -52.148 -52.145 -52.145
-52.144 -52.142 -10.239 -10.228 -10.195  -7.825  -7.821  -5.770
 -5.766  -5.766  -5.763  -5.757  -5.753  -2.104  -2.103  -2.100
 -2.100  -2.095  -2.092  -2.091  -2.091  -2.088  -2.087  -0.823
 -0.734  -0.695  -0.650  -0.582  -0.471  -0.443  -0.435  -0.411
 -0.387  -0.360  -0.356  -0.324  -0.306  -0.233  -0.222

 Beta MOs
 -- Occupied --
*******-453.893 -58.091 -58.088 -52.149 -52.148 -52.145 -52.145
-52.144 -52.142 -10.239 -10.228 -10.195  -7.825  -7.821  -5.770
 -5.766  -5.766  -5.763  -5.757  -5.753  -2.104  -2.103  -2.100
 -2.100  -2.095  -2.092  -2.091  -2.091  -2.088  -2.087  -0.823
 -0.734  -0.695  -0.650  -0.582  -0.471  -0.443  -0.435  -0.411
 -0.387  -0.360  -0.356  -0.324  -0.306  -0.233  -0.222

          Ground-State Mulliken Net Atomic Charges

     Atom                 Charge (a.u.)    Spin (a.u.)
  --------------------------------------------------------
      1 Se                   -0.061159       0.000000
      2 C                    -0.253464      -0.000000
      3 C                    -0.160177       0.000000
      4 C                    -0.308542      -0.000000
      5 Se                   -0.070849       0.000000
      6 H                     0.052403      -0.000000
      7 H                     0.039070      -0.000000
      8 H                     0.131641      -0.000000
      9 H                     0.134341       0.000000
     10 H                     0.143846      -0.000000
     11 H                     0.113041       0.000000
     12 H                     0.132075       0.000000
     13 H                     0.107775      -0.000000
  --------------------------------------------------------
  Sum of atomic charges =    -0.000000

                    Cartesian Multipole Moments
 -----------------------------------------------------------------
    Charge (ESU x 10^10)
                -0.0000
    Dipole Moment (Debye)
         X      -0.1591      Y      -2.7282      Z       0.7433
       Tot       2.8321
    Quadrupole Moments (Debye-Ang)
        XX     -58.2302     XY      -0.9109     YY     -55.7556
        XZ      -0.6991     YZ      -0.3877     ZZ     -56.5544

 Final energy is   -4921.73061088301
 **  OPTIMIZATION CONVERGED  **
 Total job time:  37.82s(wall), 439.61s(cpu)
        *  Thank you very much for using Q-Chem.  Have a nice day.  *
