 Q-Chem 5.1, Q-Chem, Inc., Pleasanton, CA (2018)
 Q-Chem 5.1.1 for Intel X86 EM64T Linux

User input:
--------------------------------------------------------------

$comment
potential surface scanner
$end

$rem
JOBTYPE  PES_SCAN
UNRESTRICTED TRUE
SYM_IGNORE  TRUE
GEOM_OPT_MAX_CYCLES 400
SCF_MAX_CYCLES 400
METHOD   B3LYP
BASIS   6-31G**
PDB_PRINT 2
SCF_CONVERGENCE 6
THRESH 14
SCF_PRINT 1
$end
$molecule
0 3
Se 2.511691 0.156799 1.029379
C 0.371776 -1.790460 -0.083701
C -0.867802 -1.969265 -0.595659
C -2.096983 -2.263715 0.206152
Se -0.237627 1.041970 -0.100598
H -0.920716 0.662165 1.152679
H 2.768581 1.551088 1.445422
H 1.230237 -1.647363 -0.728526
H 0.559070 -1.882097 0.980816
H -0.998009 -1.913148 -1.675714
H -1.895118 -2.255530 1.280931
H -2.890896 -1.539185 -0.008982
H -2.496204 -3.250661 -0.060697
$end
$scan
stre 1 2 3.000000 3.001000 0.100000
$end
--------------------------------------------------------------

   14   -4921.6505427025      7.24e-07  Convergence criterion met
 Total energy in the final basis set =    -4921.6505427025
   14   -4921.6481231269      7.66e-07  Convergence criterion met
 Total energy in the final basis set =    -4921.6481231269
   14   -4921.6482431783      5.88e-07  Convergence criterion met
 Total energy in the final basis set =    -4921.6482431783
   14   -4921.6483701794      8.06e-07  Convergence criterion met
 Total energy in the final basis set =    -4921.6483701794
   14   -4921.6483781684      8.13e-07  Convergence criterion met
 Total energy in the final basis set =    -4921.6483781684
   14   -4921.6484031798      9.42e-07  Convergence criterion met
 Total energy in the final basis set =    -4921.6484031798
   14   -4921.6484113129      8.45e-07  Convergence criterion met
 Total energy in the final basis set =    -4921.6484113129
   14   -4921.6484155598      8.43e-07  Convergence criterion met
   15   -4921.6485171300      4.29e-07  Convergence criterion met
 Total energy in the final basis set =    -4921.6485171300
   15   -4921.6485206338      4.28e-07  Convergence criterion met
 Total energy in the final basis set =    -4921.6485206338
   15   -4921.6485231484      4.33e-07  Convergence criterion met
 Total energy in the final basis set =    -4921.6485231484
   15   -4921.6485254905      4.41e-07  Convergence criterion met
 Total energy in the final basis set =    -4921.6485254905
   15   -4921.6485274212      4.50e-07  Convergence criterion met
 Total energy in the final basis set =    -4921.6485274212
   15   -4921.6485286008      4.57e-07  Convergence criterion met
 Total energy in the final basis set =    -4921.6485286008

             Standard Nuclear Orientation (Angstroms)
    I     Atom           X                Y                Z
 ----------------------------------------------------------------
    1      Se      2.4045141270     0.1275214712     0.9865654194
    2      C       0.4280071029    -1.8664141170    -0.0706208892
    3      C      -0.8271598047    -1.9186856693    -0.5718341774
    4      C      -2.0605356194    -2.2099302612     0.2275631541
    5      Se     -0.3266222631     1.0495551771    -0.1475471562
    6      H      -1.0054275068     0.6487820868     1.1019640327
    7      H       2.6601234377     1.5166551905     1.4233718222
    8      H       1.2838046499    -1.7289518676    -0.7202625650
    9      H       0.6193603581    -2.0390959514     0.9826344841
   10      H      -0.9651471723    -1.7921595700    -1.6446621825
   11      H      -1.8511316202    -2.2504014151     1.3004048262
   12      H      -2.8380636749    -1.4594617865     0.0479348648
   13      H      -2.4837220141    -3.1768152876    -0.0740096331
 ----------------------------------------------------------------

   15   -4921.6485291538      4.59e-07  Convergence criterion met
 Total energy in the final basis set =    -4921.6485291538

                    Orbital Energies (a.u.)
 --------------------------------------------------------------

 Alpha MOs
 -- Occupied --
*******-453.869 -58.116 -58.064 -52.174 -52.172 -52.171 -52.122
-52.121 -52.118 -10.232 -10.217 -10.206  -7.850  -7.798  -5.794
 -5.791  -5.784  -5.743  -5.740  -5.729  -2.127  -2.126  -2.120
 -2.119  -2.118  -2.077  -2.076  -2.067  -2.066  -2.064  -0.819
 -0.719  -0.709  -0.661  -0.584  -0.495  -0.450  -0.438  -0.398
 -0.393  -0.376  -0.355  -0.321  -0.295  -0.248  -0.215  -0.203

 Beta MOs
 -- Occupied --
*******-453.867 -58.115 -58.063 -52.171 -52.170 -52.169 -52.120
-52.119 -52.117 -10.230 -10.214 -10.206  -7.846  -7.795  -5.789
 -5.786  -5.780  -5.739  -5.736  -5.728  -2.122  -2.121  -2.117
 -2.114  -2.113  -2.073  -2.072  -2.065  -2.063  -2.061  -0.813
 -0.712  -0.677  -0.635  -0.580  -0.493  -0.448  -0.435  -0.397
 -0.381  -0.375  -0.344  -0.289  -0.256  -0.205

          Ground-State Mulliken Net Atomic Charges

     Atom                 Charge (a.u.)    Spin (a.u.)
  --------------------------------------------------------
      1 Se                   -0.275003       0.772605
      2 C                    -0.220091       0.127114
      3 C                    -0.039206       0.102874
      4 C                    -0.356857      -0.007215
      5 Se                   -0.050566       1.063853
      6 H                     0.074344      -0.030118
      7 H                     0.052104      -0.021846
      8 H                     0.152835      -0.005796
      9 H                     0.147523      -0.005948
     10 H                     0.121351      -0.004413
     11 H                     0.123377       0.000048
     12 H                     0.135206       0.006354
     13 H                     0.134984       0.002487
  --------------------------------------------------------
  Sum of atomic charges =     0.000000

                    Cartesian Multipole Moments
 -----------------------------------------------------------------
    Charge (ESU x 10^10)
                 0.0000
    Dipole Moment (Debye)
         X      -3.3078      Y      -1.6596      Z      -0.5481
       Tot       3.7411
    Quadrupole Moments (Debye-Ang)
        XX     -62.2881     XY       3.1491     YY     -53.2108
        XZ      -2.6769     YZ       1.9936     ZZ     -58.1404

 Final energy is   -4921.64852915384
 **  OPTIMIZATION CONVERGED  **
 Total job time:  248.31s(wall), 2859.26s(cpu)
        *  Thank you very much for using Q-Chem.  Have a nice day.  *
