 Q-Chem 5.1, Q-Chem, Inc., Pleasanton, CA (2018)
 Q-Chem 5.1.1 for Intel X86 EM64T Linux

User input:
--------------------------------------------------------------

$comment
potential surface scanner
$end

$rem
JOBTYPE  PES_SCAN
UNRESTRICTED TRUE
SYM_IGNORE  TRUE
GEOM_OPT_MAX_CYCLES 400
SCF_MAX_CYCLES 400
METHOD   B3LYP
BASIS   6-31G**
PDB_PRINT 2
SCF_CONVERGENCE 6
THRESH 14
SCF_PRINT 1
$end
$molecule
0 1
Se 1.870900 0.175900 -0.051900
C 0.575300 -1.200000 0.467400
C -0.687000 -1.059800 -0.385600
C -1.647200 -2.208000 -0.068200
Se -1.558500 0.649900 0.013200
H -1.851500 0.486400 1.536700
H 3.049900 -0.144000 0.918300
H 1.011300 -2.186800 0.311700
H 0.318200 -1.078300 1.519600
H -0.417700 -1.092800 -1.441300
H -1.916600 -2.175000 0.987500
H -2.546500 -2.108100 -0.675900
H -1.162600 -3.158800 -0.290000
$end
$scan
stre 1 2 1.300000 1.301000 0.100000
$end
--------------------------------------------------------------

   10   -4921.7171930318      4.57e-07  Convergence criterion met
 Total energy in the final basis set =    -4921.7171930318
   10   -4921.7133446033      4.67e-07  Convergence criterion met
 Total energy in the final basis set =    -4921.7133446033
   10   -4921.6872331771      4.63e-07  Convergence criterion met
 Total energy in the final basis set =    -4921.6872331771
   10   -4921.6268283755      5.06e-07  Convergence criterion met
 Total energy in the final basis set =    -4921.6268283755
   10   -4921.5243799599      5.78e-07  Convergence criterion met
 Total energy in the final basis set =    -4921.5243799599
   10   -4921.3870173221      6.50e-07  Convergence criterion met
 Total energy in the final basis set =    -4921.3870173221
   10   -4921.2961706884      6.77e-07  Convergence criterion met
 Total energy in the final basis set =    -4921.2961706884
   10   -4921.2955142445      6.77e-07  Convergence criterion met
   10   -4921.2960570590      6.91e-07  Convergence criterion met
 Total energy in the final basis set =    -4921.2960570590
   10   -4921.2960624846      6.94e-07  Convergence criterion met
 Total energy in the final basis set =    -4921.2960624846
   10   -4921.2960659562      6.95e-07  Convergence criterion met
 Total energy in the final basis set =    -4921.2960659562
   10   -4921.2960674309      6.95e-07  Convergence criterion met
 Total energy in the final basis set =    -4921.2960674309
   10   -4921.2960685483      6.95e-07  Convergence criterion met
 Total energy in the final basis set =    -4921.2960685483
   10   -4921.2960695938      6.94e-07  Convergence criterion met
 Total energy in the final basis set =    -4921.2960695938

             Standard Nuclear Orientation (Angstroms)
    I     Atom           X                Y                Z
 ----------------------------------------------------------------
    1      Se      1.6053279408    -0.0946379360     0.1027315494
    2      C       0.7424035541    -1.0077837266     0.4366870816
    3      C      -0.6651473035    -0.9676772369    -0.3415415980
    4      C      -1.5251790369    -2.1851781932    -0.0138025263
    5      Se     -1.6751660093     0.7357940184    -0.0722675636
    6      H      -1.8826405175     0.5028537091     1.3705696865
    7      H       2.8543080830    -0.4568378958     0.8417344779
    8      H       0.9303010061    -2.1002753893     0.2481342728
    9      H       0.3270491686    -1.1052246203     1.4848714444
   10      H      -0.4416087156    -0.9381904125    -1.4143475917
   11      H      -1.7825307305    -2.2163877104     1.0490873577
   12      H      -2.4546321144    -2.1547088830    -0.5857267473
   13      H      -0.9944853249    -3.1111457235    -0.2646298435
 ----------------------------------------------------------------

   10   -4921.2960704319      6.94e-07  Convergence criterion met
 Total energy in the final basis set =    -4921.2960704319

                    Orbital Energies (a.u.)
 --------------------------------------------------------------

 Alpha MOs
 -- Occupied --
*******-453.879 -58.094 -58.086 -52.152 -52.151 -52.148 -52.143
-52.140 -52.139 -10.255 -10.217 -10.199  -7.835  -7.827  -5.785
 -5.775  -5.773  -5.769  -5.765  -5.759  -2.128  -2.117  -2.109
 -2.107  -2.106  -2.101  -2.101  -2.098  -2.095  -2.093  -0.923
 -0.793  -0.700  -0.636  -0.581  -0.503  -0.489  -0.447  -0.429
 -0.402  -0.380  -0.364  -0.325  -0.283  -0.234  -0.192

 Beta MOs
 -- Occupied --
*******-453.879 -58.094 -58.086 -52.152 -52.151 -52.148 -52.143
-52.140 -52.139 -10.255 -10.217 -10.199  -7.835  -7.827  -5.785
 -5.775  -5.773  -5.769  -5.765  -5.759  -2.128  -2.117  -2.109
 -2.107  -2.106  -2.101  -2.101  -2.098  -2.095  -2.093  -0.923
 -0.793  -0.700  -0.636  -0.581  -0.503  -0.489  -0.447  -0.429
 -0.402  -0.380  -0.364  -0.325  -0.283  -0.234  -0.192

          Ground-State Mulliken Net Atomic Charges

     Atom                 Charge (a.u.)    Spin (a.u.)
  --------------------------------------------------------
      1 Se                    0.007824      -0.000000
      2 C                    -0.174073       0.000000
      3 C                    -0.214074       0.000000
      4 C                    -0.307820       0.000000
      5 Se                   -0.060049      -0.000000
      6 H                     0.052686       0.000000
      7 H                     0.017906       0.000000
      8 H                     0.089474       0.000000
      9 H                     0.071630       0.000000
     10 H                     0.147799      -0.000000
     11 H                     0.119796       0.000000
     12 H                     0.135052      -0.000000
     13 H                     0.113849      -0.000000
  --------------------------------------------------------
  Sum of atomic charges =     0.000000

                    Cartesian Multipole Moments
 -----------------------------------------------------------------
    Charge (ESU x 10^10)
                 0.0000
    Dipole Moment (Debye)
         X      -0.5360      Y      -2.6624      Z       0.9551
       Tot       2.8789
    Quadrupole Moments (Debye-Ang)
        XX     -58.9854     XY      -0.4478     YY     -56.0037
        XZ       0.4087     YZ       0.0428     ZZ     -55.2377

 Final energy is   -4921.29607043194
 **  OPTIMIZATION CONVERGED  **
 Total job time:  129.98s(wall), 1524.99s(cpu)
        *  Thank you very much for using Q-Chem.  Have a nice day.  *
