 Q-Chem 5.1, Q-Chem, Inc., Pleasanton, CA (2018)
 Q-Chem 5.1.1 for Intel X86 EM64T Linux

User input:
--------------------------------------------------------------

$comment
potential surface scanner
$end

$rem
JOBTYPE  PES_SCAN
UNRESTRICTED TRUE
SYM_IGNORE  TRUE
GEOM_OPT_MAX_CYCLES 400
SCF_MAX_CYCLES 400
METHOD   B3LYP
BASIS   6-31G**
PDB_PRINT 2
SCF_CONVERGENCE 6
THRESH 14
SCF_PRINT 1
$end
$molecule
0 1
Se 1.870900 0.175900 -0.051900
C 0.575300 -1.200000 0.467400
C -0.687000 -1.059800 -0.385600
C -1.647200 -2.208000 -0.068200
Se -1.558500 0.649900 0.013200
H -1.851500 0.486400 1.536700
H 3.049900 -0.144000 0.918300
H 1.011300 -2.186800 0.311700
H 0.318200 -1.078300 1.519600
H -0.417700 -1.092800 -1.441300
H -1.916600 -2.175000 0.987500
H -2.546500 -2.108100 -0.675900
H -1.162600 -3.158800 -0.290000
$end
$scan
stre 1 2 1.700000 1.701000 0.100000
$end
--------------------------------------------------------------

   10   -4921.7171930318      4.57e-07  Convergence criterion met
 Total energy in the final basis set =    -4921.7171930318
   10   -4921.7133446033      4.67e-07  Convergence criterion met
 Total energy in the final basis set =    -4921.7133446033
   10   -4921.6923097322      4.56e-07  Convergence criterion met
 Total energy in the final basis set =    -4921.6923097322
   10   -4921.6925465788      4.52e-07  Convergence criterion met
 Total energy in the final basis set =    -4921.6925465788
   10   -4921.6935420664      4.46e-07  Convergence criterion met
 Total energy in the final basis set =    -4921.6935420664
   10   -4921.6936976777      4.45e-07  Convergence criterion met
 Total energy in the final basis set =    -4921.6936976777
   10   -4921.6938592242      4.44e-07  Convergence criterion met
 Total energy in the final basis set =    -4921.6938592242
   10   -4921.6939033200      4.44e-07  Convergence criterion met
   10   -4921.6946372660      4.46e-07  Convergence criterion met
 Total energy in the final basis set =    -4921.6946372660
   10   -4921.6946814149      4.46e-07  Convergence criterion met
 Total energy in the final basis set =    -4921.6946814149
   10   -4921.6947166120      4.46e-07  Convergence criterion met
 Total energy in the final basis set =    -4921.6947166120
   10   -4921.6947275848      4.46e-07  Convergence criterion met
 Total energy in the final basis set =    -4921.6947275848
   10   -4921.6947318993      4.46e-07  Convergence criterion met
 Total energy in the final basis set =    -4921.6947318993
   10   -4921.6947353456      4.46e-07  Convergence criterion met
 Total energy in the final basis set =    -4921.6947353456

             Standard Nuclear Orientation (Angstroms)
    I     Atom           X                Y                Z
 ----------------------------------------------------------------
    1      Se      1.7196132353     0.1954591355     0.2085771281
    2      C       0.6263365302    -1.0693889341     0.5166447797
    3      C      -0.6746457919    -1.0155028829    -0.3184635461
    4      C      -1.5834151535    -2.2101065214    -0.0364390190
    5      Se     -1.6555743722     0.7193982553    -0.0918114131
    6      H      -1.8650063684     0.5358631178     1.3568137096
    7      H       2.9453018546    -0.5206100074     0.6245897427
    8      H       1.0597586658    -2.0514380510     0.2862889204
    9      H       0.3122017894    -1.1437933594     1.5691755555
   10      H      -0.4125619010    -0.9839401365    -1.3814183381
   11      H      -1.8888566206    -2.2380105478     1.0146457410
   12      H      -2.4865176318    -2.1691600346    -0.6489136480
   13      H      -1.0586342360    -3.1481700335    -0.2581896126
 ----------------------------------------------------------------

   10   -4921.6947361992      4.46e-07  Convergence criterion met
 Total energy in the final basis set =    -4921.6947361992

                    Orbital Energies (a.u.)
 --------------------------------------------------------------

 Alpha MOs
 -- Occupied --
*******-453.889 -58.091 -58.086 -52.149 -52.147 -52.145 -52.143
-52.142 -52.140 -10.240 -10.215 -10.195  -7.824  -7.821  -5.770
 -5.767  -5.766  -5.763  -5.756  -5.754  -2.104  -2.103  -2.102
 -2.101  -2.095  -2.093  -2.092  -2.090  -2.089  -2.088  -0.844
 -0.766  -0.696  -0.641  -0.580  -0.476  -0.458  -0.441  -0.414
 -0.391  -0.365  -0.357  -0.329  -0.305  -0.233  -0.216

 Beta MOs
 -- Occupied --
*******-453.889 -58.091 -58.086 -52.149 -52.147 -52.145 -52.143
-52.142 -52.140 -10.240 -10.215 -10.195  -7.824  -7.821  -5.770
 -5.767  -5.766  -5.763  -5.756  -5.754  -2.104  -2.103  -2.102
 -2.101  -2.095  -2.093  -2.092  -2.090  -2.089  -2.088  -0.844
 -0.766  -0.696  -0.641  -0.580  -0.476  -0.458  -0.441  -0.414
 -0.391  -0.365  -0.357  -0.329  -0.305  -0.233  -0.216

          Ground-State Mulliken Net Atomic Charges

     Atom                 Charge (a.u.)    Spin (a.u.)
  --------------------------------------------------------
      1 Se                   -0.069586       0.000000
      2 C                    -0.201428      -0.000000
      3 C                    -0.177695       0.000000
      4 C                    -0.307886      -0.000000
      5 Se                   -0.073249      -0.000000
      6 H                     0.052503      -0.000000
      7 H                     0.035874      -0.000000
      8 H                     0.128371      -0.000000
      9 H                     0.118875      -0.000000
     10 H                     0.142626       0.000000
     11 H                     0.113538       0.000000
     12 H                     0.131057       0.000000
     13 H                     0.106998      -0.000000
  --------------------------------------------------------
  Sum of atomic charges =     0.000000

                    Cartesian Multipole Moments
 -----------------------------------------------------------------
    Charge (ESU x 10^10)
                -0.0000
    Dipole Moment (Debye)
         X      -0.0494      Y      -2.7441      Z       0.7652
       Tot       2.8493
    Quadrupole Moments (Debye-Ang)
        XX     -58.1087     XY      -1.0297     YY     -55.8830
        XZ      -0.5280     YZ      -0.2762     ZZ     -56.3281

 Final energy is   -4921.69473619915
 **  OPTIMIZATION CONVERGED  **
 Total job time:  120.86s(wall), 1417.03s(cpu)
        *  Thank you very much for using Q-Chem.  Have a nice day.  *
