 Q-Chem 5.1, Q-Chem, Inc., Pleasanton, CA (2018)
 Q-Chem 5.1.1 for Intel X86 EM64T Linux

User input:
--------------------------------------------------------------

$comment
potential surface scanner
$end

$rem
JOBTYPE  PES_SCAN
UNRESTRICTED TRUE
SYM_IGNORE  TRUE
GEOM_OPT_MAX_CYCLES 400
SCF_MAX_CYCLES 400
METHOD   B3LYP
BASIS   6-31G**
PDB_PRINT 2
SCF_CONVERGENCE 6
THRESH 14
SCF_PRINT 1
$end
$molecule
0 3
Se 3.577084 1.995954 -0.009287
C 0.237409 -2.333731 0.582661
C -0.745943 -1.640890 -0.225707
C -2.203020 -2.018060 0.012726
Se -0.499825 0.438054 0.113744
H -0.705741 0.306276 1.566160
H 2.314427 1.206247 -0.005556
H 1.276580 -2.380417 0.278131
H -0.008691 -2.644623 1.593826
H -0.493300 -1.654398 -1.289189
H -2.472094 -1.913498 1.068455
H -2.879755 -1.394259 -0.574578
H -2.359133 -3.066057 -0.269882
$end
$scan
stre 1 2 5.400000 5.401000 0.100000
$end
--------------------------------------------------------------

   11   -4921.6405072768      7.37e-07  Convergence criterion met
 Total energy in the final basis set =    -4921.6405072768
   11   -4921.6404667323      7.10e-07  Convergence criterion met
 Total energy in the final basis set =    -4921.6404667323
   11   -4921.6404807055      7.14e-07  Convergence criterion met
 Total energy in the final basis set =    -4921.6404807055
   11   -4921.6404929330      7.32e-07  Convergence criterion met
 Total energy in the final basis set =    -4921.6404929330
   11   -4921.6404967523      7.45e-07  Convergence criterion met
 Total energy in the final basis set =    -4921.6404967523
   11   -4921.6405017002      7.67e-07  Convergence criterion met
 Total energy in the final basis set =    -4921.6405017002
   11   -4921.6405032071      7.72e-07  Convergence criterion met
 Total energy in the final basis set =    -4921.6405032071
   11   -4921.6405047049      7.74e-07  Convergence criterion met
 Total energy in the final basis set =    -4921.6405047049
   11   -4921.6405058236      7.73e-07  Convergence criterion met
 Total energy in the final basis set =    -4921.6405058236
   11   -4921.6405074013      7.72e-07  Convergence criterion met
 Total energy in the final basis set =    -4921.6405074013

             Standard Nuclear Orientation (Angstroms)
    I     Atom           X                Y                Z
 ----------------------------------------------------------------
    1      Se      3.5736599330     1.9193353847    -0.0071469542
    2      C       0.2511907876    -2.2971265351     0.5782144328
    3      C      -0.7465524222    -1.6196075310    -0.2261582005
    4      C      -2.1955615500    -2.0270363448     0.0129419693
    5      Se     -0.5389813370     0.4607079808     0.1197705091
    6      H      -0.7416760684     0.3213526814     1.5717675986
    7      H       2.3094703053     1.1325121666    -0.0029002890
    8      H       1.2903655226    -2.3242282980     0.2713274238
    9      H       0.0128034237    -2.6159640244     1.5887332584
   10      H      -0.4953095711    -1.6254456751    -1.2900782213
   11      H      -2.4643925279    -1.9340027998     1.0697893770
   12      H      -2.8858363289    -1.4135573896    -0.5694937463
   13      H      -2.3311821667    -3.0763416157    -0.2752631577
 ----------------------------------------------------------------

   11   -4921.6405080351      7.71e-07  Convergence criterion met
 Total energy in the final basis set =    -4921.6405080351

                    Orbital Energies (a.u.)
 --------------------------------------------------------------

 Alpha MOs
 -- Occupied --
*******-453.899 -58.102 -58.094 -52.161 -52.158 -52.155 -52.152
-52.151 -52.148 -10.242 -10.209 -10.196  -7.835  -7.827  -5.784
 -5.776  -5.772  -5.769  -5.765  -5.760  -2.116  -2.115  -2.106
 -2.106  -2.105  -2.101  -2.099  -2.098  -2.095  -2.094  -0.817
 -0.701  -0.695  -0.690  -0.584  -0.481  -0.439  -0.431  -0.390
 -0.382  -0.378  -0.361  -0.337  -0.286  -0.243  -0.242  -0.206

 Beta MOs
 -- Occupied --
*******-453.898 -58.100 -58.094 -52.157 -52.157 -52.154 -52.151
-52.150 -52.148 -10.244 -10.197 -10.195  -7.832  -7.826  -5.775
 -5.775  -5.771  -5.768  -5.764  -5.759  -2.110  -2.110  -2.105
 -2.104  -2.101  -2.100  -2.098  -2.097  -2.094  -2.093  -0.809
 -0.693  -0.673  -0.660  -0.576  -0.476  -0.436  -0.426  -0.386
 -0.378  -0.369  -0.358  -0.318  -0.235  -0.230

          Ground-State Mulliken Net Atomic Charges

     Atom                 Charge (a.u.)    Spin (a.u.)
  --------------------------------------------------------
      1 Se                   -0.116945       1.024931
      2 C                    -0.198260       0.927810
      3 C                    -0.150236      -0.113288
      4 C                    -0.307771       0.007286
      5 Se                   -0.113976       0.257537
      6 H                     0.061096      -0.006349
      7 H                     0.094950      -0.026481
      8 H                     0.119316      -0.040963
      9 H                     0.112085      -0.041152
     10 H                     0.137914       0.012025
     11 H                     0.114961      -0.000923
     12 H                     0.128833       0.001007
     13 H                     0.118033      -0.001440
  --------------------------------------------------------
  Sum of atomic charges =    -0.000000

                    Cartesian Multipole Moments
 -----------------------------------------------------------------
    Charge (ESU x 10^10)
                 0.0000
    Dipole Moment (Debye)
         X      -1.7235      Y      -2.5089      Z       0.3425
       Tot       3.0631
    Quadrupole Moments (Debye-Ang)
        XX     -63.0556     XY      -1.7992     YY     -57.6009
        XZ      -1.2897     YZ       1.1429     ZZ     -56.8262

 Final energy is   -4921.64050803515
 **  OPTIMIZATION CONVERGED  **
 Total job time:  66.42s(wall), 778.16s(cpu)
        *  Thank you very much for using Q-Chem.  Have a nice day.  *
