 Q-Chem 5.1, Q-Chem, Inc., Pleasanton, CA (2018)
 Q-Chem 5.1.1 for Intel X86 EM64T Linux

User input:
--------------------------------------------------------------

$comment
potential surface scanner
$end

$rem
JOBTYPE  PES_SCAN
UNRESTRICTED TRUE
SYM_IGNORE  TRUE
GEOM_OPT_MAX_CYCLES 400
SCF_MAX_CYCLES 400
METHOD   B3LYP
BASIS   6-31G**
PDB_PRINT 2
SCF_CONVERGENCE 6
THRESH 14
SCF_PRINT 1
$end
$molecule
0 3
Se 1.516765 0.036058 1.071896
C 0.545036 -2.055345 -0.128845
C -0.746907 -1.902674 -0.447791
C -1.902748 -2.264938 0.438215
Se -0.230255 2.021310 0.148777
H -0.995264 0.860901 -0.353384
H 2.325761 1.183317 1.600594
H 1.331097 -1.861958 -0.850740
H 0.839029 -2.554467 0.789978
H -0.999057 -1.476370 -1.419739
H -1.562394 -2.669524 1.395549
H -2.543986 -1.398389 0.641569
H -2.539077 -3.017321 -0.044577
$end
$scan
stre 1 2 2.500000 2.501000 0.100000
$end
--------------------------------------------------------------

   11   -4921.6495835499      9.35e-07  Convergence criterion met
 Total energy in the final basis set =    -4921.6495835499
   12   -4921.6433606316      4.16e-07  Convergence criterion met
 Total energy in the final basis set =    -4921.6433606316
   12   -4921.6433272538      4.15e-07  Convergence criterion met
 Total energy in the final basis set =    -4921.6433272538
   12   -4921.6434027379      4.12e-07  Convergence criterion met
 Total energy in the final basis set =    -4921.6434027379
   12   -4921.6434122652      4.11e-07  Convergence criterion met
 Total energy in the final basis set =    -4921.6434122652
   12   -4921.6434350259      4.07e-07  Convergence criterion met
 Total energy in the final basis set =    -4921.6434350259
   12   -4921.6434389208      4.07e-07  Convergence criterion met
 Total energy in the final basis set =    -4921.6434389208
   12   -4921.6434417614      4.07e-07  Convergence criterion met
   14   -4921.6546171984      5.17e-07  Convergence criterion met
 Total energy in the final basis set =    -4921.6546171984
   14   -4921.6546188346      5.16e-07  Convergence criterion met
 Total energy in the final basis set =    -4921.6546188346
   14   -4921.6546198557      5.15e-07  Convergence criterion met
 Total energy in the final basis set =    -4921.6546198557
   14   -4921.6546209348      5.15e-07  Convergence criterion met
 Total energy in the final basis set =    -4921.6546209348
   14   -4921.6546223169      5.15e-07  Convergence criterion met
 Total energy in the final basis set =    -4921.6546223169
   14   -4921.6546234708      5.14e-07  Convergence criterion met
 Total energy in the final basis set =    -4921.6546234708

             Standard Nuclear Orientation (Angstroms)
    I     Atom           X                Y                Z
 ----------------------------------------------------------------
    1      Se      0.7849024381     0.2208789657     1.4467385843
    2      C       0.5430549276    -1.8672345966     0.0934855426
    3      C      -0.7756796411    -1.9370536453    -0.2833539780
    4      C      -1.8464621161    -2.6226639287     0.4968577460
    5      Se      0.4114674240     2.1773327012    -0.8325092045
    6      H      -0.9538010903     2.3895317543    -0.3067639773
    7      H       2.1990389798     0.3201897633     1.0397716816
    8      H       1.2765743114    -1.4947244118    -0.6130179556
    9      H       0.9155536499    -2.5087431448     0.8864266808
   10      H      -1.0846530040    -1.3821506288    -1.1672448489
   11      H      -1.4479265840    -3.1563738418     1.3640580861
   12      H      -2.5948180731    -1.8996741628     0.8503874541
   13      H      -2.3892512221    -3.3387148239    -0.1333338111
 ----------------------------------------------------------------

   14   -4921.6546240841      5.14e-07  Convergence criterion met
 Total energy in the final basis set =    -4921.6546240841

                    Orbital Energies (a.u.)
 --------------------------------------------------------------

 Alpha MOs
 -- Occupied --
*******-453.867 -58.109 -58.062 -52.167 -52.166 -52.165 -52.120
-52.119 -52.116 -10.233 -10.227 -10.208  -7.843  -7.796  -5.786
 -5.784  -5.778  -5.740  -5.738  -5.728  -2.120  -2.119  -2.114
 -2.113  -2.112  -2.074  -2.074  -2.065  -2.065  -2.062  -0.823
 -0.729  -0.700  -0.657  -0.589  -0.497  -0.452  -0.442  -0.403
 -0.390  -0.380  -0.350  -0.334  -0.296  -0.230  -0.211  -0.193

 Beta MOs
 -- Occupied --
*******-453.866 -58.108 -58.061 -52.165 -52.164 -52.162 -52.118
-52.117 -52.115 -10.229 -10.226 -10.208  -7.840  -7.793  -5.783
 -5.780  -5.774  -5.737  -5.733  -5.726  -2.116  -2.115  -2.111
 -2.108  -2.108  -2.070  -2.070  -2.064  -2.061  -2.060  -0.812
 -0.721  -0.676  -0.630  -0.581  -0.494  -0.450  -0.432  -0.399
 -0.383  -0.376  -0.341  -0.308  -0.256  -0.202

          Ground-State Mulliken Net Atomic Charges

     Atom                 Charge (a.u.)    Spin (a.u.)
  --------------------------------------------------------
      1 Se                   -0.053834       0.898614
      2 C                    -0.274080      -0.130166
      3 C                     0.000121       0.499584
      4 C                    -0.358386      -0.036352
      5 Se                   -0.274796       0.777254
      6 H                     0.054445      -0.020998
      7 H                     0.077537      -0.023904
      8 H                     0.153987       0.008672
      9 H                     0.142407       0.005848
     10 H                     0.134211      -0.022168
     11 H                     0.123884       0.000619
     12 H                     0.139127       0.024883
     13 H                     0.135378       0.018112
  --------------------------------------------------------
  Sum of atomic charges =    -0.000000

                    Cartesian Multipole Moments
 -----------------------------------------------------------------
    Charge (ESU x 10^10)
                 0.0000
    Dipole Moment (Debye)
         X      -1.0005      Y      -4.4504      Z       0.7153
       Tot       4.6172
    Quadrupole Moments (Debye-Ang)
        XX     -51.4158     XY      -0.7911     YY     -60.0761
        XZ      -0.1663     YZ       1.4601     ZZ     -61.3051

 Final energy is   -4921.65462408411
 **  OPTIMIZATION CONVERGED  **
 Total job time:  688.75s(wall), 8042.29s(cpu)
        *  Thank you very much for using Q-Chem.  Have a nice day.  *
