 Q-Chem 5.1, Q-Chem, Inc., Pleasanton, CA (2018)
 Q-Chem 5.1.1 for Intel X86 EM64T Linux

User input:
--------------------------------------------------------------

$comment
potential surface scanner
$end

$rem
JOBTYPE  PES_SCAN
UNRESTRICTED TRUE
SYM_IGNORE  TRUE
GEOM_OPT_MAX_CYCLES 400
SCF_MAX_CYCLES 400
METHOD   B3LYP
BASIS   6-31G**
PDB_PRINT 2
SCF_CONVERGENCE 6
THRESH 14
SCF_PRINT 1
$end
$molecule
0 1
Se 1.966752 0.443423 0.261241
C 0.542588 -1.192956 0.627330
C -0.671096 -1.055417 -0.268714
C -1.652732 -2.214202 -0.058811
Se -1.577845 0.717203 -0.066252
H -2.091970 0.441744 1.292511
H 3.141456 -0.459215 0.279485
H 1.116347 -2.097562 0.415729
H 0.311346 -1.123309 1.689424
H -0.350780 -1.024185 -1.313974
H -2.013859 -2.246684 0.974384
H -2.518852 -2.115998 -0.717431
H -1.163355 -3.172240 -0.273421
$end
$scan
stre 1 2 2.300000 2.301000 0.100000
$end
--------------------------------------------------------------

   10   -4921.7229646575      3.79e-07  Convergence criterion met
 Total energy in the final basis set =    -4921.7229646575
   10   -4921.7154849512      3.63e-07  Convergence criterion met
 Total energy in the final basis set =    -4921.7154849512
   10   -4921.7154574366      3.63e-07  Convergence criterion met
 Total energy in the final basis set =    -4921.7154574366
   10   -4921.7155127019      3.60e-07  Convergence criterion met
 Total energy in the final basis set =    -4921.7155127019
   10   -4921.7155145254      3.59e-07  Convergence criterion met
 Total energy in the final basis set =    -4921.7155145254

             Standard Nuclear Orientation (Angstroms)
    I     Atom           X                Y                Z
 ----------------------------------------------------------------
    1      Se      2.0210357352     0.4845798520     0.2479145866
    2      C       0.5236390173    -1.2173455284     0.6368269853
    3      C      -0.6780635826    -1.0620126710    -0.2643753539
    4      C      -1.6674906774    -2.2184011474    -0.0626711028
    5      Se     -1.5776667661     0.7125038298    -0.0609820219
    6      H      -2.0995687088     0.4342155946     1.2941800316
    7      H       3.1854298687    -0.4309114218     0.2726816397
    8      H       1.1151130037    -2.1082066942     0.4214304732
    9      H       0.3123889853    -1.1189235028     1.6995657105
   10      H      -0.3512193821    -1.0326244046    -1.3074282462
   11      H      -2.0366437254    -2.2501841845     0.9676075802
   12      H      -2.5275864882    -2.1136620727    -0.7281187494
   13      H      -1.1813672795    -3.1784256489    -0.2751305330
 ----------------------------------------------------------------

   10   -4921.7155152560      3.59e-07  Convergence criterion met
 Total energy in the final basis set =    -4921.7155152560

                    Orbital Energies (a.u.)
 --------------------------------------------------------------

 Alpha MOs
 -- Occupied --
*******-453.891 -58.093 -58.085 -52.150 -52.149 -52.147 -52.143
-52.142 -52.139 -10.242 -10.242 -10.200  -7.826  -7.818  -5.772
 -5.768  -5.763  -5.760  -5.758  -5.749  -2.105  -2.105  -2.097
 -2.097  -2.096  -2.094  -2.092  -2.087  -2.085  -2.083  -0.822
 -0.712  -0.696  -0.657  -0.586  -0.476  -0.448  -0.427  -0.414
 -0.387  -0.360  -0.359  -0.319  -0.289  -0.231  -0.224

 Beta MOs
 -- Occupied --
*******-453.891 -58.093 -58.085 -52.150 -52.149 -52.147 -52.143
-52.142 -52.139 -10.242 -10.242 -10.200  -7.826  -7.818  -5.772
 -5.768  -5.763  -5.760  -5.758  -5.749  -2.105  -2.105  -2.097
 -2.097  -2.096  -2.094  -2.092  -2.087  -2.085  -2.083  -0.822
 -0.712  -0.696  -0.657  -0.586  -0.476  -0.448  -0.427  -0.414
 -0.387  -0.360  -0.359  -0.319  -0.289  -0.231  -0.224

          Ground-State Mulliken Net Atomic Charges

     Atom                 Charge (a.u.)    Spin (a.u.)
  --------------------------------------------------------
      1 Se                   -0.117202       0.000000
      2 C                    -0.239653      -0.000000
      3 C                    -0.150972       0.000000
      4 C                    -0.316181       0.000000
      5 Se                   -0.062327      -0.000000
      6 H                     0.050009      -0.000000
      7 H                     0.041784       0.000000
      8 H                     0.136000      -0.000000
      9 H                     0.147441       0.000000
     10 H                     0.149155      -0.000000
     11 H                     0.113979       0.000000
     12 H                     0.137038      -0.000000
     13 H                     0.110928      -0.000000
  --------------------------------------------------------
  Sum of atomic charges =    -0.000000

                    Cartesian Multipole Moments
 -----------------------------------------------------------------
    Charge (ESU x 10^10)
                -0.0000
    Dipole Moment (Debye)
         X      -0.6671      Y      -3.0643      Z       0.5445
       Tot       3.1830
    Quadrupole Moments (Debye-Ang)
        XX     -58.0331     XY      -1.1966     YY     -55.1584
        XZ      -2.3893     YZ      -0.4944     ZZ     -57.3786

 Final energy is   -4921.71551525596
 **  OPTIMIZATION CONVERGED  **
 Total job time:  39.57s(wall), 456.31s(cpu)
        *  Thank you very much for using Q-Chem.  Have a nice day.  *
