 Q-Chem 5.1, Q-Chem, Inc., Pleasanton, CA (2018)
 Q-Chem 5.1.1 for Intel X86 EM64T Linux

User input:
--------------------------------------------------------------

$comment
potential surface scanner
$end

$rem
JOBTYPE  PES_SCAN
UNRESTRICTED TRUE
SYM_IGNORE  TRUE
GEOM_OPT_MAX_CYCLES 400
SCF_MAX_CYCLES 400
METHOD   B3LYP
BASIS   6-31G**
PDB_PRINT 2
SCF_CONVERGENCE 6
THRESH 14
SCF_PRINT 1
$end
$molecule
0 1
Se 1.870900 0.175900 -0.051900
C 0.575300 -1.200000 0.467400
C -0.687000 -1.059800 -0.385600
C -1.647200 -2.208000 -0.068200
Se -1.558500 0.649900 0.013200
H -1.851500 0.486400 1.536700
H 3.049900 -0.144000 0.918300
H 1.011300 -2.186800 0.311700
H 0.318200 -1.078300 1.519600
H -0.417700 -1.092800 -1.441300
H -1.916600 -2.175000 0.987500
H -2.546500 -2.108100 -0.675900
H -1.162600 -3.158800 -0.290000
$end
$scan
stre 1 2 1.900000 1.901000 0.100000
$end
--------------------------------------------------------------

   10   -4921.7171930318      4.57e-07  Convergence criterion met
 Total energy in the final basis set =    -4921.7171930318
   10   -4921.7254176079      4.64e-07  Convergence criterion met
 Total energy in the final basis set =    -4921.7254176079
   10   -4921.7262760628      4.44e-07  Convergence criterion met
 Total energy in the final basis set =    -4921.7262760628
   10   -4921.7267119068      4.38e-07  Convergence criterion met
 Total energy in the final basis set =    -4921.7267119068
   10   -4921.7269391829      4.35e-07  Convergence criterion met
 Total energy in the final basis set =    -4921.7269391829
   10   -4921.7272196029      4.33e-07  Convergence criterion met
 Total energy in the final basis set =    -4921.7272196029
   10   -4921.7218483422      4.35e-07  Convergence criterion met
 Total energy in the final basis set =    -4921.7218483422
   10   -4921.7277308057      4.23e-07  Convergence criterion met
   10   -4921.7278009024      4.20e-07  Convergence criterion met
 Total energy in the final basis set =    -4921.7278009024
   10   -4921.7275058933      4.32e-07  Convergence criterion met
 Total energy in the final basis set =    -4921.7275058933
   10   -4921.7280269705      4.24e-07  Convergence criterion met
 Total energy in the final basis set =    -4921.7280269705
   10   -4921.7280570094      4.24e-07  Convergence criterion met
 Total energy in the final basis set =    -4921.7280570094
   10   -4921.7280642286      4.24e-07  Convergence criterion met
 Total energy in the final basis set =    -4921.7280642286
   10   -4921.7280663096      4.24e-07  Convergence criterion met
 Total energy in the final basis set =    -4921.7280663096

             Standard Nuclear Orientation (Angstroms)
    I     Atom           X                Y                Z
 ----------------------------------------------------------------
    1      Se      1.8048693659     0.2981934868     0.1858357809
    2      C       0.5855890325    -1.1144358608     0.5433743170
    3      C      -0.6849305631    -1.0401611377    -0.3089097268
    4      C      -1.6168345407    -2.2242961944    -0.0504598974
    5      Se     -1.6409299511     0.7081896223    -0.0838159407
    6      H      -1.8485778270     0.5325692567     1.3659247945
    7      H       3.0011167277    -0.4795953996     0.5779227386
    8      H       1.0832381006    -2.0659492001     0.3293656518
    9      H       0.3145078513    -1.1193064516     1.6038127273
   10      H      -0.4080554808    -1.0059444510    -1.3675359787
   11      H      -1.9411113841    -2.2546614291     0.9948496238
   12      H      -2.5086114986    -2.1657133695    -0.6783929494
   13      H      -1.1022698324    -3.1682888719    -0.2704711410
 ----------------------------------------------------------------

   10   -4921.7280670325      4.24e-07  Convergence criterion met
 Total energy in the final basis set =    -4921.7280670325

                    Orbital Energies (a.u.)
 --------------------------------------------------------------

 Alpha MOs
 -- Occupied --
*******-453.892 -58.091 -58.087 -52.149 -52.148 -52.145 -52.145
-52.144 -52.141 -10.239 -10.224 -10.195  -7.824  -7.821  -5.770
 -5.767  -5.766  -5.763  -5.757  -5.753  -2.104  -2.103  -2.101
 -2.100  -2.095  -2.092  -2.092  -2.091  -2.089  -2.087  -0.827
 -0.744  -0.695  -0.647  -0.581  -0.472  -0.445  -0.439  -0.411
 -0.388  -0.360  -0.356  -0.328  -0.306  -0.233  -0.221

 Beta MOs
 -- Occupied --
*******-453.892 -58.091 -58.087 -52.149 -52.148 -52.145 -52.145
-52.144 -52.141 -10.239 -10.224 -10.195  -7.824  -7.821  -5.770
 -5.767  -5.766  -5.763  -5.757  -5.753  -2.104  -2.103  -2.101
 -2.100  -2.095  -2.092  -2.092  -2.091  -2.089  -2.087  -0.827
 -0.744  -0.695  -0.647  -0.581  -0.472  -0.445  -0.439  -0.411
 -0.388  -0.360  -0.356  -0.328  -0.306  -0.233  -0.221

          Ground-State Mulliken Net Atomic Charges

     Atom                 Charge (a.u.)    Spin (a.u.)
  --------------------------------------------------------
      1 Se                   -0.057076       0.000000
      2 C                    -0.243733       0.000000
      3 C                    -0.164595      -0.000000
      4 C                    -0.307972       0.000000
      5 Se                   -0.072582       0.000000
      6 H                     0.052491      -0.000000
      7 H                     0.038315       0.000000
      8 H                     0.130256      -0.000000
      9 H                     0.130184      -0.000000
     10 H                     0.143080      -0.000000
     11 H                     0.112898      -0.000000
     12 H                     0.131370      -0.000000
     13 H                     0.107364      -0.000000
  --------------------------------------------------------
  Sum of atomic charges =    -0.000000

                    Cartesian Multipole Moments
 -----------------------------------------------------------------
    Charge (ESU x 10^10)
                -0.0000
    Dipole Moment (Debye)
         X      -0.0889      Y      -2.7044      Z       0.7524
       Tot       2.8085
    Quadrupole Moments (Debye-Ang)
        XX     -58.1515     XY      -0.9209     YY     -55.8399
        XZ      -0.6355     YZ      -0.3495     ZZ     -56.4898

 Final energy is   -4921.72806703249
 **  OPTIMIZATION CONVERGED  **
 Total job time:  101.55s(wall), 1163.62s(cpu)
        *  Thank you very much for using Q-Chem.  Have a nice day.  *
