 Q-Chem 5.1, Q-Chem, Inc., Pleasanton, CA (2018)
 Q-Chem 5.1.1 for Intel X86 EM64T Linux

User input:
--------------------------------------------------------------

$comment
potential surface scanner
$end

$rem
JOBTYPE  PES_SCAN
UNRESTRICTED TRUE
SYM_IGNORE  TRUE
GEOM_OPT_MAX_CYCLES 400
SCF_MAX_CYCLES 400
METHOD   B3LYP
BASIS   6-31G**
PDB_PRINT 2
SCF_CONVERGENCE 6
THRESH 14
SCF_PRINT 1
$end
$molecule
0 3
Se 0.784902 0.220879 1.446739
C 0.543055 -1.867235 0.093486
C -0.775680 -1.937054 -0.283354
C -1.846462 -2.622664 0.496858
Se 0.411467 2.177333 -0.832509
H -0.953801 2.389532 -0.306764
H 2.199039 0.320190 1.039772
H 1.276574 -1.494724 -0.613018
H 0.915554 -2.508743 0.886427
H -1.084653 -1.382151 -1.167245
H -1.447927 -3.156374 1.364058
H -2.594818 -1.899674 0.850387
H -2.389251 -3.338715 -0.133334
$end
$scan
stre 1 2 2.400000 2.401000 0.100000
$end
--------------------------------------------------------------

   14   -4921.6546240879      5.14e-07  Convergence criterion met
 Total energy in the final basis set =    -4921.6546240879
   14   -4921.6532045495      3.20e-07  Convergence criterion met
 Total energy in the final basis set =    -4921.6532045495
   14   -4921.6534204463      3.20e-07  Convergence criterion met
 Total energy in the final basis set =    -4921.6534204463
   14   -4921.6537248658      3.28e-07  Convergence criterion met
 Total energy in the final basis set =    -4921.6537248658
   14   -4921.6537317856      3.30e-07  Convergence criterion met
 Total energy in the final basis set =    -4921.6537317856
   14   -4921.6537481550      3.38e-07  Convergence criterion met
 Total energy in the final basis set =    -4921.6537481550
   14   -4921.6537528030      3.42e-07  Convergence criterion met
 Total energy in the final basis set =    -4921.6537528030
   14   -4921.6537564255      3.45e-07  Convergence criterion met
 Total energy in the final basis set =    -4921.6537564255
   14   -4921.6537576167      3.46e-07  Convergence criterion met
 Total energy in the final basis set =    -4921.6537576167

             Standard Nuclear Orientation (Angstroms)
    I     Atom           X                Y                Z
 ----------------------------------------------------------------
    1      Se      0.7906309730     0.1592280975     1.4740558670
    2      C       0.5499357339    -1.8075451457     0.1198517411
    3      C      -0.7793704844    -1.8942126106    -0.2748599936
    4      C      -1.8391787061    -2.6079170432     0.4931609429
    5      Se      0.3774661902     2.0770704544    -0.8928155114
    6      H      -0.9697914189     2.3317965994    -0.3398674757
    7      H       2.2066803134     0.2904822180     1.0812560639
    8      H       1.2754885878    -1.4558777033    -0.6062539671
    9      H       0.9233713135    -2.5068818359     0.8625224125
   10      H      -1.0910216973    -1.3123684622    -1.1398438278
   11      H      -1.4304913911    -3.1700197062     1.3374812951
   12      H      -2.5861028616    -1.8999367846     0.8805062346
   13      H      -2.3896175523    -3.3032180776    -0.1536907815
 ----------------------------------------------------------------

   14   -4921.6537582794      3.46e-07  Convergence criterion met
 Total energy in the final basis set =    -4921.6537582794

                    Orbital Energies (a.u.)
 --------------------------------------------------------------

 Alpha MOs
 -- Occupied --
*******-453.866 -58.109 -58.061 -52.167 -52.166 -52.165 -52.119
-52.118 -52.115 -10.234 -10.233 -10.208  -7.843  -7.794  -5.787
 -5.784  -5.778  -5.739  -5.737  -5.726  -2.120  -2.119  -2.114
 -2.113  -2.112  -2.073  -2.073  -2.064  -2.063  -2.060  -0.824
 -0.732  -0.697  -0.656  -0.590  -0.498  -0.453  -0.443  -0.404
 -0.390  -0.381  -0.350  -0.338  -0.293  -0.223  -0.209  -0.196

 Beta MOs
 -- Occupied --
*******-453.864 -58.108 -58.060 -52.165 -52.164 -52.163 -52.117
-52.116 -52.114 -10.235 -10.225 -10.209  -7.840  -7.792  -5.784
 -5.780  -5.774  -5.736  -5.732  -5.725  -2.117  -2.116  -2.111
 -2.108  -2.108  -2.069  -2.068  -2.062  -2.059  -2.058  -0.812
 -0.724  -0.676  -0.630  -0.581  -0.494  -0.450  -0.432  -0.400
 -0.383  -0.378  -0.341  -0.314  -0.255  -0.201

          Ground-State Mulliken Net Atomic Charges

     Atom                 Charge (a.u.)    Spin (a.u.)
  --------------------------------------------------------
      1 Se                   -0.046411       0.808430
      2 C                    -0.280732      -0.146875
      3 C                    -0.006203       0.615098
      4 C                    -0.357950      -0.045412
      5 Se                   -0.283589       0.765388
      6 H                     0.054092      -0.020622
      7 H                     0.077191      -0.020098
      8 H                     0.159738       0.010378
      9 H                     0.145890       0.006669
     10 H                     0.139002      -0.027224
     11 H                     0.123315       0.000895
     12 H                     0.139831       0.031445
     13 H                     0.135828       0.021929
  --------------------------------------------------------
  Sum of atomic charges =     0.000000

                    Cartesian Multipole Moments
 -----------------------------------------------------------------
    Charge (ESU x 10^10)
                -0.0000
    Dipole Moment (Debye)
         X      -0.9323      Y      -4.4594      Z       0.8036
       Tot       4.6262
    Quadrupole Moments (Debye-Ang)
        XX     -51.4599     XY      -0.8269     YY     -59.5632
        XZ      -0.1701     YZ       1.6041     ZZ     -61.5032

 Final energy is   -4921.65375827938
 **  OPTIMIZATION CONVERGED  **
 Total job time:  75.22s(wall), 880.00s(cpu)
        *  Thank you very much for using Q-Chem.  Have a nice day.  *
