 Q-Chem 5.1, Q-Chem, Inc., Pleasanton, CA (2018)
 Q-Chem 5.1.1 for Intel X86 EM64T Linux

User input:
--------------------------------------------------------------

$comment
potential surface scanner
$end

$rem
JOBTYPE  PES_SCAN
UNRESTRICTED TRUE
SYM_IGNORE  TRUE
GEOM_OPT_MAX_CYCLES 400
SCF_MAX_CYCLES 400
METHOD   B3LYP
BASIS   6-31G**
PDB_PRINT 2
SCF_CONVERGENCE 6
THRESH 14
SCF_PRINT 1
$end
$molecule
0 3
Se 1.600471 0.150294 1.108124
C 0.515040 -2.105965 -0.145329
C -0.775317 -1.940241 -0.455202
C -1.931691 -2.309819 0.427868
Se -0.185505 2.086757 0.150247
H -0.931822 0.905816 -0.332514
H 2.388390 1.306373 1.624788
H 1.303480 -1.878671 -0.854903
H 0.816837 -2.578134 0.785703
H -1.029909 -1.511168 -1.425489
H -1.591293 -2.729179 1.378927
H -2.568524 -1.442824 0.643165
H -2.572157 -3.052640 -0.063883
$end
$scan
stre 1 2 2.700000 2.701000 0.100000
$end
--------------------------------------------------------------

   11   -4921.6577632218      6.66e-07  Convergence criterion met
 Total energy in the final basis set =    -4921.6577632218
   11   -4921.6541217489      7.95e-07  Convergence criterion met
 Total energy in the final basis set =    -4921.6541217489
   11   -4921.6541828712      8.20e-07  Convergence criterion met
 Total energy in the final basis set =    -4921.6541828712
   11   -4921.6542202322      8.18e-07  Convergence criterion met
 Total energy in the final basis set =    -4921.6542202322
   11   -4921.6542434513      8.09e-07  Convergence criterion met
 Total energy in the final basis set =    -4921.6542434513
   11   -4921.6542502494      8.03e-07  Convergence criterion met
 Total energy in the final basis set =    -4921.6542502494
   11   -4921.6542528656      8.00e-07  Convergence criterion met
 Total energy in the final basis set =    -4921.6542528656
   11   -4921.6542542093      7.98e-07  Convergence criterion met
 Total energy in the final basis set =    -4921.6542542093

             Standard Nuclear Orientation (Angstroms)
    I     Atom           X                Y                Z
 ----------------------------------------------------------------
    1      Se      1.5571138347     0.0915295569     1.0906854282
    2      C       0.5305265512    -2.0815206819    -0.1397504042
    3      C      -0.7606649499    -1.9217414426    -0.4528518509
    4      C      -1.9160184832    -2.2849793326     0.4337240361
    5      Se     -0.2103248671     2.0506976907     0.1493333865
    6      H      -0.9644197149     0.8792861715    -0.3434407450
    7      H       2.3541386584     1.2414656585     1.6174022127
    8      H       1.3176093710    -1.8694594412    -0.8552442385
    9      H       0.8293810092    -2.5644533716     0.7864100045
   10      H      -1.0147341563    -1.4954754928    -1.4244140525
   11      H      -1.5749732927    -2.6937969180     1.3890220105
   12      H      -2.5542233271    -1.4171810379     0.6411733211
   13      H      -2.5554106334    -3.0337723591    -0.0505471086
 ----------------------------------------------------------------

   11   -4921.6542550549      7.96e-07  Convergence criterion met
 Total energy in the final basis set =    -4921.6542550549

                    Orbital Energies (a.u.)
 --------------------------------------------------------------

 Alpha MOs
 -- Occupied --
*******-453.911 -58.107 -58.106 -52.164 -52.164 -52.163 -52.162
-52.162 -52.162 -10.202 -10.191 -10.188  -7.841  -7.840  -5.783
 -5.781  -5.781  -5.779  -5.779  -5.779  -2.116  -2.115  -2.114
 -2.114  -2.113  -2.113  -2.111  -2.111  -2.110  -2.110  -0.795
 -0.725  -0.696  -0.681  -0.565  -0.476  -0.431  -0.422  -0.397
 -0.380  -0.374  -0.356  -0.325  -0.289  -0.259  -0.251  -0.192

 Beta MOs
 -- Occupied --
*******-453.909 -58.106 -58.104 -52.163 -52.161 -52.161 -52.160
-52.159 -52.159 -10.202 -10.191 -10.187  -7.837  -7.836  -5.781
 -5.779  -5.775  -5.774  -5.773  -5.773  -2.113  -2.112  -2.111
 -2.110  -2.110  -2.109  -2.106  -2.106  -2.105  -2.105  -0.795
 -0.700  -0.687  -0.647  -0.565  -0.476  -0.431  -0.421  -0.388
 -0.378  -0.364  -0.355  -0.281  -0.257  -0.239

          Ground-State Mulliken Net Atomic Charges

     Atom                 Charge (a.u.)    Spin (a.u.)
  --------------------------------------------------------
      1 Se                   -0.053381       1.050780
      2 C                    -0.271788       0.004174
      3 C                    -0.030945      -0.002253
      4 C                    -0.349534       0.000442
      5 Se                   -0.100651       1.004130
      6 H                     0.070724      -0.027216
      7 H                     0.036146      -0.029897
      8 H                     0.125342       0.000229
      9 H                     0.120931      -0.000785
     10 H                     0.092850       0.000377
     11 H                     0.117208      -0.000051
     12 H                     0.120341       0.000210
     13 H                     0.122758      -0.000141
  --------------------------------------------------------
  Sum of atomic charges =     0.000000

                    Cartesian Multipole Moments
 -----------------------------------------------------------------
    Charge (ESU x 10^10)
                -0.0000
    Dipole Moment (Debye)
         X      -0.5523      Y      -1.2109      Z      -0.2502
       Tot       1.3542
    Quadrupole Moments (Debye-Ang)
        XX     -55.7349     XY       3.1564     YY     -59.0305
        XZ       0.9663     YZ       0.5146     ZZ     -57.9420

 Final energy is   -4921.65425505494
 **  OPTIMIZATION CONVERGED  **
 Total job time:  58.59s(wall), 675.71s(cpu)
        *  Thank you very much for using Q-Chem.  Have a nice day.  *
