 Q-Chem 5.1, Q-Chem, Inc., Pleasanton, CA (2018)
 Q-Chem 5.1.1 for Intel X86 EM64T Linux

User input:
--------------------------------------------------------------

$comment
potential surface scanner
$end

$rem
JOBTYPE  PES_SCAN
UNRESTRICTED TRUE
SYM_IGNORE  TRUE
GEOM_OPT_MAX_CYCLES 400
SCF_MAX_CYCLES 400
METHOD   B3LYP
BASIS   6-31G**
PDB_PRINT 2
SCF_CONVERGENCE 6
THRESH 14
SCF_PRINT 1
$end
$molecule
0 3
Se 1.557114 0.091530 1.090685
C 0.530527 -2.081521 -0.139750
C -0.760665 -1.921741 -0.452852
C -1.916018 -2.284979 0.433724
Se -0.210325 2.050698 0.149333
H -0.964420 0.879286 -0.343441
H 2.354139 1.241466 1.617402
H 1.317609 -1.869459 -0.855244
H 0.829381 -2.564453 0.786410
H -1.014734 -1.495475 -1.424414
H -1.574973 -2.693797 1.389022
H -2.554223 -1.417181 0.641173
H -2.555411 -3.033772 -0.050547
$end
$scan
stre 1 2 2.600000 2.601000 0.100000
$end
--------------------------------------------------------------

   11   -4921.6542550601      7.96e-07  Convergence criterion met
 Total energy in the final basis set =    -4921.6542550601
   11   -4921.6494813584      9.45e-07  Convergence criterion met
 Total energy in the final basis set =    -4921.6494813584
   11   -4921.6494774929      9.53e-07  Convergence criterion met
 Total energy in the final basis set =    -4921.6494774929
   11   -4921.6495445992      9.57e-07  Convergence criterion met
 Total energy in the final basis set =    -4921.6495445992
   11   -4921.6495547555      9.54e-07  Convergence criterion met
 Total energy in the final basis set =    -4921.6495547555
   11   -4921.6495751165      9.42e-07  Convergence criterion met
 Total energy in the final basis set =    -4921.6495751165
   11   -4921.6495783793      9.39e-07  Convergence criterion met
 Total energy in the final basis set =    -4921.6495783793
   11   -4921.6495800233      9.37e-07  Convergence criterion met
 Total energy in the final basis set =    -4921.6495800233
   11   -4921.6495812686      9.37e-07  Convergence criterion met
 Total energy in the final basis set =    -4921.6495812686
   11   -4921.6495826511      9.36e-07  Convergence criterion met
 Total energy in the final basis set =    -4921.6495826511

             Standard Nuclear Orientation (Angstroms)
    I     Atom           X                Y                Z
 ----------------------------------------------------------------
    1      Se      1.5167645620     0.0360575208     1.0718960192
    2      C       0.5450358971    -2.0553453748    -0.1288450668
    3      C      -0.7469067280    -1.9026735337    -0.4477908655
    4      C      -1.9027478186    -2.2649376666     0.4382152325
    5      Se     -0.2302545342     2.0213102162     0.1487766304
    6      H      -0.9952639639     0.8609010588    -0.3533838444
    7      H       2.3257609209     1.1833172968     1.6005938262
    8      H       1.3310970962    -1.8619581868    -0.8507400414
    9      H       0.8390290871    -2.5544670373     0.7899777440
   10      H      -0.9990570120    -1.4763695655    -1.4197394144
   11      H      -1.5623936233    -2.6695236501     1.3955491897
   12      H      -2.5439860846    -1.3983885178     0.6415690633
   13      H      -2.5390767989    -3.0173205600    -0.0445774727
 ----------------------------------------------------------------

   11   -4921.6495835413      9.35e-07  Convergence criterion met
 Total energy in the final basis set =    -4921.6495835413

                    Orbital Energies (a.u.)
 --------------------------------------------------------------

 Alpha MOs
 -- Occupied --
*******-453.910 -58.106 -58.105 -52.163 -52.163 -52.162 -52.161
-52.161 -52.161 -10.204 -10.192 -10.189  -7.840  -7.838  -5.782
 -5.780  -5.780  -5.779  -5.778  -5.777  -2.115  -2.114  -2.113
 -2.113  -2.112  -2.111  -2.111  -2.111  -2.109  -2.109  -0.797
 -0.725  -0.698  -0.679  -0.567  -0.478  -0.433  -0.423  -0.396
 -0.381  -0.373  -0.358  -0.324  -0.288  -0.258  -0.249  -0.191

 Beta MOs
 -- Occupied --
*******-453.908 -58.105 -58.103 -52.162 -52.160 -52.160 -52.159
-52.158 -52.158 -10.204 -10.192 -10.189  -7.837  -7.835  -5.780
 -5.778  -5.774  -5.773  -5.772  -5.772  -2.112  -2.110  -2.110
 -2.109  -2.108  -2.108  -2.105  -2.105  -2.104  -2.103  -0.797
 -0.702  -0.686  -0.646  -0.566  -0.477  -0.432  -0.422  -0.387
 -0.379  -0.364  -0.357  -0.281  -0.256  -0.237

          Ground-State Mulliken Net Atomic Charges

     Atom                 Charge (a.u.)    Spin (a.u.)
  --------------------------------------------------------
      1 Se                   -0.043701       1.053514
      2 C                    -0.283026       0.004936
      3 C                    -0.029222      -0.001386
      4 C                    -0.349442       0.000438
      5 Se                   -0.103393       0.998631
      6 H                     0.068504      -0.027038
      7 H                     0.029022      -0.029413
      8 H                     0.129529       0.000669
      9 H                     0.125470      -0.000983
     10 H                     0.094127       0.000423
     11 H                     0.117590      -0.000057
     12 H                     0.121167       0.000388
     13 H                     0.123373      -0.000122
  --------------------------------------------------------
  Sum of atomic charges =     0.000000

                    Cartesian Multipole Moments
 -----------------------------------------------------------------
    Charge (ESU x 10^10)
                 0.0000
    Dipole Moment (Debye)
         X      -0.5758      Y      -1.3732      Z      -0.3064
       Tot       1.5202
    Quadrupole Moments (Debye-Ang)
        XX     -55.8092     XY       2.9962     YY     -59.0044
        XZ       0.8447     YZ       0.4183     ZZ     -58.0136

 Final energy is   -4921.64958354126
 **  OPTIMIZATION CONVERGED  **
 Total job time:  71.26s(wall), 831.61s(cpu)
        *  Thank you very much for using Q-Chem.  Have a nice day.  *
