 Q-Chem 5.1, Q-Chem, Inc., Pleasanton, CA (2018)
 Q-Chem 5.1.1 for Intel X86 EM64T Linux

User input:
--------------------------------------------------------------

$comment
potential surface scanner
$end

$rem
JOBTYPE  PES_SCAN
UNRESTRICTED TRUE
SYM_IGNORE  TRUE
GEOM_OPT_MAX_CYCLES 400
SCF_MAX_CYCLES 400
METHOD   B3LYP
BASIS   6-31G**
PDB_PRINT 2
SCF_CONVERGENCE 6
THRESH 14
SCF_PRINT 1
$end
$molecule
0 1
Se 2.021036 0.484580 0.247915
C 0.523639 -1.217346 0.636827
C -0.678064 -1.062013 -0.264375
C -1.667491 -2.218401 -0.062671
Se -1.577667 0.712504 -0.060982
H -2.099569 0.434216 1.294180
H 3.185430 -0.430911 0.272682
H 1.115113 -2.108207 0.421430
H 0.312389 -1.118924 1.699566
H -0.351219 -1.032624 -1.307428
H -2.036644 -2.250184 0.967608
H -2.527586 -2.113662 -0.728119
H -1.181367 -3.178426 -0.275131
$end
$scan
stre 1 2 2.400000 2.401000 0.100000
$end
--------------------------------------------------------------

   10   -4921.7155152097      3.59e-07  Convergence criterion met
 Total energy in the final basis set =    -4921.7155152097
   10   -4921.7071267886      3.67e-07  Convergence criterion met
 Total energy in the final basis set =    -4921.7071267886
   10   -4921.7070506423      3.68e-07  Convergence criterion met
 Total energy in the final basis set =    -4921.7070506423
   10   -4921.7071091173      3.69e-07  Convergence criterion met
 Total energy in the final basis set =    -4921.7071091173
   10   -4921.7071116872      3.69e-07  Convergence criterion met
 Total energy in the final basis set =    -4921.7071116872
   10   -4921.7071139424      3.69e-07  Convergence criterion met
 Total energy in the final basis set =    -4921.7071139424
   10   -4921.7071170445      3.68e-07  Convergence criterion met
 Total energy in the final basis set =    -4921.7071170445
   10   -4921.7071342631      3.67e-07  Convergence criterion met
 Total energy in the final basis set =    -4921.7071342631
   10   -4921.7033313617      3.85e-07  Convergence criterion met
 Total energy in the final basis set =    -4921.7033313617
   10   -4921.7071635318      3.67e-07  Convergence criterion met
 Total energy in the final basis set =    -4921.7071635318
   10   -4921.7068540218      3.65e-07  Convergence criterion met
 Total energy in the final basis set =    -4921.7068540218
   10   -4921.7071878551      3.66e-07  Convergence criterion met
 Total energy in the final basis set =    -4921.7071878551
   10   -4921.7071907939      3.66e-07  Convergence criterion met
 Total energy in the final basis set =    -4921.7071907939

             Standard Nuclear Orientation (Angstroms)
    I     Atom           X                Y                Z
 ----------------------------------------------------------------
    1      Se      2.1231190105     0.4928229172     0.1527554671
    2      C       0.4999274893    -1.2065020323     0.6401400925
    3      C      -0.6969246318    -1.0493791921    -0.2590560336
    4      C      -1.6662149753    -2.2281062123    -0.0727050680
    5      Se     -1.6211675879     0.7070679149    -0.0324972573
    6      H      -2.1374241685     0.4064504850     1.3196845150
    7      H       3.2193746922    -0.4865962294     0.3309767939
    8      H       1.0892844218    -2.1023698178     0.4449162217
    9      H       0.3232800944    -1.0417578947     1.6999118687
   10      H      -0.3714729892    -1.0049897021    -1.3017348502
   11      H      -2.0348981378    -2.2823081132     0.9566707478
   12      H      -2.5273183743    -2.1287224848    -0.7376640245
   13      H      -1.1615648434    -3.1750076383    -0.2998964732
 ----------------------------------------------------------------

   10   -4921.7071916256      3.66e-07  Convergence criterion met
 Total energy in the final basis set =    -4921.7071916256

                    Orbital Energies (a.u.)
 --------------------------------------------------------------

 Alpha MOs
 -- Occupied --
*******-453.890 -58.094 -58.084 -52.151 -52.150 -52.147 -52.142
-52.141 -52.138 -10.247 -10.244 -10.202  -7.827  -7.816  -5.773
 -5.769  -5.761  -5.759  -5.759  -5.748  -2.106  -2.106  -2.097
 -2.095  -2.095  -2.094  -2.093  -2.086  -2.084  -2.082  -0.823
 -0.709  -0.698  -0.658  -0.588  -0.477  -0.451  -0.427  -0.414
 -0.388  -0.362  -0.359  -0.319  -0.283  -0.232  -0.222

 Beta MOs
 -- Occupied --
*******-453.890 -58.094 -58.084 -52.151 -52.150 -52.147 -52.142
-52.141 -52.138 -10.247 -10.244 -10.202  -7.827  -7.816  -5.773
 -5.769  -5.761  -5.759  -5.759  -5.748  -2.106  -2.106  -2.097
 -2.095  -2.095  -2.094  -2.093  -2.086  -2.084  -2.082  -0.823
 -0.709  -0.698  -0.658  -0.588  -0.477  -0.451  -0.427  -0.414
 -0.388  -0.362  -0.359  -0.319  -0.283  -0.232  -0.222

          Ground-State Mulliken Net Atomic Charges

     Atom                 Charge (a.u.)    Spin (a.u.)
  --------------------------------------------------------
      1 Se                   -0.144768      -0.000000
      2 C                    -0.225065      -0.000000
      3 C                    -0.153760       0.000000
      4 C                    -0.317289      -0.000000
      5 Se                   -0.060298      -0.000000
      6 H                     0.049887      -0.000000
      7 H                     0.044027       0.000000
      8 H                     0.137935      -0.000000
      9 H                     0.151238       0.000000
     10 H                     0.152678      -0.000000
     11 H                     0.114837       0.000000
     12 H                     0.138464       0.000000
     13 H                     0.112114       0.000000
  --------------------------------------------------------
  Sum of atomic charges =    -0.000000

                    Cartesian Multipole Moments
 -----------------------------------------------------------------
    Charge (ESU x 10^10)
                -0.0000
    Dipole Moment (Debye)
         X      -0.8636      Y      -3.1628      Z       0.6800
       Tot       3.3483
    Quadrupole Moments (Debye-Ang)
        XX     -58.6070     XY      -1.3141     YY     -55.0797
        XZ      -1.9423     YZ      -0.7795     ZZ     -57.1947

 Final energy is   -4921.70719162561
 **  OPTIMIZATION CONVERGED  **
 Total job time:  89.97s(wall), 1056.42s(cpu)
        *  Thank you very much for using Q-Chem.  Have a nice day.  *
