 Q-Chem 5.1, Q-Chem, Inc., Pleasanton, CA (2018)
 Q-Chem 5.1.1 for Intel X86 EM64T Linux

User input:
--------------------------------------------------------------

$comment
potential surface scanner
$end

$rem
JOBTYPE  PES_SCAN
UNRESTRICTED TRUE
SYM_IGNORE  TRUE
GEOM_OPT_MAX_CYCLES 400
SCF_MAX_CYCLES 400
METHOD   B3LYP
BASIS   6-31G**
PDB_PRINT 2
SCF_CONVERGENCE 6
THRESH 14
SCF_PRINT 1
$end
$molecule
0 3
Se 3.606530 2.141289 -0.017329
C 0.209602 -2.395401 0.590390
C -0.749440 -1.677946 -0.224177
C -2.218227 -2.007250 0.012580
Se -0.443140 0.397960 0.105574
H -0.656140 0.278133 1.558561
H 2.351176 1.340220 -0.011160
H 1.248430 -2.471814 0.290019
H -0.049852 -2.697021 1.600921
H -0.494293 -1.702967 -1.286879
H -2.486972 -1.883962 1.066707
H -2.873263 -1.368120 -0.582773
H -2.406413 -3.052521 -0.260931
$end
$scan
stre 1 2 5.600000 5.601000 0.100000
$end
--------------------------------------------------------------

   11   -4921.6404740064      6.26e-07  Convergence criterion met
 Total energy in the final basis set =    -4921.6404740064
   11   -4921.6404612751      6.12e-07  Convergence criterion met
 Total energy in the final basis set =    -4921.6404612751
   11   -4921.6404760674      6.16e-07  Convergence criterion met
 Total energy in the final basis set =    -4921.6404760674
   11   -4921.6404858438      6.28e-07  Convergence criterion met
 Total energy in the final basis set =    -4921.6404858438
   11   -4921.6404887682      6.37e-07  Convergence criterion met
 Total energy in the final basis set =    -4921.6404887682
   11   -4921.6404933934      6.58e-07  Convergence criterion met
 Total energy in the final basis set =    -4921.6404933934
   11   -4921.6404953720      6.68e-07  Convergence criterion met
 Total energy in the final basis set =    -4921.6404953720
   11   -4921.6404966880      6.75e-07  Convergence criterion met
 Total energy in the final basis set =    -4921.6404966880

             Standard Nuclear Orientation (Angstroms)
    I     Atom           X                Y                Z
 ----------------------------------------------------------------
    1      Se      3.5830213282     2.0716329834    -0.0101517009
    2      C       0.2235240655    -2.3688648065     0.5863026838
    3      C      -0.7463139743    -1.6618168696    -0.2255663425
    4      C      -2.2104516174    -2.0097800304     0.0130248372
    5      Se     -0.4622377246     0.4146442891     0.1065891304
    6      H      -0.6722321725     0.2914414834     1.5594366619
    7      H       2.3224478821     1.2784796615    -0.0067331869
    8      H       1.2624119703    -2.4330108367     0.2839641609
    9      H      -0.0292681741    -2.6722643465     1.5981041557
   10      H      -0.4932031027    -1.6833591102    -1.2887918539
   11      H      -2.4788803582    -1.8934339553     1.0677153089
   12      H      -2.8744106717    -1.3767663889    -0.5789610235
   13      H      -2.3864094507    -3.0563020733    -0.2634298311
 ----------------------------------------------------------------

   11   -4921.6404974560      6.78e-07  Convergence criterion met
 Total energy in the final basis set =    -4921.6404974560

                    Orbital Energies (a.u.)
 --------------------------------------------------------------

 Alpha MOs
 -- Occupied --
*******-453.898 -58.102 -58.094 -52.161 -52.158 -52.155 -52.151
-52.150 -52.148 -10.242 -10.209 -10.196  -7.835  -7.827  -5.784
 -5.777  -5.772  -5.769  -5.765  -5.759  -2.116  -2.115  -2.106
 -2.106  -2.105  -2.101  -2.099  -2.097  -2.095  -2.093  -0.816
 -0.701  -0.695  -0.690  -0.584  -0.481  -0.439  -0.431  -0.389
 -0.382  -0.378  -0.361  -0.337  -0.286  -0.243  -0.242  -0.206

 Beta MOs
 -- Occupied --
*******-453.898 -58.101 -58.093 -52.157 -52.157 -52.154 -52.151
-52.150 -52.147 -10.244 -10.197 -10.195  -7.832  -7.826  -5.775
 -5.775  -5.771  -5.767  -5.764  -5.759  -2.110  -2.110  -2.105
 -2.104  -2.101  -2.100  -2.098  -2.096  -2.094  -2.093  -0.809
 -0.693  -0.673  -0.660  -0.576  -0.476  -0.436  -0.426  -0.386
 -0.378  -0.369  -0.358  -0.318  -0.235  -0.230

          Ground-State Mulliken Net Atomic Charges

     Atom                 Charge (a.u.)    Spin (a.u.)
  --------------------------------------------------------
      1 Se                   -0.116350       1.025931
      2 C                    -0.197653       0.925270
      3 C                    -0.149650      -0.114156
      4 C                    -0.307691       0.007244
      5 Se                   -0.116632       0.259958
      6 H                     0.060851      -0.006433
      7 H                     0.095309      -0.026568
      8 H                     0.120121      -0.040797
      9 H                     0.111879      -0.041032
     10 H                     0.137870       0.012101
     11 H                     0.115053      -0.000936
     12 H                     0.128946       0.000943
     13 H                     0.117946      -0.001526
  --------------------------------------------------------
  Sum of atomic charges =    -0.000000

                    Cartesian Multipole Moments
 -----------------------------------------------------------------
    Charge (ESU x 10^10)
                -0.0000
    Dipole Moment (Debye)
         X      -1.7584      Y      -2.5320      Z       0.3500
       Tot       3.1025
    Quadrupole Moments (Debye-Ang)
        XX     -63.0803     XY      -1.8198     YY     -57.9498
        XZ      -1.4613     YZ       1.4724     ZZ     -56.4499

 Final energy is   -4921.64049745599
 **  OPTIMIZATION CONVERGED  **
 Total job time:  55.78s(wall), 641.58s(cpu)
        *  Thank you very much for using Q-Chem.  Have a nice day.  *
