 Q-Chem 5.1, Q-Chem, Inc., Pleasanton, CA (2018)
 Q-Chem 5.1.1 for Intel X86 EM64T Linux

User input:
--------------------------------------------------------------

$comment
potential surface scanner
$end

$rem
JOBTYPE  PES_SCAN
UNRESTRICTED TRUE
SYM_IGNORE  TRUE
GEOM_OPT_MAX_CYCLES 400
SCF_MAX_CYCLES 400
METHOD   B3LYP
BASIS   6-31G**
PDB_PRINT 2
SCF_CONVERGENCE 6
THRESH 14
SCF_PRINT 1
$end
$molecule
0 1
Se 1.850917 0.347966 0.180526
C 0.567212 -1.139423 0.554393
C -0.690291 -1.049486 -0.304663
C -1.632739 -2.228968 -0.055298
Se -1.634690 0.704085 -0.081614
H -1.850958 0.528531 1.366913
H 3.033689 -0.454809 0.563974
H 1.091868 -2.074236 0.337419
H 0.316832 -1.118734 1.617565
H -0.406560 -1.016734 -1.361296
H -1.964413 -2.259713 0.987632
H -2.519554 -2.162023 -0.689489
H -1.123315 -3.175853 -0.274562
$end
$scan
stre 1 2 2.100000 2.101000 0.100000
$end
--------------------------------------------------------------

    9   -4921.7306108820      9.07e-07  Convergence criterion met
 Total energy in the final basis set =    -4921.7306108820
   10   -4921.7280129213      3.95e-07  Convergence criterion met
 Total energy in the final basis set =    -4921.7280129213
   10   -4921.7281346502      3.94e-07  Convergence criterion met
 Total energy in the final basis set =    -4921.7281346502
   10   -4921.7281864190      3.92e-07  Convergence criterion met
 Total energy in the final basis set =    -4921.7281864190
   10   -4921.7281906391      3.91e-07  Convergence criterion met
 Total energy in the final basis set =    -4921.7281906391
   10   -4921.7281993613      3.90e-07  Convergence criterion met
 Total energy in the final basis set =    -4921.7281993613
   10   -4921.7282569722      3.86e-07  Convergence criterion met
 Total energy in the final basis set =    -4921.7282569722
   10   -4921.7277152601      3.82e-07  Convergence criterion met
   10   -4921.7283195720      4.07e-07  Convergence criterion met
 Total energy in the final basis set =    -4921.7283195720
   10   -4921.7284199014      3.95e-07  Convergence criterion met
 Total energy in the final basis set =    -4921.7284199014
   10   -4921.7284411760      3.97e-07  Convergence criterion met
 Total energy in the final basis set =    -4921.7284411760
   10   -4921.7283395770      4.10e-07  Convergence criterion met
 Total energy in the final basis set =    -4921.7283395770
   10   -4921.7284747747      4.00e-07  Convergence criterion met
 Total energy in the final basis set =    -4921.7284747747
   10   -4921.7284787389      4.02e-07  Convergence criterion met
 Total energy in the final basis set =    -4921.7284787389

             Standard Nuclear Orientation (Angstroms)
    I     Atom           X                Y                Z
 ----------------------------------------------------------------
    1      Se      1.9186328786     0.3978150152     0.2697709610
    2      C       0.5607889736    -1.1655085992     0.6194551559
    3      C      -0.6653194123    -1.0468798946    -0.2715781888
    4      C      -1.6369923180    -2.2105373832    -0.0555942644
    5      Se     -1.5821534308     0.7217695833    -0.0690583769
    6      H      -2.0894561589     0.4466088896     1.2924168175
    7      H       3.1019136158    -0.4928830842     0.2853305553
    8      H       1.1135419142    -2.0851023518     0.4115579336
    9      H       0.3093042205    -1.1206569863     1.6795906273
   10      H      -0.3509231891    -1.0135275185    -1.3188881927
   11      H      -1.9914457565    -2.2457653954     0.9798968837
   12      H      -2.5080734397    -2.1195875273    -0.7086269033
   13      H      -1.1418198974    -3.1651417476    -0.2727730082
 ----------------------------------------------------------------

   10   -4921.7284790276      4.02e-07  Convergence criterion met
 Total energy in the final basis set =    -4921.7284790276

                    Orbital Energies (a.u.)
 --------------------------------------------------------------

 Alpha MOs
 -- Occupied --
*******-453.892 -58.092 -58.087 -52.149 -52.148 -52.145 -52.145
-52.144 -52.141 -10.240 -10.233 -10.197  -7.825  -7.820  -5.770
 -5.766  -5.766  -5.762  -5.757  -5.752  -2.104  -2.104  -2.099
 -2.099  -2.095  -2.092  -2.091  -2.090  -2.088  -2.086  -0.821
 -0.725  -0.695  -0.653  -0.583  -0.472  -0.444  -0.432  -0.412
 -0.386  -0.360  -0.357  -0.321  -0.301  -0.231  -0.225

 Beta MOs
 -- Occupied --
*******-453.892 -58.092 -58.087 -52.149 -52.148 -52.145 -52.145
-52.144 -52.141 -10.240 -10.233 -10.197  -7.825  -7.820  -5.770
 -5.766  -5.766  -5.762  -5.757  -5.752  -2.104  -2.104  -2.099
 -2.099  -2.095  -2.092  -2.091  -2.090  -2.088  -2.086  -0.821
 -0.725  -0.695  -0.653  -0.583  -0.472  -0.444  -0.432  -0.412
 -0.386  -0.360  -0.357  -0.321  -0.301  -0.231  -0.225

          Ground-State Mulliken Net Atomic Charges

     Atom                 Charge (a.u.)    Spin (a.u.)
  --------------------------------------------------------
      1 Se                   -0.074208       0.000000
      2 C                    -0.255854       0.000000
      3 C                    -0.150936      -0.000000
      4 C                    -0.314773      -0.000000
      5 Se                   -0.069623      -0.000000
      6 H                     0.050414      -0.000000
      7 H                     0.040679      -0.000000
      8 H                     0.131279      -0.000000
      9 H                     0.140666      -0.000000
     10 H                     0.145626       0.000000
     11 H                     0.112691       0.000000
     12 H                     0.134465       0.000000
     13 H                     0.109574      -0.000000
  --------------------------------------------------------
  Sum of atomic charges =    -0.000000

                    Cartesian Multipole Moments
 -----------------------------------------------------------------
    Charge (ESU x 10^10)
                -0.0000
    Dipole Moment (Debye)
         X      -0.3730      Y      -2.8841      Z       0.5245
       Tot       2.9550
    Quadrupole Moments (Debye-Ang)
        XX     -57.6156     XY      -1.0622     YY     -55.4608
        XZ      -2.3393     YZ      -0.3835     ZZ     -57.3505

 Final energy is   -4921.72847902757
 **  OPTIMIZATION CONVERGED  **
 Total job time:  162.74s(wall), 1911.80s(cpu)
        *  Thank you very much for using Q-Chem.  Have a nice day.  *
