 Q-Chem 5.1, Q-Chem, Inc., Pleasanton, CA (2018)
 Q-Chem 5.1.1 for Intel X86 EM64T Linux

User input:
--------------------------------------------------------------

$comment
potential surface scanner
$end

$rem
JOBTYPE  PES_SCAN
UNRESTRICTED TRUE
SYM_IGNORE  TRUE
GEOM_OPT_MAX_CYCLES 400
SCF_MAX_CYCLES 400
METHOD   B3LYP
BASIS   6-31G**
PDB_PRINT 2
SCF_CONVERGENCE 6
THRESH 14
SCF_PRINT 1
$end
$molecule
0 3
Se 2.339940 0.838849 0.137000
C 0.523133 -1.916003 0.139254
C -0.722772 -1.458426 -0.418113
C -2.004596 -1.983547 0.217017
Se -0.765973 0.696906 -0.238344
H -0.934879 0.640555 1.224620
H 2.301794 0.066243 1.399646
H 1.429025 -1.943255 -0.449143
H 0.595556 -2.137467 1.200274
H -0.746101 -1.513248 -1.508434
H -2.006558 -1.821108 1.299459
H -2.891784 -1.505525 -0.204536
H -2.078784 -3.063373 0.042801
$end
$scan
stre 1 2 3.200000 3.201000 0.100000
$end
--------------------------------------------------------------

   12   -4921.6453502622      4.58e-07  Convergence criterion met
 Total energy in the final basis set =    -4921.6453502622
   12   -4921.6433447761      4.59e-07  Convergence criterion met
 Total energy in the final basis set =    -4921.6433447761
   12   -4921.6439617336      5.20e-07  Convergence criterion met
 Total energy in the final basis set =    -4921.6439617336
   12   -4921.6441190862      5.13e-07  Convergence criterion met
 Total energy in the final basis set =    -4921.6441190862
   12   -4921.6441383804      5.16e-07  Convergence criterion met
 Total energy in the final basis set =    -4921.6441383804
   12   -4921.6441530711      5.18e-07  Convergence criterion met
 Total energy in the final basis set =    -4921.6441530711
   12   -4921.6441676166      5.21e-07  Convergence criterion met
 Total energy in the final basis set =    -4921.6441676166
   12   -4921.6441817646      5.27e-07  Convergence criterion met
   12   -4921.6447652058      6.77e-07  Convergence criterion met
 Total energy in the final basis set =    -4921.6447652058
   12   -4921.6448229870      6.73e-07  Convergence criterion met
 Total energy in the final basis set =    -4921.6448229870
   12   -4921.6448638291      6.80e-07  Convergence criterion met
 Total energy in the final basis set =    -4921.6448638291
   12   -4921.6448935766      6.91e-07  Convergence criterion met
 Total energy in the final basis set =    -4921.6448935766
   12   -4921.6449084307      6.99e-07  Convergence criterion met
 Total energy in the final basis set =    -4921.6449084307
   12   -4921.6449110964      6.99e-07  Convergence criterion met
 Total energy in the final basis set =    -4921.6449110964

             Standard Nuclear Orientation (Angstroms)
    I     Atom           X                Y                Z
 ----------------------------------------------------------------
    1      Se      2.3181369167     0.6936324168     0.3532178764
    2      C       0.5612741213    -1.9550295573    -0.0182984254
    3      C      -0.7149112438    -1.4937754925    -0.4735341928
    4      C      -1.9475267533    -1.9489059730     0.2951151626
    5      Se     -0.7141657806     0.7136773752    -0.3690268683
    6      H      -0.9821127160     0.7172244684     1.0813760112
    7      H       2.0006615663     0.1981245468     1.7092614426
    8      H       1.4064691990    -2.0405405332    -0.6862958563
    9      H       0.7244476943    -2.1802669872     1.0306744065
   10      H      -0.8428120016    -1.5649215174    -1.5547270406
   11      H      -1.8360135929    -1.7679558649     1.3686902818
   12      H      -2.8522975326    -1.4428653817    -0.0491361829
   13      H      -2.0831488767    -3.0277965001     0.1541843851
 ----------------------------------------------------------------

   12   -4921.6449115501      6.97e-07  Convergence criterion met
 Total energy in the final basis set =    -4921.6449115501

                    Orbital Energies (a.u.)
 --------------------------------------------------------------

 Alpha MOs
 -- Occupied --
*******-453.872 -58.112 -58.067 -52.169 -52.169 -52.167 -52.125
-52.124 -52.121 -10.248 -10.213 -10.205  -7.846  -7.800  -5.789
 -5.786  -5.781  -5.745  -5.743  -5.732  -2.122  -2.122  -2.117
 -2.115  -2.115  -2.079  -2.078  -2.069  -2.069  -2.066  -0.822
 -0.712  -0.706  -0.664  -0.588  -0.487  -0.445  -0.437  -0.402
 -0.391  -0.373  -0.354  -0.340  -0.295  -0.228  -0.204  -0.201

 Beta MOs
 -- Occupied --
*******-453.870 -58.111 -58.066 -52.168 -52.167 -52.165 -52.123
-52.121 -52.120 -10.249 -10.205 -10.202  -7.843  -7.797  -5.787
 -5.783  -5.778  -5.742  -5.738  -5.730  -2.120  -2.119  -2.115
 -2.112  -2.111  -2.075  -2.074  -2.068  -2.065  -2.064  -0.814
 -0.699  -0.684  -0.638  -0.580  -0.483  -0.442  -0.433  -0.395
 -0.388  -0.369  -0.345  -0.318  -0.258  -0.206

          Ground-State Mulliken Net Atomic Charges

     Atom                 Charge (a.u.)    Spin (a.u.)
  --------------------------------------------------------
      1 Se                   -0.239996       0.779303
      2 C                    -0.178319       0.809239
      3 C                    -0.147363      -0.107643
      4 C                    -0.322541       0.008658
      5 Se                   -0.003286       0.616142
      6 H                     0.069418      -0.018229
      7 H                     0.042124      -0.020797
      8 H                     0.148395      -0.035758
      9 H                     0.115587      -0.036184
     10 H                     0.141221       0.006251
     11 H                     0.116891      -0.001440
     12 H                     0.130586       0.002907
     13 H                     0.127284      -0.002449
  --------------------------------------------------------
  Sum of atomic charges =    -0.000000

                    Cartesian Multipole Moments
 -----------------------------------------------------------------
    Charge (ESU x 10^10)
                -0.0000
    Dipole Moment (Debye)
         X      -2.9402      Y      -2.7765      Z       0.3805
       Tot       4.0618
    Quadrupole Moments (Debye-Ang)
        XX     -63.4096     XY      -1.2005     YY     -58.0733
        XZ      -1.1398     YZ      -0.0999     ZZ     -53.6045

 Final energy is   -4921.64491155005
 **  OPTIMIZATION CONVERGED  **
 Total job time:  222.95s(wall), 2613.82s(cpu)
        *  Thank you very much for using Q-Chem.  Have a nice day.  *
