 Q-Chem 5.1, Q-Chem, Inc., Pleasanton, CA (2018)
 Q-Chem 5.1.1 for Intel X86 EM64T Linux

User input:
--------------------------------------------------------------

$comment
potential surface scanner
$end

$rem
JOBTYPE  PES_SCAN
UNRESTRICTED TRUE
SYM_IGNORE  TRUE
GEOM_OPT_MAX_CYCLES 400
SCF_MAX_CYCLES 400
METHOD   B3LYP
BASIS   6-31G**
PDB_PRINT 2
SCF_CONVERGENCE 6
THRESH 14
SCF_PRINT 1
$end
$molecule
0 3
Se 2.318137 0.693632 0.353218
C 0.561274 -1.955030 -0.018298
C -0.714911 -1.493775 -0.473534
C -1.947527 -1.948906 0.295115
Se -0.714166 0.713677 -0.369027
H -0.982113 0.717224 1.081376
H 2.000662 0.198125 1.709261
H 1.406469 -2.040541 -0.686296
H 0.724448 -2.180267 1.030674
H -0.842812 -1.564922 -1.554727
H -1.836014 -1.767956 1.368690
H -2.852298 -1.442865 -0.049136
H -2.083149 -3.027797 0.154184
$end
$scan
stre 1 2 3.100000 3.101000 0.100000
$end
--------------------------------------------------------------

   12   -4921.6449115614      6.97e-07  Convergence criterion met
 Total energy in the final basis set =    -4921.6449115614
   12   -4921.6437074125      7.71e-07  Convergence criterion met
 Total energy in the final basis set =    -4921.6437074125
   12   -4921.6437197623      4.02e-07  Convergence criterion met
 Total energy in the final basis set =    -4921.6437197623
   12   -4921.6439007408      9.18e-07  Convergence criterion met
 Total energy in the final basis set =    -4921.6439007408
   12   -4921.6439333165      9.33e-07  Convergence criterion met
 Total energy in the final basis set =    -4921.6439333165
   12   -4921.6439529535      9.32e-07  Convergence criterion met
 Total energy in the final basis set =    -4921.6439529535
   12   -4921.6439745139      8.31e-07  Convergence criterion met
 Total energy in the final basis set =    -4921.6439745139
   12   -4921.6439886267      7.35e-07  Convergence criterion met
   14   -4921.6505228059      6.74e-07  Convergence criterion met
 Total energy in the final basis set =    -4921.6505228059
   14   -4921.6505270044      6.85e-07  Convergence criterion met
 Total energy in the final basis set =    -4921.6505270044
   14   -4921.6505326817      6.97e-07  Convergence criterion met
 Total energy in the final basis set =    -4921.6505326817
   14   -4921.6505378217      7.09e-07  Convergence criterion met
 Total energy in the final basis set =    -4921.6505378217
   14   -4921.6505407429      7.15e-07  Convergence criterion met
 Total energy in the final basis set =    -4921.6505407429
   14   -4921.6505421517      7.17e-07  Convergence criterion met
 Total energy in the final basis set =    -4921.6505421517

             Standard Nuclear Orientation (Angstroms)
    I     Atom           X                Y                Z
 ----------------------------------------------------------------
    1      Se      2.5116905134     0.1567988865     1.0293791423
    2      C       0.3717763053    -1.7904601875    -0.0837013796
    3      C      -0.8678016397    -1.9692645883    -0.5956592515
    4      C      -2.0969833536    -2.2637148030     0.2061516779
    5      Se     -0.2376273003     1.0419699090    -0.1005982667
    6      H      -0.9207163821     0.6621652406     1.1526787885
    7      H       2.7685814393     1.5510876014     1.4454223617
    8      H       1.2302370012    -1.6473628432    -0.7285263085
    9      H       0.5590699334    -1.8820967023     0.9808156332
   10      H      -0.9980091328    -1.9131475658    -1.6757138905
   11      H      -1.8951177435    -2.2555297328     1.2809305530
   12      H      -2.8908956374    -1.5391851054    -0.0089819349
   13      H      -2.4962040033    -3.2506611092    -0.0606971249
 ----------------------------------------------------------------

   14   -4921.6505426970      7.24e-07  Convergence criterion met
 Total energy in the final basis set =    -4921.6505426970

                    Orbital Energies (a.u.)
 --------------------------------------------------------------

 Alpha MOs
 -- Occupied --
*******-453.868 -58.115 -58.063 -52.174 -52.172 -52.170 -52.122
-52.120 -52.117 -10.234 -10.217 -10.207  -7.849  -7.797  -5.793
 -5.791  -5.784  -5.742  -5.740  -5.729  -2.126  -2.126  -2.120
 -2.119  -2.117  -2.076  -2.076  -2.067  -2.065  -2.063  -0.820
 -0.721  -0.707  -0.660  -0.585  -0.496  -0.451  -0.439  -0.399
 -0.393  -0.376  -0.353  -0.324  -0.295  -0.245  -0.215  -0.203

 Beta MOs
 -- Occupied --
*******-453.867 -58.114 -58.063 -52.171 -52.170 -52.168 -52.120
-52.118 -52.117 -10.231 -10.216 -10.208  -7.845  -7.794  -5.789
 -5.785  -5.780  -5.739  -5.735  -5.727  -2.122  -2.121  -2.116
 -2.114  -2.113  -2.072  -2.071  -2.065  -2.062  -2.061  -0.814
 -0.714  -0.677  -0.634  -0.581  -0.494  -0.449  -0.435  -0.398
 -0.382  -0.374  -0.343  -0.293  -0.256  -0.204

          Ground-State Mulliken Net Atomic Charges

     Atom                 Charge (a.u.)    Spin (a.u.)
  --------------------------------------------------------
      1 Se                   -0.279691       0.774352
      2 C                    -0.234105       0.062602
      3 C                    -0.023492       0.173916
      4 C                    -0.357782      -0.012332
      5 Se                   -0.051230       1.051944
      6 H                     0.073560      -0.029924
      7 H                     0.053763      -0.021772
      8 H                     0.154368      -0.002806
      9 H                     0.149441      -0.003240
     10 H                     0.119199      -0.007718
     11 H                     0.123384       0.000191
     12 H                     0.137297       0.009029
     13 H                     0.135289       0.005759
  --------------------------------------------------------
  Sum of atomic charges =    -0.000000

                    Cartesian Multipole Moments
 -----------------------------------------------------------------
    Charge (ESU x 10^10)
                -0.0000
    Dipole Moment (Debye)
         X      -3.5072      Y      -1.7169      Z      -0.6243
       Tot       3.9545
    Quadrupole Moments (Debye-Ang)
        XX     -62.7710     XY       3.5709     YY     -53.0851
        XZ      -2.8190     YZ       2.2129     ZZ     -58.1671

 Final energy is   -4921.65054269703
 **  OPTIMIZATION CONVERGED  **
 Total job time:  478.07s(wall), 5535.68s(cpu)
        *  Thank you very much for using Q-Chem.  Have a nice day.  *
