 Q-Chem 5.1, Q-Chem, Inc., Pleasanton, CA (2018)
 Q-Chem 5.1.1 for Intel X86 EM64T Linux

User input:
--------------------------------------------------------------

$comment
potential surface scanner
$end

$rem
JOBTYPE  PES_SCAN
UNRESTRICTED TRUE
SYM_IGNORE  TRUE
GEOM_OPT_MAX_CYCLES 400
SCF_MAX_CYCLES 400
METHOD   B3LYP
BASIS   6-31G**
PDB_PRINT 2
SCF_CONVERGENCE 6
THRESH 14
SCF_PRINT 1
$end
$molecule
0 3
Se 3.516113 1.635025 0.062584
C 0.309234 -2.171407 0.539039
C -0.745181 -1.556577 -0.244110
C -2.162111 -2.047297 0.031671
Se -0.653213 0.530887 0.089497
H -0.847964 0.389039 1.542375
H 2.240579 0.868163 0.063891
H 1.339366 -2.153119 0.201921
H 0.115720 -2.491871 1.558541
H -0.519729 -1.554674 -1.313789
H -2.408777 -1.967377 1.094991
H -2.901658 -1.476657 -0.533791
H -2.244380 -3.103540 -0.251315
$end
$scan
stre 1 2 4.900000 4.901000 0.100000
$end
--------------------------------------------------------------

   11   -4921.6404223913      9.79e-07  Convergence criterion met
 Total energy in the final basis set =    -4921.6404223913
   12   -4921.6398370302      8.51e-07  Convergence criterion met
 Total energy in the final basis set =    -4921.6398370302
   11   -4921.6402154759      8.65e-07  Convergence criterion met
 Total energy in the final basis set =    -4921.6402154759
   11   -4921.6403440187      9.82e-07  Convergence criterion met
 Total energy in the final basis set =    -4921.6403440187
   11   -4921.6403474032      9.90e-07  Convergence criterion met
 Total energy in the final basis set =    -4921.6403474032
   12   -4921.6403515771      8.58e-07  Convergence criterion met
 Total energy in the final basis set =    -4921.6403515771
   12   -4921.6403551379      8.68e-07  Convergence criterion met
 Total energy in the final basis set =    -4921.6403551379
   12   -4921.6403589707      8.78e-07  Convergence criterion met
   12   -4921.6403632301      8.86e-07  Convergence criterion met
 Total energy in the final basis set =    -4921.6403632301
   11   -4921.6403683320      1.00e-06  Convergence criterion met
 Total energy in the final basis set =    -4921.6403683320
   11   -4921.6403743736      9.85e-07  Convergence criterion met
 Total energy in the final basis set =    -4921.6403743736
   11   -4921.6403796723      9.74e-07  Convergence criterion met
 Total energy in the final basis set =    -4921.6403796723
   11   -4921.6403828364      9.72e-07  Convergence criterion met
 Total energy in the final basis set =    -4921.6403828364
   11   -4921.6403838829      9.76e-07  Convergence criterion met
 Total energy in the final basis set =    -4921.6403838829

             Standard Nuclear Orientation (Angstroms)
    I     Atom           X                Y                Z
 ----------------------------------------------------------------
    1      Se      3.5141472615     1.5609299454     0.0920609007
    2      C       0.3238325981    -2.1331951098     0.5225693419
    3      C      -0.7497474514    -1.5407884293    -0.2520989945
    4      C      -2.1544886767    -2.0557783086     0.0413513311
    5      Se     -0.6903074913     0.5490562997     0.0702964117
    6      H      -0.8851246826     0.4117369780     1.5237599854
    7      H       2.2411573416     0.7909036710     0.0949719997
    8      H       1.3502895397    -2.0939443405     0.1758793901
    9      H       0.1463688671    -2.4564257123     1.5440723677
   10      H      -0.5358828359    -1.5402737631    -1.3241687656
   11      H      -2.3905409200    -1.9756377851     1.1070723012
   12      H      -2.9107447793    -1.5013676572    -0.5181496196
   13      H      -2.2209597710    -3.1146207881    -0.2361116499
 ----------------------------------------------------------------

   11   -4921.6403842233      9.80e-07  Convergence criterion met
 Total energy in the final basis set =    -4921.6403842233

                    Orbital Energies (a.u.)
 --------------------------------------------------------------

 Alpha MOs
 -- Occupied --
*******-453.899 -58.102 -58.095 -52.161 -52.158 -52.155 -52.152
-52.151 -52.149 -10.242 -10.210 -10.196  -7.835  -7.828  -5.784
 -5.777  -5.773  -5.770  -5.765  -5.760  -2.116  -2.115  -2.107
 -2.106  -2.106  -2.101  -2.100  -2.098  -2.096  -2.094  -0.817
 -0.701  -0.695  -0.691  -0.585  -0.482  -0.439  -0.431  -0.390
 -0.383  -0.379  -0.361  -0.338  -0.286  -0.243  -0.243  -0.206

 Beta MOs
 -- Occupied --
*******-453.899 -58.101 -58.094 -52.157 -52.157 -52.154 -52.151
-52.150 -52.148 -10.244 -10.198 -10.196  -7.832  -7.827  -5.775
 -5.775  -5.772  -5.768  -5.764  -5.760  -2.110  -2.110  -2.106
 -2.105  -2.101  -2.100  -2.098  -2.097  -2.095  -2.093  -0.809
 -0.694  -0.674  -0.660  -0.576  -0.477  -0.436  -0.426  -0.387
 -0.379  -0.369  -0.358  -0.319  -0.235  -0.230

          Ground-State Mulliken Net Atomic Charges

     Atom                 Charge (a.u.)    Spin (a.u.)
  --------------------------------------------------------
      1 Se                   -0.116731       1.021163
      2 C                    -0.200300       0.930677
      3 C                    -0.151638      -0.112078
      4 C                    -0.308505       0.007420
      5 Se                   -0.106780       0.257727
      6 H                     0.061012      -0.006341
      7 H                     0.091853      -0.026725
      8 H                     0.117830      -0.041244
      9 H                     0.112907      -0.041305
     10 H                     0.138324       0.011821
     11 H                     0.114594      -0.000912
     12 H                     0.129049       0.001067
     13 H                     0.118385      -0.001269
  --------------------------------------------------------
  Sum of atomic charges =     0.000000

                    Cartesian Multipole Moments
 -----------------------------------------------------------------
    Charge (ESU x 10^10)
                 0.0000
    Dipole Moment (Debye)
         X      -1.6693      Y      -2.4372      Z       0.3422
       Tot       2.9738
    Quadrupole Moments (Debye-Ang)
        XX     -63.0254     XY      -1.4451     YY     -57.1046
        XZ      -1.0164     YZ       0.4488     ZZ     -57.2171

 Final energy is   -4921.64038422335
 **  OPTIMIZATION CONVERGED  **
 Total job time:  96.33s(wall), 1118.88s(cpu)
        *  Thank you very much for using Q-Chem.  Have a nice day.  *
