 Q-Chem 5.1, Q-Chem, Inc., Pleasanton, CA (2018)
 Q-Chem 5.1.1 for Intel X86 EM64T Linux

User input:
--------------------------------------------------------------

$comment
potential surface scanner
$end

$rem
JOBTYPE  PES_SCAN
UNRESTRICTED TRUE
SYM_IGNORE  TRUE
GEOM_OPT_MAX_CYCLES 400
SCF_MAX_CYCLES 400
METHOD   B3LYP
BASIS   6-31G**
PDB_PRINT 2
SCF_CONVERGENCE 6
THRESH 14
SCF_PRINT 1
$end
$molecule
0 1
Se 1.870900 0.175900 -0.051900
C 0.575300 -1.200000 0.467400
C -0.687000 -1.059800 -0.385600
C -1.647200 -2.208000 -0.068200
Se -1.558500 0.649900 0.013200
H -1.851500 0.486400 1.536700
H 3.049900 -0.144000 0.918300
H 1.011300 -2.186800 0.311700
H 0.318200 -1.078300 1.519600
H -0.417700 -1.092800 -1.441300
H -1.916600 -2.175000 0.987500
H -2.546500 -2.108100 -0.675900
H -1.162600 -3.158800 -0.290000
$end
$scan
stre 1 2 1.400000 1.401000 0.100000
$end
--------------------------------------------------------------

   10   -4921.7171930318      4.57e-07  Convergence criterion met
 Total energy in the final basis set =    -4921.7171930318
   10   -4921.7133446033      4.67e-07  Convergence criterion met
 Total energy in the final basis set =    -4921.7133446033
   10   -4921.6872331772      4.63e-07  Convergence criterion met
 Total energy in the final basis set =    -4921.6872331772
   10   -4921.6268283755      5.06e-07  Convergence criterion met
 Total energy in the final basis set =    -4921.6268283755
   10   -4921.5243799599      5.78e-07  Convergence criterion met
 Total energy in the final basis set =    -4921.5243799599
   10   -4921.4746167783      6.10e-07  Convergence criterion met
 Total energy in the final basis set =    -4921.4746167783
   10   -4921.4721182163      6.12e-07  Convergence criterion met
 Total energy in the final basis set =    -4921.4721182163
   10   -4921.4723139613      6.12e-07  Convergence criterion met
   10   -4921.4723475136      6.14e-07  Convergence criterion met
 Total energy in the final basis set =    -4921.4723475136
   10   -4921.4723518106      6.14e-07  Convergence criterion met
 Total energy in the final basis set =    -4921.4723518106
   10   -4921.4723547331      6.15e-07  Convergence criterion met
 Total energy in the final basis set =    -4921.4723547331
   10   -4921.4723571906      6.15e-07  Convergence criterion met
 Total energy in the final basis set =    -4921.4723571906
   10   -4921.4723589056      6.14e-07  Convergence criterion met
 Total energy in the final basis set =    -4921.4723589056
   10   -4921.4723604002      6.14e-07  Convergence criterion met
 Total energy in the final basis set =    -4921.4723604002

             Standard Nuclear Orientation (Angstroms)
    I     Atom           X                Y                Z
 ----------------------------------------------------------------
    1      Se      1.6296524545    -0.0224925923     0.1222665222
    2      C       0.7123603851    -1.0297754679     0.4446893415
    3      C      -0.6656464924    -0.9806635939    -0.3400900833
    4      C      -1.5396425351    -2.1897022799    -0.0150517389
    5      Se     -1.6735455313     0.7307545872    -0.0823326728
    6      H      -1.8643125266     0.5216505450     1.3655759288
    7      H       2.8605151550    -0.4557317334     0.8384599707
    8      H       0.9703453304    -2.0915818363     0.2282651180
    9      H       0.3347637164    -1.1352078112     1.4935999422
   10      H      -0.4438010708    -0.9527935857    -1.4131546117
   11      H      -1.7985864946    -2.2178278682     1.0479470629
   12      H      -2.4685699221    -2.1548526098    -0.5873478478
   13      H      -1.0155324685    -3.1211757533    -0.2613269319
 ----------------------------------------------------------------

   10   -4921.4723613920      6.14e-07  Convergence criterion met
 Total energy in the final basis set =    -4921.4723613920

                    Orbital Energies (a.u.)
 --------------------------------------------------------------

 Alpha MOs
 -- Occupied --
*******-453.881 -58.092 -58.084 -52.150 -52.149 -52.146 -52.141
-52.138 -52.137 -10.250 -10.211 -10.198  -7.827  -7.826  -5.775
 -5.771  -5.768  -5.767  -5.759  -5.757  -2.114  -2.108  -2.105
 -2.104  -2.100  -2.096  -2.094  -2.094  -2.093  -2.092  -0.902
 -0.789  -0.698  -0.637  -0.580  -0.494  -0.481  -0.446  -0.425
 -0.399  -0.377  -0.362  -0.323  -0.293  -0.233  -0.199

 Beta MOs
 -- Occupied --
*******-453.881 -58.092 -58.084 -52.150 -52.149 -52.146 -52.141
-52.138 -52.137 -10.250 -10.211 -10.198  -7.827  -7.826  -5.775
 -5.771  -5.768  -5.767  -5.759  -5.757  -2.114  -2.108  -2.105
 -2.104  -2.100  -2.096  -2.094  -2.094  -2.093  -2.092  -0.902
 -0.789  -0.698  -0.637  -0.580  -0.494  -0.481  -0.446  -0.425
 -0.399  -0.377  -0.362  -0.323  -0.293  -0.233  -0.199

          Ground-State Mulliken Net Atomic Charges

     Atom                 Charge (a.u.)    Spin (a.u.)
  --------------------------------------------------------
      1 Se                   -0.054594      -0.000000
      2 C                    -0.145506      -0.000000
      3 C                    -0.208997      -0.000000
      4 C                    -0.307467       0.000000
      5 Se                   -0.064471      -0.000000
      6 H                     0.052143       0.000000
      7 H                     0.025373      -0.000000
      8 H                     0.106258       0.000000
      9 H                     0.088977       0.000000
     10 H                     0.146121       0.000000
     11 H                     0.117434      -0.000000
     12 H                     0.133885      -0.000000
     13 H                     0.110844      -0.000000
  --------------------------------------------------------
  Sum of atomic charges =    -0.000000

                    Cartesian Multipole Moments
 -----------------------------------------------------------------
    Charge (ESU x 10^10)
                 0.0000
    Dipole Moment (Debye)
         X      -0.3300      Y      -2.7111      Z       0.9658
       Tot       2.8969
    Quadrupole Moments (Debye-Ang)
        XX     -58.8152     XY      -0.5832     YY     -55.9944
        XZ       0.3860     YZ      -0.0986     ZZ     -55.3797

 Final energy is   -4921.47236139204
 **  OPTIMIZATION CONVERGED  **
 Total job time:  115.77s(wall), 1355.35s(cpu)
        *  Thank you very much for using Q-Chem.  Have a nice day.  *
