 Q-Chem 5.1, Q-Chem, Inc., Pleasanton, CA (2018)
 Q-Chem 5.1.1 for Intel X86 EM64T Linux

User input:
--------------------------------------------------------------

$comment
potential surface scanner
$end

$rem
JOBTYPE  PES_SCAN
UNRESTRICTED TRUE
SYM_IGNORE  TRUE
GEOM_OPT_MAX_CYCLES 400
SCF_MAX_CYCLES 400
METHOD   B3LYP
BASIS   6-31G**
PDB_PRINT 2
SCF_CONVERGENCE 6
THRESH 14
SCF_PRINT 1
$end
$molecule
0 3
Se 2.432330 1.173027 -0.110127
C 0.446479 -2.044203 0.271756
C -0.729460 -1.495179 -0.355847
C -2.077939 -2.004022 0.138207
Se -0.680768 0.638778 -0.077542
H -0.720939 0.533376 1.393217
H 2.454756 0.374716 1.136493
H 1.415686 -1.967839 -0.205335
H 0.408315 -2.380426 1.304103
H -0.660707 -1.487316 -1.446117
H -2.165106 -1.905822 1.224858
H -2.909407 -1.466751 -0.322932
H -2.175240 -3.067742 -0.109236
$end
$scan
stre 1 2 3.700000 3.701000 0.100000
$end
--------------------------------------------------------------

   11   -4921.6479504269      7.61e-07  Convergence criterion met
 Total energy in the final basis set =    -4921.6479504269
   11   -4921.6476247123      7.57e-07  Convergence criterion met
 Total energy in the final basis set =    -4921.6476247123
   11   -4921.6477254171      7.61e-07  Convergence criterion met
 Total energy in the final basis set =    -4921.6477254171
   11   -4921.6477619607      7.70e-07  Convergence criterion met
 Total energy in the final basis set =    -4921.6477619607
   11   -4921.6477693698      7.75e-07  Convergence criterion met
 Total energy in the final basis set =    -4921.6477693698
   11   -4921.6477754810      7.81e-07  Convergence criterion met
 Total energy in the final basis set =    -4921.6477754810
   11   -4921.6477768881      7.81e-07  Convergence criterion met
 Total energy in the final basis set =    -4921.6477768881

             Standard Nuclear Orientation (Angstroms)
    I     Atom           X                Y                Z
 ----------------------------------------------------------------
    1      Se      2.4212246147     1.1020410349    -0.0942833005
    2      C       0.4586621799    -2.0142162252     0.2624949343
    3      C      -0.7283111578    -1.4825068101    -0.3600839977
    4      C      -2.0675995715    -2.0046446998     0.1452202675
    5      Se     -0.7034551518     0.6513801435    -0.0910984707
    6      H      -0.7529821115     0.5510744156     1.3795385196
    7      H       2.4346252016     0.3072076432     1.1548237395
    8      H       1.4221813356    -1.9346457937    -0.2245944837
    9      H       0.4317079776    -2.3425860791     1.2977669757
   10      H      -0.6664982214    -1.4807683182    -1.4508174286
   11      H      -2.1510595908    -1.8975542857     1.2313338118
   12      H      -2.9082141478    -1.4824472273    -0.3167874372
   13      H      -2.1522813568    -3.0717367981    -0.0920151301
 ----------------------------------------------------------------

   11   -4921.6477778585      7.81e-07  Convergence criterion met
 Total energy in the final basis set =    -4921.6477778585

                    Orbital Energies (a.u.)
 --------------------------------------------------------------

 Alpha MOs
 -- Occupied --
*******-453.873 -58.116 -58.067 -52.173 -52.172 -52.171 -52.126
-52.124 -52.121 -10.251 -10.216 -10.205  -7.849  -7.801  -5.793
 -5.790  -5.784  -5.746  -5.744  -5.732  -2.126  -2.126  -2.121
 -2.118  -2.117  -2.080  -2.080  -2.070  -2.069  -2.067  -0.826
 -0.715  -0.706  -0.663  -0.592  -0.488  -0.448  -0.440  -0.402
 -0.391  -0.372  -0.359  -0.343  -0.296  -0.219  -0.216  -0.206

 Beta MOs
 -- Occupied --
*******-453.871 -58.115 -58.066 -52.172 -52.171 -52.169 -52.124
-52.122 -52.120 -10.253 -10.205 -10.204  -7.847  -7.798  -5.791
 -5.788  -5.781  -5.742  -5.739  -5.731  -2.124  -2.123  -2.118
 -2.115  -2.114  -2.076  -2.075  -2.068  -2.066  -2.064  -0.818
 -0.703  -0.685  -0.637  -0.583  -0.484  -0.444  -0.435  -0.397
 -0.387  -0.369  -0.347  -0.325  -0.260  -0.206

          Ground-State Mulliken Net Atomic Charges

     Atom                 Charge (a.u.)    Spin (a.u.)
  --------------------------------------------------------
      1 Se                   -0.237866       0.796237
      2 C                    -0.198611       0.903680
      3 C                    -0.155368      -0.125081
      4 C                    -0.316236       0.009419
      5 Se                    0.011661       0.520781
      6 H                     0.068802      -0.015347
      7 H                     0.043515      -0.021956
      8 H                     0.149536      -0.039762
      9 H                     0.113359      -0.040132
     10 H                     0.146869       0.011745
     11 H                     0.117325      -0.001371
     12 H                     0.131025       0.001028
     13 H                     0.125989       0.000758
  --------------------------------------------------------
  Sum of atomic charges =    -0.000000

                    Cartesian Multipole Moments
 -----------------------------------------------------------------
    Charge (ESU x 10^10)
                 0.0000
    Dipole Moment (Debye)
         X      -2.9564      Y      -3.0516      Z       0.8815
       Tot       4.3393
    Quadrupole Moments (Debye-Ang)
        XX     -63.3181     XY      -1.8485     YY     -58.7186
        XZ       1.1749     YZ      -0.6584     ZZ     -54.2403

 Final energy is   -4921.64777785854
 **  OPTIMIZATION CONVERGED  **
 Total job time:  54.87s(wall), 625.14s(cpu)
        *  Thank you very much for using Q-Chem.  Have a nice day.  *
