 Q-Chem 5.1, Q-Chem, Inc., Pleasanton, CA (2018)
 Q-Chem 5.1.1 for Intel X86 EM64T Linux

User input:
--------------------------------------------------------------

$comment
potential surface scanner
$end

$rem
JOBTYPE  PES_SCAN
UNRESTRICTED TRUE
SYM_IGNORE  TRUE
GEOM_OPT_MAX_CYCLES 400
SCF_MAX_CYCLES 400
METHOD   B3LYP
BASIS   6-31G**
PDB_PRINT 2
SCF_CONVERGENCE 6
THRESH 14
SCF_PRINT 1
$end
$molecule
0 3
Se 2.410429 1.030800 -0.069653
C 0.471340 -1.985627 0.248308
C -0.727077 -1.472001 -0.367135
C -2.056104 -2.003762 0.154832
Se -0.722328 0.664139 -0.109913
H -0.795269 0.568128 1.359808
H 2.415354 0.240217 1.182181
H 1.428080 -1.908295 -0.251368
H 0.458466 -2.299064 1.288547
H -0.675864 -1.477639 -1.458362
H -2.131595 -1.887052 1.240567
H -2.906307 -1.495282 -0.305038
H -2.131124 -3.073965 -0.071273
$end
$scan
stre 1 2 3.500000 3.501000 0.100000
$end
--------------------------------------------------------------

   11   -4921.6474620397      8.22e-07  Convergence criterion met
 Total energy in the final basis set =    -4921.6474620397
   11   -4921.6465255935      7.00e-07  Convergence criterion met
 Total energy in the final basis set =    -4921.6465255935
   11   -4921.6468972339      9.02e-07  Convergence criterion met
 Total energy in the final basis set =    -4921.6468972339
   11   -4921.6469411967      8.75e-07  Convergence criterion met
 Total energy in the final basis set =    -4921.6469411967
   11   -4921.6469508407      8.65e-07  Convergence criterion met
 Total energy in the final basis set =    -4921.6469508407
   11   -4921.6469565503      8.64e-07  Convergence criterion met
 Total energy in the final basis set =    -4921.6469565503
   11   -4921.6469594708      8.67e-07  Convergence criterion met
 Total energy in the final basis set =    -4921.6469594708
   11   -4921.6469639976      8.77e-07  Convergence criterion met
 Total energy in the final basis set =    -4921.6469639976
   11   -4921.6469666196      8.84e-07  Convergence criterion met
 Total energy in the final basis set =    -4921.6469666196
   11   -4921.6469682367      8.88e-07  Convergence criterion met
 Total energy in the final basis set =    -4921.6469682367
   11   -4921.6469693361      8.88e-07  Convergence criterion met
 Total energy in the final basis set =    -4921.6469693361
   11   -4921.6469704928      8.88e-07  Convergence criterion met
 Total energy in the final basis set =    -4921.6469704928

             Standard Nuclear Orientation (Angstroms)
    I     Atom           X                Y                Z
 ----------------------------------------------------------------
    1      Se      2.3963256172     0.9643400481    -0.0046124816
    2      C       0.4873921202    -1.9611414323     0.2134034212
    3      C      -0.7271254592    -1.4669203892    -0.3844571394
    4      C      -2.0411775776    -1.9985593472     0.1747966724
    5      Se     -0.7358316060     0.6741529581    -0.1513288539
    6      H      -0.8500584031     0.5890697699     1.3159198452
    7      H       2.3884154581     0.1808833795     1.2522652831
    8      H       1.4305294672    -1.9084901682    -0.3139938991
    9      H       0.5017061681    -2.2448871958     1.2621897260
   10      H      -0.7003347684    -1.4879196873    -1.4762321475
   11      H      -2.0932822855    -1.8648281459     1.2600048709
   12      H      -2.9043947913    -1.5024073767    -0.2743011743
   13      H      -2.1141629398    -3.0726954131    -0.0321531229
 ----------------------------------------------------------------

   11   -4921.6469712434      8.87e-07  Convergence criterion met
 Total energy in the final basis set =    -4921.6469712434

                    Orbital Energies (a.u.)
 --------------------------------------------------------------

 Alpha MOs
 -- Occupied --
*******-453.872 -58.115 -58.067 -52.173 -52.172 -52.171 -52.125
-52.124 -52.121 -10.250 -10.214 -10.205  -7.849  -7.800  -5.793
 -5.790  -5.784  -5.745  -5.743  -5.732  -2.126  -2.125  -2.120
 -2.118  -2.117  -2.079  -2.079  -2.069  -2.069  -2.066  -0.825
 -0.715  -0.706  -0.663  -0.591  -0.488  -0.447  -0.439  -0.403
 -0.391  -0.372  -0.359  -0.343  -0.296  -0.221  -0.212  -0.205

 Beta MOs
 -- Occupied --
*******-453.870 -58.115 -58.066 -52.172 -52.171 -52.169 -52.123
-52.122 -52.120 -10.252 -10.205 -10.203  -7.847  -7.797  -5.791
 -5.787  -5.781  -5.742  -5.738  -5.730  -2.124  -2.123  -2.118
 -2.115  -2.114  -2.075  -2.075  -2.068  -2.065  -2.064  -0.817
 -0.703  -0.684  -0.637  -0.582  -0.483  -0.444  -0.434  -0.397
 -0.387  -0.369  -0.347  -0.324  -0.260  -0.206

          Ground-State Mulliken Net Atomic Charges

     Atom                 Charge (a.u.)    Spin (a.u.)
  --------------------------------------------------------
      1 Se                   -0.241714       0.790745
      2 C                    -0.197466       0.893922
      3 C                    -0.154434      -0.122550
      4 C                    -0.316891       0.009407
      5 Se                    0.013235       0.535532
      6 H                     0.069031      -0.015790
      7 H                     0.043330      -0.021950
      8 H                     0.153114      -0.039542
      9 H                     0.112425      -0.039855
     10 H                     0.145487       0.009995
     11 H                     0.116709      -0.001412
     12 H                     0.130828       0.001559
     13 H                     0.126347      -0.000062
  --------------------------------------------------------
  Sum of atomic charges =     0.000000

                    Cartesian Multipole Moments
 -----------------------------------------------------------------
    Charge (ESU x 10^10)
                -0.0000
    Dipole Moment (Debye)
         X      -2.9781      Y      -2.9310      Z       0.7709
       Tot       4.2490
    Quadrupole Moments (Debye-Ang)
        XX     -63.3437     XY      -1.6874     YY     -58.4719
        XZ       0.6964     YZ      -0.6775     ZZ     -54.1766

 Final energy is   -4921.64697124336
 **  OPTIMIZATION CONVERGED  **
 Total job time:  87.65s(wall), 1019.77s(cpu)
        *  Thank you very much for using Q-Chem.  Have a nice day.  *
