 Q-Chem 5.1, Q-Chem, Inc., Pleasanton, CA (2018)
 Q-Chem 5.1.1 for Intel X86 EM64T Linux

User input:
--------------------------------------------------------------

$comment
potential surface scanner
$end

$rem
JOBTYPE  PES_SCAN
UNRESTRICTED TRUE
SYM_IGNORE  TRUE
GEOM_OPT_MAX_CYCLES 400
SCF_MAX_CYCLES 400
METHOD   B3LYP
BASIS   6-31G**
PDB_PRINT 2
SCF_CONVERGENCE 6
THRESH 14
SCF_PRINT 1
$end
$molecule
0 3
Se 2.290031 0.097804 0.928303
C 0.479566 -1.941721 -0.057878
C -0.781954 -1.869932 -0.541717
C -2.022132 -2.160549 0.250481
Se -0.402259 1.077491 -0.191713
H -1.082993 0.659009 1.051033
H 2.533119 1.477796 1.405895
H 1.332774 -1.812965 -0.712077
H 0.671765 -2.213433 0.974253
H -0.921556 -1.673593 -1.603655
H -1.808193 -2.253647 1.319115
H -2.780100 -1.382977 0.110212
H -2.470070 -3.102684 -0.090750
$end
$scan
stre 1 2 2.800000 2.801000 0.100000
$end
--------------------------------------------------------------

   16   -4921.6461595252      8.88e-07  Convergence criterion met
 Total energy in the final basis set =    -4921.6461595252
   16   -4921.6428043068      6.02e-07  Convergence criterion met
 Total energy in the final basis set =    -4921.6428043068
   17   -4921.6429289095      7.04e-07  Convergence criterion met
 Total energy in the final basis set =    -4921.6429289095
   17   -4921.6431179966      5.50e-07  Convergence criterion met
 Total energy in the final basis set =    -4921.6431179966
   16   -4921.6431814926      8.63e-07  Convergence criterion met
 Total energy in the final basis set =    -4921.6431814926
   16   -4921.6432200200      8.27e-07  Convergence criterion met
 Total energy in the final basis set =    -4921.6432200200
   16   -4921.6432593615      8.67e-07  Convergence criterion met
 Total energy in the final basis set =    -4921.6432593615
   16   -4921.6432738773      9.23e-07  Convergence criterion met
   11   -4921.6577563866      6.68e-07  Convergence criterion met
 Total energy in the final basis set =    -4921.6577563866
   11   -4921.6577576103      6.64e-07  Convergence criterion met
 Total energy in the final basis set =    -4921.6577576103
   11   -4921.6577593400      6.64e-07  Convergence criterion met
 Total energy in the final basis set =    -4921.6577593400
   11   -4921.6577604550      6.66e-07  Convergence criterion met
 Total energy in the final basis set =    -4921.6577604550
   11   -4921.6577615316      6.66e-07  Convergence criterion met
 Total energy in the final basis set =    -4921.6577615316
   11   -4921.6577628029      6.67e-07  Convergence criterion met
 Total energy in the final basis set =    -4921.6577628029

             Standard Nuclear Orientation (Angstroms)
    I     Atom           X                Y                Z
 ----------------------------------------------------------------
    1      Se      1.6004705292     0.1502943685     1.1081240130
    2      C       0.5150400108    -2.1059650172    -0.1453289092
    3      C      -0.7753167791    -1.9402408882    -0.4552021468
    4      C      -1.9316914532    -2.3098194048     0.4278677485
    5      Se     -0.1855045136     2.0867565248     0.1502469659
    6      H      -0.9318223463     0.9058157084    -0.3325143671
    7      H       2.3883895794     1.3063731988     1.6247880593
    8      H       1.3034797510    -1.8786709763    -0.8549027957
    9      H       0.8168368959    -2.5781340431     0.7857032349
   10      H      -1.0299090968    -1.5111682096    -1.4254891187
   11      H      -1.5912931144    -2.7291788904     1.3789270307
   12      H      -2.5685244336    -1.4428238271     0.6431652119
   13      H      -2.5721570293    -3.0526395439    -0.0638829265
 ----------------------------------------------------------------

   11   -4921.6577632244      6.66e-07  Convergence criterion met
 Total energy in the final basis set =    -4921.6577632244

                    Orbital Energies (a.u.)
 --------------------------------------------------------------

 Alpha MOs
 -- Occupied --
*******-453.912 -58.108 -58.107 -52.164 -52.164 -52.164 -52.163
-52.163 -52.163 -10.201 -10.190 -10.186  -7.842  -7.841  -5.783
 -5.782  -5.781  -5.780  -5.780  -5.780  -2.116  -2.115  -2.115
 -2.114  -2.114  -2.114  -2.112  -2.112  -2.111  -2.111  -0.794
 -0.725  -0.695  -0.682  -0.564  -0.475  -0.430  -0.421  -0.397
 -0.379  -0.374  -0.355  -0.325  -0.290  -0.259  -0.252  -0.193

 Beta MOs
 -- Occupied --
*******-453.910 -58.106 -58.105 -52.163 -52.162 -52.161 -52.161
-52.160 -52.160 -10.201 -10.190 -10.186  -7.838  -7.837  -5.782
 -5.780  -5.775  -5.774  -5.774  -5.774  -2.114  -2.113  -2.112
 -2.111  -2.111  -2.110  -2.106  -2.106  -2.106  -2.106  -0.793
 -0.698  -0.688  -0.648  -0.563  -0.474  -0.429  -0.420  -0.388
 -0.378  -0.364  -0.354  -0.282  -0.258  -0.240

          Ground-State Mulliken Net Atomic Charges

     Atom                 Charge (a.u.)    Spin (a.u.)
  --------------------------------------------------------
      1 Se                   -0.060838       1.048157
      2 C                    -0.262197       0.003349
      3 C                    -0.032550      -0.002304
      4 C                    -0.349629       0.000393
      5 Se                   -0.098773       1.008326
      6 H                     0.072615      -0.027392
      7 H                     0.042178      -0.030136
      8 H                     0.121734      -0.000027
      9 H                     0.116831      -0.000618
     10 H                     0.091803       0.000309
     11 H                     0.116792      -0.000041
     12 H                     0.119762       0.000115
     13 H                     0.122273      -0.000128
  --------------------------------------------------------
  Sum of atomic charges =    -0.000000

                    Cartesian Multipole Moments
 -----------------------------------------------------------------
    Charge (ESU x 10^10)
                -0.0000
    Dipole Moment (Debye)
         X      -0.5347      Y      -1.0806      Z      -0.2073
       Tot       1.2233
    Quadrupole Moments (Debye-Ang)
        XX     -55.6584     XY       3.3002     YY     -59.0197
        XZ       1.0603     YZ       0.5899     ZZ     -57.9077

 Final energy is   -4921.65776322444
 **  OPTIMIZATION CONVERGED  **
 Total job time:  797.45s(wall), 9246.50s(cpu)
        *  Thank you very much for using Q-Chem.  Have a nice day.  *
