 Q-Chem 5.1, Q-Chem, Inc., Pleasanton, CA (2018)
 Q-Chem 5.1.1 for Intel X86 EM64T Linux

User input:
--------------------------------------------------------------

$comment
potential surface scanner
$end

$rem
JOBTYPE  PES_SCAN
UNRESTRICTED TRUE
SYM_IGNORE  TRUE
GEOM_OPT_MAX_CYCLES 400
SCF_MAX_CYCLES 400
METHOD   B3LYP
BASIS   6-31G**
PDB_PRINT 2
SCF_CONVERGENCE 6
THRESH 14
SCF_PRINT 1
$end
$molecule
0 3
Se 3.530930 1.704413 0.034940
C 0.294223 -2.202671 0.553042
C -0.744233 -1.570069 -0.236977
C -2.170185 -2.042497 0.023803
Se -0.626703 0.515029 0.105415
H -0.822781 0.370007 1.557718
H 2.257743 0.933189 0.037764
H 1.327971 -2.194301 0.227002
H 0.086163 -2.526431 1.568644
H -0.509042 -1.566846 -1.304568
H -2.425649 -1.963323 1.085092
H -2.896511 -1.459504 -0.546109
H -2.263927 -3.096401 -0.264261
$end
$scan
stre 1 2 5.000000 5.001000 0.100000
$end
--------------------------------------------------------------

   11   -4921.6404636293      9.16e-07  Convergence criterion met
 Total energy in the final basis set =    -4921.6404636293
   11   -4921.6403887185      8.96e-07  Convergence criterion met
 Total energy in the final basis set =    -4921.6403887185
   11   -4921.6403981645      9.02e-07  Convergence criterion met
 Total energy in the final basis set =    -4921.6403981645
   11   -4921.6404052757      9.19e-07  Convergence criterion met
 Total energy in the final basis set =    -4921.6404052757
   11   -4921.6404072203      9.28e-07  Convergence criterion met
 Total energy in the final basis set =    -4921.6404072203
   11   -4921.6404111027      9.45e-07  Convergence criterion met
 Total energy in the final basis set =    -4921.6404111027
   11   -4921.6404126892      9.51e-07  Convergence criterion met
 Total energy in the final basis set =    -4921.6404126892
   11   -4921.6404144263      9.58e-07  Convergence criterion met
 Total energy in the final basis set =    -4921.6404144263
   11   -4921.6404157730      9.62e-07  Convergence criterion met
 Total energy in the final basis set =    -4921.6404157730
   11   -4921.6404183143      9.69e-07  Convergence criterion met
 Total energy in the final basis set =    -4921.6404183143
   11   -4921.6404205588      9.74e-07  Convergence criterion met
 Total energy in the final basis set =    -4921.6404205588
   11   -4921.6404218977      9.77e-07  Convergence criterion met
 Total energy in the final basis set =    -4921.6404218977

             Standard Nuclear Orientation (Angstroms)
    I     Atom           X                Y                Z
 ----------------------------------------------------------------
    1      Se      3.5161128477     1.6350247705     0.0625837800
    2      C       0.3092343493    -2.1714067830     0.5390387747
    3      C      -0.7451809366    -1.5565767921    -0.2441100544
    4      C      -2.1621114843    -2.0472971189     0.0316706860
    5      Se     -0.6532127757     0.5308867005     0.0894969377
    6      H      -0.8479637205     0.3890393738     1.5423754406
    7      H       2.2405787263     0.8681632662     0.0638909737
    8      H       1.3393663628    -2.1531192243     0.2019209717
    9      H       0.1157199776    -2.4918705033     1.5585405096
   10      H      -0.5197293084    -1.5546742849    -1.3137888836
   11      H      -2.4087765306    -1.9673773128     1.0949911213
   12      H      -2.9016584207    -1.4766570267    -0.5337906347
   13      H      -2.2443800869    -3.1035400650    -0.2513146226
 ----------------------------------------------------------------

   11   -4921.6404223911      9.79e-07  Convergence criterion met
 Total energy in the final basis set =    -4921.6404223911

                    Orbital Energies (a.u.)
 --------------------------------------------------------------

 Alpha MOs
 -- Occupied --
*******-453.899 -58.101 -58.095 -52.161 -52.158 -52.155 -52.152
-52.151 -52.149 -10.242 -10.210 -10.196  -7.835  -7.828  -5.783
 -5.776  -5.773  -5.770  -5.765  -5.760  -2.116  -2.115  -2.107
 -2.106  -2.106  -2.101  -2.099  -2.098  -2.096  -2.095  -0.817
 -0.701  -0.695  -0.691  -0.585  -0.482  -0.439  -0.431  -0.390
 -0.383  -0.378  -0.361  -0.338  -0.285  -0.243  -0.242  -0.207

 Beta MOs
 -- Occupied --
*******-453.899 -58.100 -58.094 -52.157 -52.156 -52.154 -52.152
-52.151 -52.148 -10.244 -10.198 -10.196  -7.832  -7.827  -5.775
 -5.775  -5.772  -5.768  -5.763  -5.760  -2.110  -2.109  -2.106
 -2.105  -2.100  -2.100  -2.097  -2.097  -2.095  -2.094  -0.809
 -0.694  -0.674  -0.660  -0.576  -0.477  -0.437  -0.426  -0.387
 -0.379  -0.369  -0.358  -0.319  -0.235  -0.229

          Ground-State Mulliken Net Atomic Charges

     Atom                 Charge (a.u.)    Spin (a.u.)
  --------------------------------------------------------
      1 Se                   -0.117984       1.022176
      2 C                    -0.199668       0.930344
      3 C                    -0.151445      -0.112225
      4 C                    -0.308190       0.007503
      5 Se                   -0.108024       0.257037
      6 H                     0.061220      -0.006315
      7 H                     0.092816      -0.026549
      8 H                     0.118320      -0.041222
      9 H                     0.112731      -0.041285
     10 H                     0.138208       0.011631
     11 H                     0.114710      -0.000923
     12 H                     0.128994       0.001127
     13 H                     0.118313      -0.001298
  --------------------------------------------------------
  Sum of atomic charges =    -0.000000

                    Cartesian Multipole Moments
 -----------------------------------------------------------------
    Charge (ESU x 10^10)
                 0.0000
    Dipole Moment (Debye)
         X      -1.7016      Y      -2.4633      Z       0.3389
       Tot       3.0130
    Quadrupole Moments (Debye-Ang)
        XX     -63.0905     XY      -1.5841     YY     -57.1892
        XZ      -1.0739     YZ       0.6219     ZZ     -57.1582

 Final energy is   -4921.64042239113
 **  OPTIMIZATION CONVERGED  **
 Total job time:  80.83s(wall), 942.65s(cpu)
        *  Thank you very much for using Q-Chem.  Have a nice day.  *
