 Q-Chem 5.1, Q-Chem, Inc., Pleasanton, CA (2018)
 Q-Chem 5.1.1 for Intel X86 EM64T Linux

User input:
--------------------------------------------------------------

$comment
potential surface scanner
$end

$rem
JOBTYPE  PES_SCAN
UNRESTRICTED TRUE
SYM_IGNORE  TRUE
GEOM_OPT_MAX_CYCLES 400
SCF_MAX_CYCLES 400
METHOD   B3LYP
BASIS   6-31G**
PDB_PRINT 2
SCF_CONVERGENCE 6
THRESH 14
SCF_PRINT 1
$end
$molecule
0 1
Se 1.870900 0.175900 -0.051900
C 0.575300 -1.200000 0.467400
C -0.687000 -1.059800 -0.385600
C -1.647200 -2.208000 -0.068200
Se -1.558500 0.649900 0.013200
H -1.851500 0.486400 1.536700
H 3.049900 -0.144000 0.918300
H 1.011300 -2.186800 0.311700
H 0.318200 -1.078300 1.519600
H -0.417700 -1.092800 -1.441300
H -1.916600 -2.175000 0.987500
H -2.546500 -2.108100 -0.675900
H -1.162600 -3.158800 -0.290000
$end
$scan
stre 1 2 1.100000 1.101000 0.100000
$end
--------------------------------------------------------------

   10   -4921.7171930318      4.57e-07  Convergence criterion met
 Total energy in the final basis set =    -4921.7171930318
   10   -4921.7133446033      4.67e-07  Convergence criterion met
 Total energy in the final basis set =    -4921.7133446033
   10   -4921.6872331771      4.63e-07  Convergence criterion met
 Total energy in the final basis set =    -4921.6872331771
   10   -4921.6268283756      5.06e-07  Convergence criterion met
 Total energy in the final basis set =    -4921.6268283756
   10   -4921.5243799600      5.78e-07  Convergence criterion met
 Total energy in the final basis set =    -4921.5243799600
   10   -4921.3882599207      6.50e-07  Convergence criterion met
 Total energy in the final basis set =    -4921.3882599207
   10   -4921.1444951748      7.10e-07  Convergence criterion met
 Total energy in the final basis set =    -4921.1444951748
   10   -4920.8253030205      7.95e-07  Convergence criterion met
   11   -4920.6152406901      2.46e-07  Convergence criterion met
 Total energy in the final basis set =    -4920.6152406901
   11   -4920.6152495269      2.45e-07  Convergence criterion met
 Total energy in the final basis set =    -4920.6152495269
   11   -4920.6152532754      2.44e-07  Convergence criterion met
 Total energy in the final basis set =    -4920.6152532754
   11   -4920.6152550401      2.43e-07  Convergence criterion met
 Total energy in the final basis set =    -4920.6152550401
   11   -4920.6152565589      2.43e-07  Convergence criterion met
 Total energy in the final basis set =    -4920.6152565589
   11   -4920.6152577914      2.44e-07  Convergence criterion met
 Total energy in the final basis set =    -4920.6152577914

             Standard Nuclear Orientation (Angstroms)
    I     Atom           X                Y                Z
 ----------------------------------------------------------------
    1      Se      1.9633659687    -0.6513233321     0.3281130781
    2      C       1.0825904822    -1.2832265808     0.5150173518
    3      C      -0.6952791778    -1.0327557882    -0.4469081484
    4      C      -1.6627418967    -2.1168667903    -0.0407122389
    5      Se     -1.2487485335     0.7982107348    -0.0674785232
    6      H      -1.4858656362     0.5543475253     1.3760419490
    7      H       1.7543710730     0.7389691193     0.9397523106
    8      H       0.9794264915    -2.2781821636     0.0703517064
    9      H       0.4962263257    -1.5382464655     1.4398956319
   10      H      -0.4168112348    -1.0403510151    -1.5063687117
   11      H      -1.7302054182    -2.1859063398     1.0554210136
   12      H      -2.6829013788    -1.9704984460    -0.4144630726
   13      H      -1.3154270651    -3.0935704580    -0.4071623466
 ----------------------------------------------------------------

   11   -4920.6152585516      2.45e-07  Convergence criterion met
 Total energy in the final basis set =    -4920.6152585516

                    Orbital Energies (a.u.)
 --------------------------------------------------------------

 Alpha MOs
 -- Occupied --
*******-453.887 -58.135 -58.083 -52.190 -52.187 -52.187 -52.140
-52.139 -52.137 -10.273 -10.200 -10.185  -7.903  -7.816  -5.866
 -5.833  -5.828  -5.761  -5.757  -5.749  -2.218  -2.188  -2.182
 -2.159  -2.158  -2.095  -2.094  -2.087  -2.084  -2.083  -0.943
 -0.768  -0.686  -0.618  -0.572  -0.544  -0.465  -0.431  -0.427
 -0.402  -0.386  -0.350  -0.313  -0.268  -0.234  -0.167

 Beta MOs
 -- Occupied --
*******-453.887 -58.135 -58.083 -52.190 -52.187 -52.187 -52.140
-52.139 -52.137 -10.273 -10.200 -10.185  -7.903  -7.816  -5.866
 -5.833  -5.828  -5.761  -5.757  -5.749  -2.218  -2.188  -2.182
 -2.159  -2.158  -2.095  -2.094  -2.087  -2.084  -2.083  -0.943
 -0.768  -0.686  -0.618  -0.572  -0.544  -0.465  -0.431  -0.427
 -0.402  -0.386  -0.350  -0.313  -0.268  -0.234  -0.167

          Ground-State Mulliken Net Atomic Charges

     Atom                 Charge (a.u.)    Spin (a.u.)
  --------------------------------------------------------
      1 Se                    0.402576       0.000000
      2 C                    -0.449254      -0.000000
      3 C                    -0.270720       0.000000
      4 C                    -0.313515       0.000000
      5 Se                   -0.106055       0.000000
      6 H                     0.038831      -0.000000
      7 H                     0.007972      -0.000000
      8 H                     0.174515      -0.000000
      9 H                     0.086196      -0.000000
     10 H                     0.107840      -0.000000
     11 H                     0.100041       0.000000
     12 H                     0.126306       0.000000
     13 H                     0.095267      -0.000000
  --------------------------------------------------------
  Sum of atomic charges =     0.000000

                    Cartesian Multipole Moments
 -----------------------------------------------------------------
    Charge (ESU x 10^10)
                 0.0000
    Dipole Moment (Debye)
         X       0.3783      Y      -2.4837      Z       0.9756
       Tot       2.6951
    Quadrupole Moments (Debye-Ang)
        XX     -62.3418     XY      -0.4886     YY     -53.1851
        XZ      -0.5946     YZ       0.8085     ZZ     -54.7736

 Final energy is   -4920.61525855163
 **  OPTIMIZATION CONVERGED  **
 Total job time:  495.24s(wall), 5813.71s(cpu)
        *  Thank you very much for using Q-Chem.  Have a nice day.  *
