 Q-Chem 5.1, Q-Chem, Inc., Pleasanton, CA (2018)
 Q-Chem 5.1.1 for Intel X86 EM64T Linux

User input:
--------------------------------------------------------------

$comment
potential surface scanner
$end

$rem
JOBTYPE  PES_SCAN
UNRESTRICTED TRUE
SYM_IGNORE  TRUE
GEOM_OPT_MAX_CYCLES 400
SCF_MAX_CYCLES 400
METHOD   B3LYP
BASIS   6-31G**
PDB_PRINT 2
SCF_CONVERGENCE 6
THRESH 14
SCF_PRINT 1
$end
$molecule
0 3
Se 2.352879 0.557444 0.048907
C 0.453168 -1.247223 0.700267
C -0.709419 -1.047174 -0.217304
C -1.696998 -2.224687 -0.083422
Se -1.628417 0.706648 0.042441
H -2.359019 0.273638 1.253253
H 3.399200 -0.472345 0.248676
H 1.068029 -2.126263 0.518052
H 0.348427 -0.964676 1.742283
H -0.361114 -0.992306 -1.251485
H -2.089456 -2.303698 0.935178
H -2.539686 -2.088871 -0.765719
H -1.199596 -3.169885 -0.329625
$end
$scan
stre 1 2 5.700000 5.701000 0.100000
$end
--------------------------------------------------------------

   16   -4921.6155323240      7.21e-07  Convergence criterion met
 Total energy in the final basis set =    -4921.6155323240
   18   -4921.6201158272      6.83e-07  Convergence criterion met
 Total energy in the final basis set =    -4921.6201158272
   24   -4921.6231862983      2.13e-07  Convergence criterion met
 Total energy in the final basis set =    -4921.6231862983
   21   -4921.6255154308      7.05e-07  Convergence criterion met
 Total energy in the final basis set =    -4921.6255154308
   25   -4921.6275441327      9.63e-07  Convergence criterion met
 Total energy in the final basis set =    -4921.6275441327
   26   -4921.6290400577      1.93e-07  Convergence criterion met
 Total energy in the final basis set =    -4921.6290400577
   18   -4921.6299658129      9.79e-07  Convergence criterion met
 Total energy in the final basis set =    -4921.6299658129
   17   -4921.6305680608      8.75e-07  Convergence criterion met
   11   -4921.6404600669      6.74e-07  Convergence criterion met
 Total energy in the final basis set =    -4921.6404600669
   11   -4921.6404600352      6.58e-07  Convergence criterion met
 Total energy in the final basis set =    -4921.6404600352
   11   -4921.6404610576      6.43e-07  Convergence criterion met
 Total energy in the final basis set =    -4921.6404610576
   11   -4921.6404644313      6.36e-07  Convergence criterion met
 Total energy in the final basis set =    -4921.6404644313
   11   -4921.6404690383      6.34e-07  Convergence criterion met
 Total energy in the final basis set =    -4921.6404690383
   11   -4921.6404733321      6.34e-07  Convergence criterion met
 Total energy in the final basis set =    -4921.6404733321

             Standard Nuclear Orientation (Angstroms)
    I     Atom           X                Y                Z
 ----------------------------------------------------------------
    1      Se      3.6065302082     2.1412893466    -0.0173291973
    2      C       0.2096021057    -2.3954014977     0.5903901422
    3      C      -0.7494404315    -1.6779458806    -0.2241768906
    4      C      -2.2182274738    -2.0072497737     0.0125804020
    5      Se     -0.4431400329     0.3979598193     0.1055737977
    6      H      -0.6561396226     0.2781330205     1.5585614467
    7      H       2.3511764292     1.3402204023    -0.0111603862
    8      H       1.2484295698    -2.4718138489     0.2900186281
    9      H      -0.0498523372    -2.6970208088     1.6009207679
   10      H      -0.4942927672    -1.7029669563    -1.2868791511
   11      H      -2.4869721639    -1.8839616113     1.0667065719
   12      H      -2.8732626280    -1.3681196775    -0.5827732401
   13      H      -2.4064128558    -3.0525205339    -0.2609308912
 ----------------------------------------------------------------

   11   -4921.6404740062      6.26e-07  Convergence criterion met
 Total energy in the final basis set =    -4921.6404740062

                    Orbital Energies (a.u.)
 --------------------------------------------------------------

 Alpha MOs
 -- Occupied --
*******-453.898 -58.102 -58.093 -52.162 -52.159 -52.156 -52.151
-52.150 -52.147 -10.242 -10.209 -10.195  -7.836  -7.826  -5.785
 -5.777  -5.771  -5.769  -5.766  -5.759  -2.117  -2.116  -2.107
 -2.106  -2.105  -2.102  -2.100  -2.097  -2.095  -2.093  -0.816
 -0.701  -0.696  -0.690  -0.584  -0.481  -0.439  -0.431  -0.389
 -0.382  -0.378  -0.361  -0.337  -0.286  -0.243  -0.242  -0.206

 Beta MOs
 -- Occupied --
*******-453.897 -58.101 -58.093 -52.158 -52.157 -52.155 -52.150
-52.149 -52.147 -10.243 -10.197 -10.195  -7.833  -7.825  -5.776
 -5.776  -5.770  -5.767  -5.764  -5.758  -2.111  -2.111  -2.104
 -2.103  -2.102  -2.101  -2.098  -2.096  -2.093  -2.092  -0.808
 -0.692  -0.673  -0.661  -0.576  -0.476  -0.436  -0.426  -0.386
 -0.378  -0.369  -0.358  -0.317  -0.234  -0.230

          Ground-State Mulliken Net Atomic Charges

     Atom                 Charge (a.u.)    Spin (a.u.)
  --------------------------------------------------------
      1 Se                   -0.114704       1.026261
      2 C                    -0.197373       0.923885
      3 C                    -0.149391      -0.114839
      4 C                    -0.307561       0.007265
      5 Se                   -0.118333       0.261741
      6 H                     0.060504      -0.006488
      7 H                     0.095389      -0.026703
      8 H                     0.120244      -0.040743
      9 H                     0.111806      -0.040989
     10 H                     0.137714       0.012190
     11 H                     0.115000      -0.000946
     12 H                     0.128939       0.000931
     13 H                     0.117767      -0.001566
  --------------------------------------------------------
  Sum of atomic charges =    -0.000000

                    Cartesian Multipole Moments
 -----------------------------------------------------------------
    Charge (ESU x 10^10)
                 0.0000
    Dipole Moment (Debye)
         X      -1.7371      Y      -2.5301      Z       0.3520
       Tot       3.0891
    Quadrupole Moments (Debye-Ang)
        XX     -63.0509     XY      -1.7435     YY     -58.1089
        XZ      -1.5280     YZ       1.5779     ZZ     -56.2288

 Final energy is   -4921.64047400621
 **  OPTIMIZATION CONVERGED  **
 Total job time:  1018.06s(wall), 11828.01s(cpu)
        *  Thank you very much for using Q-Chem.  Have a nice day.  *
