 Q-Chem 5.1, Q-Chem, Inc., Pleasanton, CA (2018)
 Q-Chem 5.1.1 for Intel X86 EM64T Linux

User input:
--------------------------------------------------------------

$comment
potential surface scanner
$end

$rem
JOBTYPE  PES_SCAN
UNRESTRICTED TRUE
SYM_IGNORE  TRUE
GEOM_OPT_MAX_CYCLES 400
SCF_MAX_CYCLES 400
METHOD   B3LYP
BASIS   6-31G**
PDB_PRINT 2
SCF_CONVERGENCE 6
THRESH 14
SCF_PRINT 1
$end
$molecule
0 1
Se 2.123119 0.492823 0.152755
C 0.499927 -1.206502 0.640140
C -0.696925 -1.049379 -0.259056
C -1.666215 -2.228106 -0.072705
Se -1.621168 0.707068 -0.032497
H -2.137424 0.406450 1.319685
H 3.219375 -0.486596 0.330977
H 1.089284 -2.102370 0.444916
H 0.323280 -1.041758 1.699912
H -0.371473 -1.004990 -1.301735
H -2.034898 -2.282308 0.956671
H -2.527318 -2.128722 -0.737664
H -1.161565 -3.175008 -0.299896
$end
$scan
stre 1 2 2.500000 2.501000 0.100000
$end
--------------------------------------------------------------

   10   -4921.7071915879      3.66e-07  Convergence criterion met
 Total energy in the final basis set =    -4921.7071915879
   10   -4921.6985083198      5.02e-07  Convergence criterion met
 Total energy in the final basis set =    -4921.6985083198
   10   -4921.6984060679      5.20e-07  Convergence criterion met
 Total energy in the final basis set =    -4921.6984060679
   10   -4921.6984683140      5.41e-07  Convergence criterion met
 Total energy in the final basis set =    -4921.6984683140
   10   -4921.6984701248      5.43e-07  Convergence criterion met
 Total energy in the final basis set =    -4921.6984701248

             Standard Nuclear Orientation (Angstroms)
    I     Atom           X                Y                Z
 ----------------------------------------------------------------
    1      Se      2.1833070624     0.5296244563     0.1354843504
    2      C       0.4809064164    -1.2268580413     0.6518163163
    3      C      -0.7044364129    -1.0557108658    -0.2531865016
    4      C      -1.6809822820    -2.2325729024    -0.0761535520
    5      Se     -1.6237605908     0.7024502130    -0.0279476921
    6      H      -2.1520173266     0.3974736183     1.3186190774
    7      H       3.2675506812    -0.4617100523     0.3254764723
    8      H       1.0879098132    -2.1087204528     0.4519700196
    9      H       0.3241441902    -1.0357439823     1.7094343609
   10      H      -0.3714587034    -1.0138808362    -1.2934633958
   11      H      -2.0545815054    -2.2899432849     0.9511359382
   12      H      -2.5379972892    -2.1230953680    -0.7448031151
   13      H      -1.1805850531    -3.1807105017    -0.3068792785
 ----------------------------------------------------------------

   10   -4921.6984710312      5.43e-07  Convergence criterion met
 Total energy in the final basis set =    -4921.6984710312

                    Orbital Energies (a.u.)
 --------------------------------------------------------------

 Alpha MOs
 -- Occupied --
*******-453.888 -58.094 -58.082 -52.152 -52.151 -52.148 -52.140
-52.139 -52.136 -10.251 -10.246 -10.204  -7.828  -7.814  -5.773
 -5.770  -5.760  -5.759  -5.757  -5.746  -2.107  -2.107  -2.098
 -2.095  -2.094  -2.093  -2.093  -2.084  -2.082  -2.080  -0.825
 -0.707  -0.698  -0.658  -0.590  -0.480  -0.454  -0.428  -0.416
 -0.390  -0.364  -0.358  -0.320  -0.275  -0.232  -0.221

 Beta MOs
 -- Occupied --
*******-453.888 -58.094 -58.082 -52.152 -52.151 -52.148 -52.140
-52.139 -52.136 -10.251 -10.246 -10.204  -7.828  -7.814  -5.773
 -5.770  -5.760  -5.759  -5.757  -5.746  -2.107  -2.107  -2.098
 -2.095  -2.094  -2.093  -2.093  -2.084  -2.082  -2.080  -0.825
 -0.707  -0.698  -0.658  -0.590  -0.480  -0.454  -0.428  -0.416
 -0.390  -0.364  -0.358  -0.320  -0.275  -0.232  -0.221

          Ground-State Mulliken Net Atomic Charges

     Atom                 Charge (a.u.)    Spin (a.u.)
  --------------------------------------------------------
      1 Se                   -0.172631       0.000000
      2 C                    -0.209809       0.000000
      3 C                    -0.156327      -0.000000
      4 C                    -0.318346       0.000000
      5 Se                   -0.056232       0.000000
      6 H                     0.049690       0.000000
      7 H                     0.044314      -0.000000
      8 H                     0.140907       0.000000
      9 H                     0.154333      -0.000000
     10 H                     0.155155       0.000000
     11 H                     0.115716      -0.000000
     12 H                     0.140130      -0.000000
     13 H                     0.113099      -0.000000
  --------------------------------------------------------
  Sum of atomic charges =     0.000000

                    Cartesian Multipole Moments
 -----------------------------------------------------------------
    Charge (ESU x 10^10)
                 0.0000
    Dipole Moment (Debye)
         X      -1.0789      Y      -3.2967      Z       0.7098
       Tot       3.5407
    Quadrupole Moments (Debye-Ang)
        XX     -58.9657     XY      -1.4586     YY     -54.9137
        XZ      -1.9271     YZ      -0.8582     ZZ     -57.1781

 Final energy is   -4921.69847103120
 **  OPTIMIZATION CONVERGED  **
 Total job time:  39.60s(wall), 451.39s(cpu)
        *  Thank you very much for using Q-Chem.  Have a nice day.  *
