 Q-Chem 5.1, Q-Chem, Inc., Pleasanton, CA (2018)
 Q-Chem 5.1.1 for Intel X86 EM64T Linux

User input:
--------------------------------------------------------------

$comment
potential surface scanner
$end

$rem
JOBTYPE  PES_SCAN
UNRESTRICTED TRUE
SYM_IGNORE  TRUE
GEOM_OPT_MAX_CYCLES 400
SCF_MAX_CYCLES 400
METHOD   B3LYP
BASIS   6-31G**
PDB_PRINT 2
SCF_CONVERGENCE 6
THRESH 14
SCF_PRINT 1
$end
$molecule
0 3
Se 2.396326 0.964340 -0.004612
C 0.487392 -1.961141 0.213403
C -0.727125 -1.466920 -0.384457
C -2.041178 -1.998559 0.174797
Se -0.735832 0.674153 -0.151329
H -0.850058 0.589070 1.315920
H 2.388415 0.180883 1.252265
H 1.430529 -1.908490 -0.313994
H 0.501706 -2.244887 1.262190
H -0.700335 -1.487920 -1.476232
H -2.093282 -1.864828 1.260005
H -2.904395 -1.502407 -0.274301
H -2.114163 -3.072695 -0.032153
$end
$scan
stre 1 2 3.400000 3.401000 0.100000
$end
--------------------------------------------------------------

   11   -4921.6469712422      8.87e-07  Convergence criterion met
 Total energy in the final basis set =    -4921.6469712422
   11   -4921.6452655654      7.50e-07  Convergence criterion met
 Total energy in the final basis set =    -4921.6452655654
   11   -4921.6460171582      9.58e-07  Convergence criterion met
 Total energy in the final basis set =    -4921.6460171582
   11   -4921.6462007580      9.30e-07  Convergence criterion met
 Total energy in the final basis set =    -4921.6462007580
   11   -4921.6462186284      9.43e-07  Convergence criterion met
 Total energy in the final basis set =    -4921.6462186284
   11   -4921.6462314631      9.50e-07  Convergence criterion met
 Total energy in the final basis set =    -4921.6462314631
   11   -4921.6462423512      9.53e-07  Convergence criterion met
 Total energy in the final basis set =    -4921.6462423512
   11   -4921.6462488368      9.53e-07  Convergence criterion met
   11   -4921.6462602674      9.68e-07  Convergence criterion met
 Total energy in the final basis set =    -4921.6462602674
   11   -4921.6462619852      9.72e-07  Convergence criterion met
 Total energy in the final basis set =    -4921.6462619852
   11   -4921.6462634830      9.74e-07  Convergence criterion met
 Total energy in the final basis set =    -4921.6462634830
   11   -4921.6462648934      9.73e-07  Convergence criterion met
 Total energy in the final basis set =    -4921.6462648934
   11   -4921.6462662570      9.72e-07  Convergence criterion met
 Total energy in the final basis set =    -4921.6462662570
   11   -4921.6462674599      9.72e-07  Convergence criterion met
 Total energy in the final basis set =    -4921.6462674599

             Standard Nuclear Orientation (Angstroms)
    I     Atom           X                Y                Z
 ----------------------------------------------------------------
    1      Se      2.3737724178     0.9006786765     0.0597248079
    2      C       0.5040718943    -1.9365097095     0.1804892605
    3      C      -0.7261927768    -1.4621063681    -0.4001579227
    4      C      -2.0252822193    -1.9925112609     0.1939416952
    5      Se     -0.7508256159     0.6843546679    -0.1912789004
    6      H      -0.8932492615     0.6104425343     1.2738128496
    7      H       2.3543528128     0.1226470214     1.3198289380
    8      H       1.4303495072    -1.9168117202    -0.3769428643
    9      H       0.5455466555    -2.1884047846     1.2365129784
   10      H      -0.7217490468    -1.5002879696    -1.4916422943
   11      H      -2.0550552986    -1.8451673178     1.2782054570
   12      H      -2.9001947253    -1.5061906405    -0.2433135052
   13      H      -2.0975443433    -3.0695341288     0.0023215003
 ----------------------------------------------------------------

   11   -4921.6462683271      9.73e-07  Convergence criterion met
 Total energy in the final basis set =    -4921.6462683271

                    Orbital Energies (a.u.)
 --------------------------------------------------------------

 Alpha MOs
 -- Occupied --
*******-453.872 -58.115 -58.066 -52.173 -52.172 -52.170 -52.125
-52.123 -52.120 -10.250 -10.214 -10.205  -7.849  -7.800  -5.792
 -5.790  -5.784  -5.745  -5.743  -5.731  -2.126  -2.125  -2.120
 -2.118  -2.117  -2.079  -2.079  -2.069  -2.068  -2.066  -0.825
 -0.714  -0.706  -0.663  -0.591  -0.488  -0.447  -0.438  -0.403
 -0.391  -0.372  -0.358  -0.342  -0.296  -0.222  -0.210  -0.205

 Beta MOs
 -- Occupied --
*******-453.870 -58.114 -58.065 -52.172 -52.170 -52.169 -52.123
-52.121 -52.120 -10.252 -10.205 -10.202  -7.847  -7.797  -5.791
 -5.787  -5.781  -5.742  -5.738  -5.730  -2.124  -2.123  -2.118
 -2.115  -2.114  -2.075  -2.074  -2.067  -2.065  -2.064  -0.817
 -0.702  -0.684  -0.637  -0.582  -0.483  -0.444  -0.433  -0.397
 -0.387  -0.369  -0.347  -0.323  -0.260  -0.206

          Ground-State Mulliken Net Atomic Charges

     Atom                 Charge (a.u.)    Spin (a.u.)
  --------------------------------------------------------
      1 Se                   -0.243356       0.787359
      2 C                    -0.196544       0.885246
      3 C                    -0.153663      -0.119950
      4 C                    -0.317214       0.009506
      5 Se                    0.013659       0.545637
      6 H                     0.069392      -0.016120
      7 H                     0.043086      -0.021655
      8 H                     0.154380      -0.039233
      9 H                     0.112227      -0.039591
     10 H                     0.144437       0.008688
     11 H                     0.116432      -0.001425
     12 H                     0.130736       0.002027
     13 H                     0.126427      -0.000488
  --------------------------------------------------------
  Sum of atomic charges =     0.000000

                    Cartesian Multipole Moments
 -----------------------------------------------------------------
    Charge (ESU x 10^10)
                 0.0000
    Dipole Moment (Debye)
         X      -2.9763      Y      -2.8881      Z       0.6877
       Tot       4.2039
    Quadrupole Moments (Debye-Ang)
        XX     -63.3235     XY      -1.6290     YY     -58.3471
        XZ       0.4024     YZ      -0.6675     ZZ     -54.1379

 Final energy is   -4921.64626832713
 **  OPTIMIZATION CONVERGED  **
 Total job time:  133.75s(wall), 1500.81s(cpu)
        *  Thank you very much for using Q-Chem.  Have a nice day.  *
