 Q-Chem 5.1, Q-Chem, Inc., Pleasanton, CA (2018)
 Q-Chem 5.1.1 for Intel X86 EM64T Linux

User input:
--------------------------------------------------------------

$comment
potential surface scanner
$end

$rem
JOBTYPE  PES_SCAN
UNRESTRICTED TRUE
SYM_IGNORE  TRUE
GEOM_OPT_MAX_CYCLES 400
SCF_MAX_CYCLES 400
METHOD   B3LYP
BASIS   6-31G**
PDB_PRINT 2
SCF_CONVERGENCE 6
THRESH 14
SCF_PRINT 1
$end
$molecule
0 3
Se 3.490579 1.432241 0.262818
C 0.361013 -2.069847 0.439447
C -0.767429 -1.531657 -0.295899
C -2.141826 -2.065640 0.092434
Se -0.741158 0.568972 -0.047123
H -0.920055 0.474653 1.412548
H 2.215701 0.667890 0.262071
H 1.364289 -2.025080 0.030992
H 0.250215 -2.350954 1.482584
H -0.612295 -1.565255 -1.377391
H -2.324013 -1.945741 1.165126
H -2.939823 -1.552600 -0.448458
H -2.197198 -3.136386 -0.137651
$end
$scan
stre 1 2 4.600000 4.601000 0.100000
$end
--------------------------------------------------------------

   23   -4921.6403555382      7.50e-07  Convergence criterion met
 Total energy in the final basis set =    -4921.6403555382
   23   -4921.6397467653      6.18e-07  Convergence criterion met
 Total energy in the final basis set =    -4921.6397467653
   23   -4921.6401351959      7.57e-07  Convergence criterion met
 Total energy in the final basis set =    -4921.6401351959
   23   -4921.6402654094      8.49e-07  Convergence criterion met
 Total energy in the final basis set =    -4921.6402654094
   23   -4921.6402684017      7.94e-07  Convergence criterion met
 Total energy in the final basis set =    -4921.6402684017
   23   -4921.6402711392      6.72e-07  Convergence criterion met
 Total energy in the final basis set =    -4921.6402711392
   23   -4921.6402730639      5.44e-07  Convergence criterion met
 Total energy in the final basis set =    -4921.6402730639
   23   -4921.6402746672      4.28e-07  Convergence criterion met
   22   -4921.6402761913      8.31e-07  Convergence criterion met
 Total energy in the final basis set =    -4921.6402761913
   22   -4921.6402778266      6.86e-07  Convergence criterion met
 Total energy in the final basis set =    -4921.6402778266
   22   -4921.6402795856      5.63e-07  Convergence criterion met
 Total energy in the final basis set =    -4921.6402795856
   22   -4921.6402814381      4.64e-07  Convergence criterion met
 Total energy in the final basis set =    -4921.6402814381
   22   -4921.6402831146      3.98e-07  Convergence criterion met
 Total energy in the final basis set =    -4921.6402831146
   22   -4921.6402842096      3.71e-07  Convergence criterion met
 Total energy in the final basis set =    -4921.6402842096

             Standard Nuclear Orientation (Angstroms)
    I     Atom           X                Y                Z
 ----------------------------------------------------------------
    1      Se      3.4606921863     1.3703454436     0.3016931674
    2      C       0.3770749360    -2.0410591146     0.4184266188
    3      C      -0.7672093492    -1.5207028594    -0.3062398223
    4      C      -2.1303512082    -2.0653859759     0.1065162056
    5      Se     -0.7599758067     0.5805173761    -0.0779846668
    6      H      -0.9430796263     0.4980207495     1.3821729000
    7      H       2.1890788107     0.6019974813     0.3093844305
    8      H       1.3729424372    -1.9993998041    -0.0078544359
    9      H       0.2831590534    -2.3176951067     1.4643228124
   10      H      -0.6265591849    -1.5648486932    -1.3893567437
   11      H      -2.2995855328    -1.9346995447     1.1801327285
   12      H      -2.9410743864    -1.5672236139    -0.4293788816
   13      H      -2.1771123291    -3.1392703379    -0.1103363130
 ----------------------------------------------------------------

   22   -4921.6402848434      3.61e-07  Convergence criterion met
 Total energy in the final basis set =    -4921.6402848434

                    Orbital Energies (a.u.)
 --------------------------------------------------------------

 Alpha MOs
 -- Occupied --
*******-453.900 -58.102 -58.095 -52.161 -52.158 -52.155 -52.152
-52.151 -52.149 -10.243 -10.210 -10.196  -7.836  -7.828  -5.784
 -5.777  -5.773  -5.770  -5.766  -5.761  -2.116  -2.115  -2.107
 -2.106  -2.106  -2.102  -2.100  -2.099  -2.096  -2.095  -0.817
 -0.702  -0.695  -0.691  -0.585  -0.482  -0.439  -0.431  -0.390
 -0.384  -0.380  -0.361  -0.337  -0.286  -0.244  -0.242  -0.206

 Beta MOs
 -- Occupied --
*******-453.899 -58.101 -58.094 -52.158 -52.157 -52.154 -52.152
-52.151 -52.148 -10.244 -10.198 -10.196  -7.832  -7.827  -5.775
 -5.775  -5.772  -5.768  -5.764  -5.760  -2.111  -2.110  -2.106
 -2.105  -2.101  -2.101  -2.098  -2.098  -2.095  -2.094  -0.810
 -0.694  -0.674  -0.661  -0.577  -0.478  -0.436  -0.426  -0.387
 -0.379  -0.370  -0.359  -0.319  -0.235  -0.230

          Ground-State Mulliken Net Atomic Charges

     Atom                 Charge (a.u.)    Spin (a.u.)
  --------------------------------------------------------
      1 Se                   -0.115461       1.018654
      2 C                    -0.204658       0.931078
      3 C                    -0.151540      -0.111325
      4 C                    -0.309683       0.007641
      5 Se                   -0.101772       0.259893
      6 H                     0.060127      -0.006451
      7 H                     0.089098      -0.027067
      8 H                     0.120043      -0.041406
      9 H                     0.112984      -0.041430
     10 H                     0.138588       0.011384
     11 H                     0.114144      -0.000926
     12 H                     0.129342       0.001116
     13 H                     0.118788      -0.001160
  --------------------------------------------------------
  Sum of atomic charges =     0.000000

                    Cartesian Multipole Moments
 -----------------------------------------------------------------
    Charge (ESU x 10^10)
                 0.0000
    Dipole Moment (Debye)
         X      -1.6379      Y      -2.3792      Z       0.3684
       Tot       2.9119
    Quadrupole Moments (Debye-Ang)
        XX     -63.0913     XY      -0.8946     YY     -57.3071
        XZ      -0.5149     YZ      -0.6271     ZZ     -56.7726

 Final energy is   -4921.64028484343
 **  OPTIMIZATION CONVERGED  **
 Total job time:  161.38s(wall), 1898.45s(cpu)
        *  Thank you very much for using Q-Chem.  Have a nice day.  *
