 Q-Chem 5.1, Q-Chem, Inc., Pleasanton, CA (2018)
 Q-Chem 5.1.1 for Intel X86 EM64T Linux

User input:
--------------------------------------------------------------

$comment
potential surface scanner
$end

$rem
JOBTYPE  PES_SCAN
UNRESTRICTED TRUE
SYM_IGNORE  TRUE
GEOM_OPT_MAX_CYCLES 400
SCF_MAX_CYCLES 400
METHOD   B3LYP
BASIS   6-31G**
PDB_PRINT 2
SCF_CONVERGENCE 6
THRESH 14
SCF_PRINT 1
$end
$molecule
0 3
Se 3.439241 1.307962 0.390840
C 0.394801 -2.005818 0.374964
C -0.775986 -1.514827 -0.327933
C -2.119704 -2.068364 0.133886
Se -0.790061 0.589951 -0.141744
H -0.966073 0.534518 1.321117
H 2.180193 0.520851 0.397019
H 1.377168 -1.964930 -0.081633
H 0.333694 -2.262816 1.428238
H -0.665011 -1.579890 -1.413423
H -2.261055 -1.916619 1.208814
H -2.951444 -1.592264 -0.389714
H -2.157763 -3.147160 -0.058933
$end
$scan
stre 1 2 4.400000 4.401000 0.100000
$end
--------------------------------------------------------------

   21   -4921.6402072847      6.75e-07  Convergence criterion met
 Total energy in the final basis set =    -4921.6402072847
   18   -4921.6398008752      6.58e-07  Convergence criterion met
 Total energy in the final basis set =    -4921.6398008752
   18   -4921.6400419938      9.81e-07  Convergence criterion met
 Total energy in the final basis set =    -4921.6400419938
   19   -4921.6401125881      9.59e-07  Convergence criterion met
 Total energy in the final basis set =    -4921.6401125881
   21   -4921.6401187226      4.24e-07  Convergence criterion met
 Total energy in the final basis set =    -4921.6401187226
   21   -4921.6401263461      3.86e-07  Convergence criterion met
 Total energy in the final basis set =    -4921.6401263461
   20   -4921.6401348878      8.39e-07  Convergence criterion met
 Total energy in the final basis set =    -4921.6401348878
   19   -4921.6401395262      5.20e-07  Convergence criterion met
 Total energy in the final basis set =    -4921.6401395262
   17   -4921.6401382386      9.97e-07  Convergence criterion met
 Total energy in the final basis set =    -4921.6401382386

             Standard Nuclear Orientation (Angstroms)
    I     Atom           X                Y                Z
 ----------------------------------------------------------------
    1      Se      3.3994632029     1.2486405076     0.5049872845
    2      C       0.4128394578    -1.9771900969     0.3203284899
    3      C      -0.7860267342    -1.5155712428    -0.3546398122
    4      C      -2.1078968772    -2.0676759432     0.1675758671
    5      Se     -0.8137851017     0.5934925358    -0.2248500428
    6      H      -0.9542341025     0.5782913533     1.2432793937
    7      H       2.1487139604     0.4501565862     0.5085756330
    8      H       1.3784079668    -1.9389498154    -0.1707493457
    9      H       0.3891699366    -2.2103870836     1.3806789406
   10      H      -0.7112221400    -1.6080067388    -1.4412464722
   11      H      -2.2141608359    -1.8870282320     1.2420625188
   12      H      -2.9612122504    -1.6134343463    -0.3404178172
   13      H      -2.1420564827    -3.1517434839     0.0059133624
 ----------------------------------------------------------------

   17   -4921.6401389694      9.76e-07  Convergence criterion met
 Total energy in the final basis set =    -4921.6401389694

                    Orbital Energies (a.u.)
 --------------------------------------------------------------

 Alpha MOs
 -- Occupied --
*******-453.900 -58.102 -58.095 -52.162 -52.159 -52.156 -52.152
-52.151 -52.149 -10.243 -10.210 -10.197  -7.836  -7.828  -5.785
 -5.778  -5.773  -5.770  -5.766  -5.761  -2.117  -2.116  -2.107
 -2.107  -2.106  -2.102  -2.100  -2.099  -2.096  -2.095  -0.817
 -0.702  -0.696  -0.692  -0.585  -0.482  -0.439  -0.432  -0.391
 -0.384  -0.380  -0.362  -0.337  -0.286  -0.244  -0.243  -0.207

 Beta MOs
 -- Occupied --
*******-453.899 -58.101 -58.094 -52.158 -52.158 -52.155 -52.152
-52.151 -52.148 -10.244 -10.198 -10.196  -7.833  -7.827  -5.776
 -5.776  -5.772  -5.768  -5.765  -5.760  -2.111  -2.111  -2.106
 -2.105  -2.102  -2.101  -2.098  -2.098  -2.095  -2.094  -0.810
 -0.694  -0.674  -0.662  -0.577  -0.478  -0.436  -0.427  -0.387
 -0.380  -0.370  -0.359  -0.319  -0.235  -0.231

          Ground-State Mulliken Net Atomic Charges

     Atom                 Charge (a.u.)    Spin (a.u.)
  --------------------------------------------------------
      1 Se                   -0.112925       1.016080
      2 C                    -0.208795       0.929086
      3 C                    -0.150976      -0.111211
      4 C                    -0.310318       0.007699
      5 Se                   -0.097935       0.264565
      6 H                     0.058849      -0.006678
      7 H                     0.084624      -0.027115
      8 H                     0.123075      -0.041422
      9 H                     0.113109      -0.041460
     10 H                     0.138692       0.011401
     11 H                     0.114033      -0.000926
     12 H                     0.129605       0.001076
     13 H                     0.118963      -0.001096
  --------------------------------------------------------
  Sum of atomic charges =     0.000000

                    Cartesian Multipole Moments
 -----------------------------------------------------------------
    Charge (ESU x 10^10)
                 0.0000
    Dipole Moment (Debye)
         X      -1.5804      Y      -2.3546      Z       0.3846
       Tot       2.8618
    Quadrupole Moments (Debye-Ang)
        XX     -63.0159     XY      -0.5152     YY     -57.3581
        XZ      -0.5780     YZ      -0.6337     ZZ     -56.5830

 Final energy is   -4921.64013896939
 **  OPTIMIZATION CONVERGED  **
 Total job time:  99.98s(wall), 1114.38s(cpu)
        *  Thank you very much for using Q-Chem.  Have a nice day.  *
