 Q-Chem 5.1, Q-Chem, Inc., Pleasanton, CA (2018)
 Q-Chem 5.1.1 for Intel X86 EM64T Linux

User input:
--------------------------------------------------------------

$comment
potential surface scanner
$end

$rem
JOBTYPE  PES_SCAN
UNRESTRICTED TRUE
SYM_IGNORE  TRUE
GEOM_OPT_MAX_CYCLES 400
SCF_MAX_CYCLES 400
METHOD   B3LYP
BASIS   6-31G**
PDB_PRINT 2
SCF_CONVERGENCE 6
THRESH 14
SCF_PRINT 1
$end
$molecule
0 1
Se 1.870900 0.175900 -0.051900
C 0.575300 -1.200000 0.467400
C -0.687000 -1.059800 -0.385600
C -1.647200 -2.208000 -0.068200
Se -1.558500 0.649900 0.013200
H -1.851500 0.486400 1.536700
H 3.049900 -0.144000 0.918300
H 1.011300 -2.186800 0.311700
H 0.318200 -1.078300 1.519600
H -0.417700 -1.092800 -1.441300
H -1.916600 -2.175000 0.987500
H -2.546500 -2.108100 -0.675900
H -1.162600 -3.158800 -0.290000
$end
$scan
stre 1 2 1.600000 1.601000 0.100000
$end
--------------------------------------------------------------

   10   -4921.7171930318      4.57e-07  Convergence criterion met
 Total energy in the final basis set =    -4921.7171930318
   10   -4921.7133446033      4.67e-07  Convergence criterion met
 Total energy in the final basis set =    -4921.7133446033
   10   -4921.6872331771      4.63e-07  Convergence criterion met
 Total energy in the final basis set =    -4921.6872331771
   10   -4921.6521408399      4.87e-07  Convergence criterion met
 Total energy in the final basis set =    -4921.6521408399
   10   -4921.6519113325      4.88e-07  Convergence criterion met
 Total energy in the final basis set =    -4921.6519113325
   10   -4921.6527096175      4.85e-07  Convergence criterion met
 Total energy in the final basis set =    -4921.6527096175
   10   -4921.6527818899      4.84e-07  Convergence criterion met
 Total energy in the final basis set =    -4921.6527818899
   10   -4921.6528959311      4.81e-07  Convergence criterion met
   10   -4921.6534409036      4.86e-07  Convergence criterion met
 Total energy in the final basis set =    -4921.6534409036
   10   -4921.6534607406      4.86e-07  Convergence criterion met
 Total energy in the final basis set =    -4921.6534607406
   10   -4921.6534679536      4.86e-07  Convergence criterion met
 Total energy in the final basis set =    -4921.6534679536
   10   -4921.6534737249      4.86e-07  Convergence criterion met
 Total energy in the final basis set =    -4921.6534737249
   10   -4921.6534765220      4.86e-07  Convergence criterion met
 Total energy in the final basis set =    -4921.6534765220
   10   -4921.6534784230      4.86e-07  Convergence criterion met
 Total energy in the final basis set =    -4921.6534784230

             Standard Nuclear Orientation (Angstroms)
    I     Atom           X                Y                Z
 ----------------------------------------------------------------
    1      Se      1.6821807321     0.1404939221     0.2198226916
    2      C       0.6493046447    -1.0484334644     0.5019905131
    3      C      -0.6692972108    -1.0016792255    -0.3230549361
    4      C      -1.5658717690    -2.2012404825    -0.0262385075
    5      Se     -1.6631481275     0.7261652807    -0.0964545516
    6      H      -1.8890712567     0.5316396693     1.3485975794
    7      H       2.9269419752    -0.5389613540     0.6453350785
    8      H       1.0441939210    -2.0465763006     0.2610561668
    9      H       0.3118255759    -1.1578734411     1.5496752086
   10      H      -0.4165877217    -0.9707014339    -1.3884757280
   11      H      -1.8628483633    -2.2243948257     1.0272528809
   12      H      -2.4739117938    -2.1711145443    -0.6318518875
   13      H      -1.0357106059    -3.1367238002    -0.2461545082
 ----------------------------------------------------------------

   10   -4921.6534793895      4.86e-07  Convergence criterion met
 Total energy in the final basis set =    -4921.6534793895

                    Orbital Energies (a.u.)
 --------------------------------------------------------------

 Alpha MOs
 -- Occupied --
*******-453.886 -58.091 -58.084 -52.149 -52.148 -52.145 -52.142
-52.140 -52.138 -10.242 -10.212 -10.195  -7.825  -7.822  -5.770
 -5.768  -5.766  -5.763  -5.757  -5.754  -2.104  -2.103  -2.103
 -2.101  -2.095  -2.094  -2.092  -2.091  -2.089  -2.088  -0.859
 -0.776  -0.696  -0.639  -0.579  -0.482  -0.465  -0.442  -0.417
 -0.393  -0.369  -0.358  -0.326  -0.302  -0.233  -0.212

 Beta MOs
 -- Occupied --
*******-453.886 -58.091 -58.084 -52.149 -52.148 -52.145 -52.142
-52.140 -52.138 -10.242 -10.212 -10.195  -7.825  -7.822  -5.770
 -5.768  -5.766  -5.763  -5.757  -5.754  -2.104  -2.103  -2.103
 -2.101  -2.095  -2.094  -2.092  -2.091  -2.089  -2.088  -0.859
 -0.776  -0.696  -0.639  -0.579  -0.482  -0.465  -0.442  -0.417
 -0.393  -0.369  -0.358  -0.326  -0.302  -0.233  -0.212

          Ground-State Mulliken Net Atomic Charges

     Atom                 Charge (a.u.)    Spin (a.u.)
  --------------------------------------------------------
      1 Se                   -0.078707       0.000000
      2 C                    -0.174722       0.000000
      3 C                    -0.185463       0.000000
      4 C                    -0.308268       0.000000
      5 Se                   -0.072495      -0.000000
      6 H                     0.052330       0.000000
      7 H                     0.033601       0.000000
      8 H                     0.127020       0.000000
      9 H                     0.110387      -0.000000
     10 H                     0.143076       0.000000
     11 H                     0.114543      -0.000000
     12 H                     0.131478      -0.000000
     13 H                     0.107221      -0.000000
  --------------------------------------------------------
  Sum of atomic charges =     0.000000

                    Cartesian Multipole Moments
 -----------------------------------------------------------------
    Charge (ESU x 10^10)
                 0.0000
    Dipole Moment (Debye)
         X      -0.0859      Y      -2.8006      Z       0.7654
       Tot       2.9046
    Quadrupole Moments (Debye-Ang)
        XX     -58.1253     XY      -1.1072     YY     -55.8412
        XZ      -0.5106     YZ      -0.2400     ZZ     -56.2447

 Final energy is   -4921.65347938948
 **  OPTIMIZATION CONVERGED  **
 Total job time:  156.23s(wall), 1829.97s(cpu)
        *  Thank you very much for using Q-Chem.  Have a nice day.  *
