 Q-Chem 5.1, Q-Chem, Inc., Pleasanton, CA (2018)
 Q-Chem 5.1.1 for Intel X86 EM64T Linux

User input:
--------------------------------------------------------------

$comment
potential surface scanner
$end

$rem
JOBTYPE  PES_SCAN
UNRESTRICTED TRUE
SYM_IGNORE  TRUE
GEOM_OPT_MAX_CYCLES 400
SCF_MAX_CYCLES 400
METHOD   B3LYP
BASIS   6-31G**
PDB_PRINT 2
SCF_CONVERGENCE 6
THRESH 14
SCF_PRINT 1
$end
$molecule
0 1
Se 1.870900 0.175900 -0.051900
C 0.575300 -1.200000 0.467400
C -0.687000 -1.059800 -0.385600
C -1.647200 -2.208000 -0.068200
Se -1.558500 0.649900 0.013200
H -1.851500 0.486400 1.536700
H 3.049900 -0.144000 0.918300
H 1.011300 -2.186800 0.311700
H 0.318200 -1.078300 1.519600
H -0.417700 -1.092800 -1.441300
H -1.916600 -2.175000 0.987500
H -2.546500 -2.108100 -0.675900
H -1.162600 -3.158800 -0.290000
$end
$scan
stre 1 2 1.500000 1.501000 0.100000
$end
--------------------------------------------------------------

   10   -4921.7171930318      4.57e-07  Convergence criterion met
 Total energy in the final basis set =    -4921.7171930318
   10   -4921.7133446033      4.67e-07  Convergence criterion met
 Total energy in the final basis set =    -4921.7133446033
   10   -4921.6872331771      4.63e-07  Convergence criterion met
 Total energy in the final basis set =    -4921.6872331771
   10   -4921.6268283755      5.06e-07  Convergence criterion met
 Total energy in the final basis set =    -4921.6268283755
   10   -4921.5842933686      5.39e-07  Convergence criterion met
 Total energy in the final basis set =    -4921.5842933686
   10   -4921.5833049949      5.41e-07  Convergence criterion met
 Total energy in the final basis set =    -4921.5833049949
   10   -4921.5837168892      5.41e-07  Convergence criterion met
 Total energy in the final basis set =    -4921.5837168892
   10   -4921.5837545839      5.39e-07  Convergence criterion met
   10   -4921.5838273884      5.38e-07  Convergence criterion met
 Total energy in the final basis set =    -4921.5838273884
   10   -4921.5838343473      5.39e-07  Convergence criterion met
 Total energy in the final basis set =    -4921.5838343473
   10   -4921.5838372905      5.39e-07  Convergence criterion met
 Total energy in the final basis set =    -4921.5838372905
   10   -4921.5838392110      5.38e-07  Convergence criterion met
 Total energy in the final basis set =    -4921.5838392110
   10   -4921.5838406665      5.39e-07  Convergence criterion met
 Total energy in the final basis set =    -4921.5838406665
   10   -4921.5838418215      5.39e-07  Convergence criterion met
 Total energy in the final basis set =    -4921.5838418215

             Standard Nuclear Orientation (Angstroms)
    I     Atom           X                Y                Z
 ----------------------------------------------------------------
    1      Se      1.6598798934     0.0435868587     0.1333879555
    2      C       0.6856740075    -1.0506350493     0.4552595545
    3      C      -0.6687699452    -0.9936550849    -0.3374230591
    4      C      -1.5562639524    -2.1953597669    -0.0191990395
    5      Se     -1.6693959677     0.7258903111    -0.0868153553
    6      H      -1.8491724978     0.5329163457     1.3643479338
    7      H       2.8750539258    -0.4510725036     0.8244194698
    8      H       1.0029168738    -2.0857577260     0.2242449606
    9      H       0.3416678470    -1.1504822763     1.5071588965
   10      H      -0.4436634511    -0.9660752973    -1.4095544185
   11      H      -1.8219116282    -2.2212416443     1.0424579306
   12      H      -2.4814762152    -2.1563175307    -0.5971800222
   13      H      -1.0365388899    -3.1311966361    -0.2596048067
 ----------------------------------------------------------------

   10   -4921.5838427237      5.39e-07  Convergence criterion met
 Total energy in the final basis set =    -4921.5838427237

                    Orbital Energies (a.u.)
 --------------------------------------------------------------

 Alpha MOs
 -- Occupied --
*******-453.883 -58.091 -58.083 -52.149 -52.148 -52.145 -52.141
-52.139 -52.137 -10.246 -10.210 -10.196  -7.825  -7.823  -5.770
 -5.770  -5.766  -5.764  -5.756  -5.755  -2.107  -2.104  -2.103
 -2.103  -2.095  -2.095  -2.092  -2.091  -2.091  -2.090  -0.879
 -0.783  -0.696  -0.638  -0.580  -0.486  -0.474  -0.444  -0.421
 -0.396  -0.373  -0.360  -0.323  -0.300  -0.233  -0.205

 Beta MOs
 -- Occupied --
*******-453.883 -58.091 -58.083 -52.149 -52.148 -52.145 -52.141
-52.139 -52.137 -10.246 -10.210 -10.196  -7.825  -7.823  -5.770
 -5.770  -5.766  -5.764  -5.756  -5.755  -2.107  -2.104  -2.103
 -2.103  -2.095  -2.095  -2.092  -2.091  -2.091  -2.090  -0.879
 -0.783  -0.696  -0.638  -0.580  -0.486  -0.474  -0.444  -0.421
 -0.396  -0.373  -0.360  -0.323  -0.300  -0.233  -0.205

          Ground-State Mulliken Net Atomic Charges

     Atom                 Charge (a.u.)    Spin (a.u.)
  --------------------------------------------------------
      1 Se                   -0.078644      -0.000000
      2 C                    -0.149379      -0.000000
      3 C                    -0.201422       0.000000
      4 C                    -0.307068      -0.000000
      5 Se                   -0.067699      -0.000000
      6 H                     0.052049       0.000000
      7 H                     0.031097      -0.000000
      8 H                     0.117007       0.000000
      9 H                     0.102235       0.000000
     10 H                     0.144531      -0.000000
     11 H                     0.115643       0.000000
     12 H                     0.132782       0.000000
     13 H                     0.108868       0.000000
  --------------------------------------------------------
  Sum of atomic charges =    -0.000000

                    Cartesian Multipole Moments
 -----------------------------------------------------------------
    Charge (ESU x 10^10)
                -0.0000
    Dipole Moment (Debye)
         X      -0.1815      Y      -2.7126      Z       0.9593
       Tot       2.8830
    Quadrupole Moments (Debye-Ang)
        XX     -58.6480     XY      -0.6469     YY     -56.0203
        XZ       0.3453     YZ      -0.1978     ZZ     -55.5397

 Final energy is   -4921.58384272366
 **  OPTIMIZATION CONVERGED  **
 Total job time:  127.91s(wall), 1438.51s(cpu)
        *  Thank you very much for using Q-Chem.  Have a nice day.  *
