 Q-Chem 5.1, Q-Chem, Inc., Pleasanton, CA (2018)
 Q-Chem 5.1.1 for Intel X86 EM64T Linux

User input:
--------------------------------------------------------------

$comment
potential surface scanner
$end

$rem
JOBTYPE  PES_SCAN
UNRESTRICTED TRUE
SYM_IGNORE  TRUE
GEOM_OPT_MAX_CYCLES 400
SCF_MAX_CYCLES 400
METHOD   B3LYP
BASIS   6-31G**
PDB_PRINT 2
SCF_CONVERGENCE 6
THRESH 14
SCF_PRINT 1
$end
$molecule
0 3
Se 3.583021 2.071633 -0.010152
C 0.223524 -2.368865 0.586303
C -0.746314 -1.661817 -0.225566
C -2.210452 -2.009780 0.013025
Se -0.462238 0.414644 0.106589
H -0.672232 0.291441 1.559437
H 2.322448 1.278480 -0.006733
H 1.262412 -2.433011 0.283964
H -0.029268 -2.672264 1.598104
H -0.493203 -1.683359 -1.288792
H -2.478880 -1.893434 1.067715
H -2.874411 -1.376766 -0.578961
H -2.386409 -3.056302 -0.263430
$end
$scan
stre 1 2 5.500000 5.501000 0.100000
$end
--------------------------------------------------------------

   11   -4921.6404974563      6.78e-07  Convergence criterion met
 Total energy in the final basis set =    -4921.6404974563
   11   -4921.6404617274      6.55e-07  Convergence criterion met
 Total energy in the final basis set =    -4921.6404617274
   11   -4921.6404780034      6.62e-07  Convergence criterion met
 Total energy in the final basis set =    -4921.6404780034
   11   -4921.6404922897      6.85e-07  Convergence criterion met
 Total energy in the final basis set =    -4921.6404922897
   11   -4921.6404966848      7.00e-07  Convergence criterion met
 Total energy in the final basis set =    -4921.6404966848
   11   -4921.6405017198      7.25e-07  Convergence criterion met
 Total energy in the final basis set =    -4921.6405017198
   11   -4921.6405031032      7.30e-07  Convergence criterion met
 Total energy in the final basis set =    -4921.6405031032
   11   -4921.6405043658      7.33e-07  Convergence criterion met
 Total energy in the final basis set =    -4921.6405043658
   11   -4921.6405053709      7.34e-07  Convergence criterion met
 Total energy in the final basis set =    -4921.6405053709
   11   -4921.6405066796      7.36e-07  Convergence criterion met
 Total energy in the final basis set =    -4921.6405066796

             Standard Nuclear Orientation (Angstroms)
    I     Atom           X                Y                Z
 ----------------------------------------------------------------
    1      Se      3.5770836850     1.9959542641    -0.0092873716
    2      C       0.2374091164    -2.3337306254     0.5826609900
    3      C      -0.7459428710    -1.6408904575    -0.2257074619
    4      C      -2.2030200298    -2.0180595636     0.0127261297
    5      Se     -0.4998254102     0.4380539616     0.1137437135
    6      H      -0.7057412790     0.3062761231     1.5661596451
    7      H       2.3144268834     1.2062474645    -0.0055561530
    8      H       1.2765798772    -2.3804167288     0.2781309862
    9      H      -0.0086905414    -2.6446233209     1.5938261665
   10      H      -0.4932995361    -1.6543977331    -1.2891888636
   11      H      -2.4720941410    -1.9134979466     1.0684550914
   12      H      -2.8797545598    -1.3942586711    -0.5745782158
   13      H      -2.3591331936    -3.0660567662    -0.2698816567
 ----------------------------------------------------------------

   11   -4921.6405072769      7.37e-07  Convergence criterion met
 Total energy in the final basis set =    -4921.6405072769

                    Orbital Energies (a.u.)
 --------------------------------------------------------------

 Alpha MOs
 -- Occupied --
*******-453.899 -58.101 -58.094 -52.161 -52.158 -52.155 -52.151
-52.150 -52.148 -10.242 -10.209 -10.196  -7.835  -7.827  -5.784
 -5.776  -5.772  -5.769  -5.765  -5.760  -2.116  -2.115  -2.106
 -2.106  -2.105  -2.101  -2.099  -2.098  -2.095  -2.094  -0.816
 -0.701  -0.695  -0.690  -0.584  -0.481  -0.439  -0.431  -0.389
 -0.382  -0.378  -0.361  -0.337  -0.286  -0.243  -0.242  -0.206

 Beta MOs
 -- Occupied --
*******-453.898 -58.100 -58.093 -52.157 -52.157 -52.154 -52.151
-52.150 -52.147 -10.244 -10.197 -10.195  -7.832  -7.826  -5.775
 -5.775  -5.771  -5.767  -5.764  -5.759  -2.110  -2.110  -2.105
 -2.104  -2.101  -2.100  -2.097  -2.097  -2.094  -2.093  -0.809
 -0.693  -0.673  -0.660  -0.576  -0.476  -0.436  -0.426  -0.386
 -0.378  -0.369  -0.358  -0.318  -0.235  -0.230

          Ground-State Mulliken Net Atomic Charges

     Atom                 Charge (a.u.)    Spin (a.u.)
  --------------------------------------------------------
      1 Se                   -0.116905       1.025470
      2 C                    -0.197897       0.926416
      3 C                    -0.149896      -0.113780
      4 C                    -0.307729       0.007278
      5 Se                   -0.115384       0.258877
      6 H                     0.061015      -0.006395
      7 H                     0.095229      -0.026503
      8 H                     0.119737      -0.040880
      9 H                     0.111997      -0.041088
     10 H                     0.137911       0.012040
     11 H                     0.115026      -0.000931
     12 H                     0.128903       0.000983
     13 H                     0.117995      -0.001487
  --------------------------------------------------------
  Sum of atomic charges =    -0.000000

                    Cartesian Multipole Moments
 -----------------------------------------------------------------
    Charge (ESU x 10^10)
                 0.0000
    Dipole Moment (Debye)
         X      -1.7447      Y      -2.5248      Z       0.3461
       Tot       3.0884
    Quadrupole Moments (Debye-Ang)
        XX     -63.0674     XY      -1.8423     YY     -57.7446
        XZ      -1.3656     YZ       1.2945     ZZ     -56.6824

 Final energy is   -4921.64050727686
 **  OPTIMIZATION CONVERGED  **
 Total job time:  68.54s(wall), 792.48s(cpu)
        *  Thank you very much for using Q-Chem.  Have a nice day.  *
