 Q-Chem 5.1, Q-Chem, Inc., Pleasanton, CA (2018)
 Q-Chem 5.1.1 for Intel X86 EM64T Linux

User input:
--------------------------------------------------------------

$comment
potential surface scanner
$end

$rem
JOBTYPE  PES_SCAN
UNRESTRICTED TRUE
SYM_IGNORE  TRUE
GEOM_OPT_MAX_CYCLES 400
SCF_MAX_CYCLES 400
METHOD   B3LYP
BASIS   6-31G**
PDB_PRINT 2
SCF_CONVERGENCE 6
THRESH 14
SCF_PRINT 1
$end
$molecule
0 3
Se 2.404514 0.127521 0.986565
C 0.428007 -1.866414 -0.070621
C -0.827160 -1.918686 -0.571834
C -2.060536 -2.209930 0.227563
Se -0.326622 1.049555 -0.147547
H -1.005428 0.648782 1.101964
H 2.660123 1.516655 1.423372
H 1.283805 -1.728952 -0.720263
H 0.619360 -2.039096 0.982634
H -0.965147 -1.792160 -1.644662
H -1.851132 -2.250401 1.300405
H -2.838064 -1.459462 0.047935
H -2.483722 -3.176815 -0.074010
$end
$scan
stre 1 2 2.900000 2.901000 0.100000
$end
--------------------------------------------------------------

   15   -4921.6485291422      4.59e-07  Convergence criterion met
 Total energy in the final basis set =    -4921.6485291422
   15   -4921.6455774312      4.72e-07  Convergence criterion met
 Total energy in the final basis set =    -4921.6455774312
   15   -4921.6457030495      4.96e-07  Convergence criterion met
 Total energy in the final basis set =    -4921.6457030495
   15   -4921.6459250434      5.52e-07  Convergence criterion met
 Total energy in the final basis set =    -4921.6459250434
   15   -4921.6459457651      5.55e-07  Convergence criterion met
 Total energy in the final basis set =    -4921.6459457651
   15   -4921.6459767549      5.45e-07  Convergence criterion met
 Total energy in the final basis set =    -4921.6459767549
   15   -4921.6459955801      5.26e-07  Convergence criterion met
 Total energy in the final basis set =    -4921.6459955801
   15   -4921.6460048887      5.10e-07  Convergence criterion met
   16   -4921.6461511662      8.54e-07  Convergence criterion met
 Total energy in the final basis set =    -4921.6461511662
   16   -4921.6461528582      8.67e-07  Convergence criterion met
 Total energy in the final basis set =    -4921.6461528582
   16   -4921.6461543088      8.78e-07  Convergence criterion met
 Total energy in the final basis set =    -4921.6461543088
   16   -4921.6461558020      8.87e-07  Convergence criterion met
 Total energy in the final basis set =    -4921.6461558020
   16   -4921.6461573516      8.92e-07  Convergence criterion met
 Total energy in the final basis set =    -4921.6461573516
   16   -4921.6461586153      8.91e-07  Convergence criterion met
 Total energy in the final basis set =    -4921.6461586153

             Standard Nuclear Orientation (Angstroms)
    I     Atom           X                Y                Z
 ----------------------------------------------------------------
    1      Se      2.2900310568     0.0978040134     0.9283028060
    2      C       0.4795658895    -1.9417214583    -0.0578775770
    3      C      -0.7819539301    -1.8699324816    -0.5417166107
    4      C      -2.0221318303    -2.1605492807     0.2504808500
    5      Se     -0.4022591793     1.0774906585    -0.1917130603
    6      H      -1.0829927199     0.6590085260     1.0510326613
    7      H       2.5331190615     1.4777960906     1.4058945673
    8      H       1.3327735622    -1.8129645495    -0.7120772993
    9      H       0.6717645874    -2.2134332950     0.9742533253
   10      H      -0.9215556891    -1.6735928452    -1.6036554582
   11      H      -1.8081926431    -2.2536472225     1.3191152019
   12      H      -2.7801003948    -1.3829770388     0.1102115283
   13      H      -2.4700697710    -3.1026841169    -0.0907499345
 ----------------------------------------------------------------

   16   -4921.6461595305      8.88e-07  Convergence criterion met
 Total energy in the final basis set =    -4921.6461595305

                    Orbital Energies (a.u.)
 --------------------------------------------------------------

 Alpha MOs
 -- Occupied --
*******-453.871 -58.115 -58.066 -52.174 -52.172 -52.171 -52.125
-52.123 -52.120 -10.229 -10.216 -10.204  -7.849  -7.800  -5.793
 -5.791  -5.784  -5.745  -5.743  -5.732  -2.126  -2.126  -2.120
 -2.119  -2.118  -2.079  -2.078  -2.070  -2.069  -2.066  -0.817
 -0.717  -0.709  -0.663  -0.582  -0.493  -0.448  -0.436  -0.397
 -0.392  -0.374  -0.358  -0.317  -0.294  -0.251  -0.218  -0.202

 Beta MOs
 -- Occupied --
*******-453.870 -58.114 -58.065 -52.171 -52.170 -52.168 -52.122
-52.121 -52.120 -10.228 -10.213 -10.204  -7.845  -7.797  -5.789
 -5.785  -5.780  -5.742  -5.738  -5.730  -2.122  -2.121  -2.116
 -2.114  -2.113  -2.075  -2.074  -2.068  -2.065  -2.064  -0.811
 -0.710  -0.678  -0.636  -0.579  -0.491  -0.446  -0.434  -0.395
 -0.381  -0.373  -0.347  -0.285  -0.256  -0.206

          Ground-State Mulliken Net Atomic Charges

     Atom                 Charge (a.u.)    Spin (a.u.)
  --------------------------------------------------------
      1 Se                   -0.260431       0.777862
      2 C                    -0.212869       0.175066
      3 C                    -0.051132       0.056070
      4 C                    -0.355538      -0.003836
      5 Se                   -0.054164       1.058548
      6 H                     0.074681      -0.029990
      7 H                     0.050324      -0.021269
      8 H                     0.150813      -0.007922
      9 H                     0.144990      -0.007698
     10 H                     0.123683      -0.001876
     11 H                     0.123210      -0.000077
     12 H                     0.132236       0.004804
     13 H                     0.134195       0.000319
  --------------------------------------------------------
  Sum of atomic charges =     0.000000

                    Cartesian Multipole Moments
 -----------------------------------------------------------------
    Charge (ESU x 10^10)
                 0.0000
    Dipole Moment (Debye)
         X      -3.0140      Y      -1.6110      Z      -0.4145
       Tot       3.4426
    Quadrupole Moments (Debye-Ang)
        XX     -61.6807     XY       2.7066     YY     -53.4257
        XZ      -2.4664     YZ       1.8217     ZZ     -58.0047

 Final energy is   -4921.64615953053
 **  OPTIMIZATION CONVERGED  **
 Total job time:  283.72s(wall), 3330.06s(cpu)
        *  Thank you very much for using Q-Chem.  Have a nice day.  *
