 Q-Chem 5.1, Q-Chem, Inc., Pleasanton, CA (2018)
 Q-Chem 5.1.1 for Intel X86 EM64T Linux

User input:
--------------------------------------------------------------

$comment
potential surface scanner
$end

$rem
JOBTYPE  PES_SCAN
UNRESTRICTED TRUE
SYM_IGNORE  TRUE
GEOM_OPT_MAX_CYCLES 400
SCF_MAX_CYCLES 400
METHOD   B3LYP
BASIS   6-31G**
PDB_PRINT 2
SCF_CONVERGENCE 6
THRESH 14
SCF_PRINT 1
$end
$molecule
0 1
Se 2.183307 0.529624 0.135484
C 0.480906 -1.226858 0.651816
C -0.704436 -1.055711 -0.253187
C -1.680982 -2.232573 -0.076154
Se -1.623761 0.702450 -0.027948
H -2.152017 0.397474 1.318619
H 3.267551 -0.461710 0.325476
H 1.087910 -2.108720 0.451970
H 0.324144 -1.035744 1.709434
H -0.371459 -1.013881 -1.293463
H -2.054582 -2.289943 0.951136
H -2.537997 -2.123095 -0.744803
H -1.180585 -3.180711 -0.306879
$end
$scan
stre 1 2 2.600000 2.601000 0.100000
$end
--------------------------------------------------------------

   10   -4921.6984710402      5.43e-07  Convergence criterion met
 Total energy in the final basis set =    -4921.6984710402
   10   -4921.6897519572      9.51e-07  Convergence criterion met
 Total energy in the final basis set =    -4921.6897519572
   10   -4921.6896216450      9.69e-07  Convergence criterion met
 Total energy in the final basis set =    -4921.6896216450
   10   -4921.6896916001      9.98e-07  Convergence criterion met
 Total energy in the final basis set =    -4921.6896916001
   11   -4921.6896942678      1.78e-07  Convergence criterion met
 Total energy in the final basis set =    -4921.6896942678
   11   -4921.6896968325      1.79e-07  Convergence criterion met
 Total energy in the final basis set =    -4921.6896968325
   11   -4921.6896992012      1.79e-07  Convergence criterion met
 Total energy in the final basis set =    -4921.6896992012
   11   -4921.6897028946      1.77e-07  Convergence criterion met
 Total energy in the final basis set =    -4921.6897028946
   10   -4921.6897050743      9.98e-07  Convergence criterion met
 Total energy in the final basis set =    -4921.6897050743

             Standard Nuclear Orientation (Angstroms)
    I     Atom           X                Y                Z
 ----------------------------------------------------------------
    1      Se      2.2622596775     0.5460799012     0.0924006337
    2      C       0.4608130998    -1.2351830436     0.6771148744
    3      C      -0.7106396111    -1.0538737262    -0.2385938616
    4      C      -1.6888789934    -2.2347511562    -0.0851047383
    5      Se     -1.6339351253     0.7002581465    -0.0036729187
    6      H      -2.2135129329     0.3577945488     1.3124297545
    7      H       3.3263698312    -0.4656135404     0.2912268559
    8      H       1.0732119193    -2.1157064557     0.4918250296
    9      H       0.3262696245    -0.9936976741     1.7266700983
   10      H      -0.3660639330    -1.0052935113    -1.2746092404
   11      H      -2.0724285129    -2.3060345487     0.9375176068
   12      H      -2.5389215221    -2.1140048872    -0.7608234134
   13      H      -1.1865445217    -3.1793720531    -0.3248796809
 ----------------------------------------------------------------

   10   -4921.6897056523      9.97e-07  Convergence criterion met
 Total energy in the final basis set =    -4921.6897056523

                    Orbital Energies (a.u.)
 --------------------------------------------------------------

 Alpha MOs
 -- Occupied --
*******-453.886 -58.096 -58.080 -52.153 -52.152 -52.149 -52.138
-52.137 -52.134 -10.255 -10.248 -10.206  -7.829  -7.812  -5.775
 -5.771  -5.761  -5.757  -5.755  -5.744  -2.108  -2.108  -2.099
 -2.096  -2.095  -2.091  -2.091  -2.082  -2.080  -2.078  -0.827
 -0.706  -0.699  -0.657  -0.592  -0.482  -0.457  -0.430  -0.417
 -0.391  -0.366  -0.357  -0.321  -0.268  -0.233  -0.219

 Beta MOs
 -- Occupied --
*******-453.886 -58.096 -58.080 -52.153 -52.152 -52.149 -52.138
-52.137 -52.134 -10.255 -10.248 -10.206  -7.829  -7.812  -5.775
 -5.771  -5.761  -5.757  -5.755  -5.744  -2.108  -2.108  -2.099
 -2.096  -2.095  -2.091  -2.091  -2.082  -2.080  -2.078  -0.827
 -0.706  -0.699  -0.657  -0.592  -0.482  -0.457  -0.430  -0.417
 -0.391  -0.366  -0.357  -0.321  -0.268  -0.233  -0.219

          Ground-State Mulliken Net Atomic Charges

     Atom                 Charge (a.u.)    Spin (a.u.)
  --------------------------------------------------------
      1 Se                   -0.201593       0.000000
      2 C                    -0.193766       0.000000
      3 C                    -0.159301      -0.000000
      4 C                    -0.320368       0.000000
      5 Se                   -0.053045      -0.000000
      6 H                     0.049301       0.000000
      7 H                     0.045354       0.000000
      8 H                     0.143260      -0.000000
      9 H                     0.158341       0.000000
     10 H                     0.158957       0.000000
     11 H                     0.116499      -0.000000
     12 H                     0.141846      -0.000000
     13 H                     0.114514      -0.000000
  --------------------------------------------------------
  Sum of atomic charges =    -0.000000

                    Cartesian Multipole Moments
 -----------------------------------------------------------------
    Charge (ESU x 10^10)
                 0.0000
    Dipole Moment (Debye)
         X      -1.3345      Y      -3.4372      Z       0.7597
       Tot       3.7646
    Quadrupole Moments (Debye-Ang)
        XX     -59.3212     XY      -1.5829     YY     -54.7713
        XZ      -1.9424     YZ      -1.0206     ZZ     -57.2077

 Final energy is   -4921.68970565232
 **  OPTIMIZATION CONVERGED  **
 Total job time:  65.97s(wall), 769.24s(cpu)
        *  Thank you very much for using Q-Chem.  Have a nice day.  *
