 Q-Chem 5.1, Q-Chem, Inc., Pleasanton, CA (2018)
 Q-Chem 5.1.1 for Intel X86 EM64T Linux

User input:
--------------------------------------------------------------

$comment
potential surface scanner
$end

$rem
JOBTYPE  PES_SCAN
UNRESTRICTED TRUE
SYM_IGNORE  TRUE
GEOM_OPT_MAX_CYCLES 400
SCF_MAX_CYCLES 400
METHOD   B3LYP
BASIS   6-31G**
PDB_PRINT 2
SCF_CONVERGENCE 6
THRESH 14
SCF_PRINT 1
$end
$molecule
0 3
Se 3.460692 1.370345 0.301693
C 0.377075 -2.041059 0.418427
C -0.767209 -1.520703 -0.306240
C -2.130351 -2.065386 0.106516
Se -0.759976 0.580517 -0.077985
H -0.943080 0.498021 1.382173
H 2.189079 0.601997 0.309384
H 1.372942 -1.999400 -0.007854
H 0.283159 -2.317695 1.464323
H -0.626559 -1.564849 -1.389357
H -2.299586 -1.934700 1.180133
H -2.941074 -1.567224 -0.429379
H -2.177112 -3.139270 -0.110336
$end
$scan
stre 1 2 4.500000 4.501000 0.100000
$end
--------------------------------------------------------------

   22   -4921.6402848426      3.61e-07  Convergence criterion met
 Total energy in the final basis set =    -4921.6402848426
   18   -4921.6396411111      9.45e-07  Convergence criterion met
 Total energy in the final basis set =    -4921.6396411111
   22   -4921.6400369488      4.21e-07  Convergence criterion met
 Total energy in the final basis set =    -4921.6400369488
   22   -4921.6401686575      4.35e-07  Convergence criterion met
 Total energy in the final basis set =    -4921.6401686575
   22   -4921.6401719617      3.97e-07  Convergence criterion met
 Total energy in the final basis set =    -4921.6401719617
   22   -4921.6401755052      3.14e-07  Convergence criterion met
 Total energy in the final basis set =    -4921.6401755052
   21   -4921.6401785396      9.49e-07  Convergence criterion met
 Total energy in the final basis set =    -4921.6401785396
   21   -4921.6401817970      9.15e-07  Convergence criterion met
   21   -4921.6401856224      9.06e-07  Convergence criterion met
 Total energy in the final basis set =    -4921.6401856224
   21   -4921.6401903873      8.58e-07  Convergence criterion met
 Total energy in the final basis set =    -4921.6401903873
   21   -4921.6401958393      7.80e-07  Convergence criterion met
 Total energy in the final basis set =    -4921.6401958393
   21   -4921.6402011311      7.15e-07  Convergence criterion met
 Total energy in the final basis set =    -4921.6402011311
   21   -4921.6402047890      6.85e-07  Convergence criterion met
 Total energy in the final basis set =    -4921.6402047890
   21   -4921.6402064866      6.77e-07  Convergence criterion met
 Total energy in the final basis set =    -4921.6402064866

             Standard Nuclear Orientation (Angstroms)
    I     Atom           X                Y                Z
 ----------------------------------------------------------------
    1      Se      3.4392407339     1.3079619666     0.3908403373
    2      C       0.3948009272    -2.0058179474     0.3749637844
    3      C      -0.7759860864    -1.5148269702    -0.3279330510
    4      C      -2.1197041084    -2.0683639002     0.1338857504
    5      Se     -0.7900609444     0.5899505738    -0.1417440950
    6      H      -0.9660731896     0.5345180879     1.3211165740
    7      H       2.1801928686     0.5208513578     0.3970189787
    8      H       1.3771683226    -1.9649303874    -0.0816330080
    9      H       0.3336944351    -2.2628160853     1.4282379128
   10      H      -0.6650111198    -1.5798899633    -1.4134231656
   11      H      -2.2610550965    -1.9166191481     1.2088140148
   12      H      -2.9514439648    -1.5922639327    -0.3897135014
   13      H      -2.1577627775    -3.1471596516    -0.0589325314
 ----------------------------------------------------------------

   21   -4921.6402072847      6.75e-07  Convergence criterion met
 Total energy in the final basis set =    -4921.6402072847

                    Orbital Energies (a.u.)
 --------------------------------------------------------------

 Alpha MOs
 -- Occupied --
*******-453.900 -58.102 -58.095 -52.162 -52.159 -52.156 -52.152
-52.151 -52.149 -10.242 -10.210 -10.197  -7.836  -7.828  -5.784
 -5.777  -5.773  -5.770  -5.766  -5.761  -2.117  -2.116  -2.107
 -2.107  -2.106  -2.102  -2.100  -2.099  -2.096  -2.095  -0.817
 -0.702  -0.696  -0.691  -0.585  -0.482  -0.439  -0.432  -0.391
 -0.384  -0.380  -0.361  -0.337  -0.286  -0.244  -0.243  -0.206

 Beta MOs
 -- Occupied --
*******-453.899 -58.101 -58.094 -52.158 -52.157 -52.155 -52.152
-52.151 -52.148 -10.244 -10.198 -10.196  -7.833  -7.827  -5.776
 -5.776  -5.772  -5.768  -5.765  -5.760  -2.111  -2.111  -2.106
 -2.105  -2.102  -2.101  -2.098  -2.098  -2.095  -2.094  -0.810
 -0.694  -0.674  -0.661  -0.577  -0.478  -0.436  -0.427  -0.387
 -0.380  -0.370  -0.359  -0.319  -0.235  -0.230

          Ground-State Mulliken Net Atomic Charges

     Atom                 Charge (a.u.)    Spin (a.u.)
  --------------------------------------------------------
      1 Se                   -0.114043       1.017288
      2 C                    -0.206469       0.930530
      3 C                    -0.151339      -0.111135
      4 C                    -0.310094       0.007699
      5 Se                   -0.099822       0.261887
      6 H                     0.059516      -0.006574
      7 H                     0.087147      -0.027147
      8 H                     0.121026      -0.041460
      9 H                     0.113095      -0.041463
     10 H                     0.138593       0.011297
     11 H                     0.114014      -0.000926
     12 H                     0.129479       0.001121
     13 H                     0.118898      -0.001116
  --------------------------------------------------------
  Sum of atomic charges =    -0.000000

                    Cartesian Multipole Moments
 -----------------------------------------------------------------
    Charge (ESU x 10^10)
                 0.0000
    Dipole Moment (Debye)
         X      -1.6072      Y      -2.3666      Z       0.3749
       Tot       2.8852
    Quadrupole Moments (Debye-Ang)
        XX     -63.0307     XY      -0.7222     YY     -57.3189
        XZ      -0.5638     YZ      -0.6319     ZZ     -56.7032

 Final energy is   -4921.64020728468
 **  OPTIMIZATION CONVERGED  **
 Total job time:  153.30s(wall), 1803.63s(cpu)
        *  Thank you very much for using Q-Chem.  Have a nice day.  *
