 Q-Chem 5.1, Q-Chem, Inc., Pleasanton, CA (2018)
 Q-Chem 5.1.1 for Intel X86 EM64T Linux

User input:
--------------------------------------------------------------

$comment
potential surface scanner
$end

$rem
JOBTYPE  PES_SCAN
UNRESTRICTED TRUE
SYM_IGNORE  TRUE
GEOM_OPT_MAX_CYCLES 400
SCF_MAX_CYCLES 400
METHOD   B3LYP
BASIS   6-31G**
PDB_PRINT 2
SCF_CONVERGENCE 6
THRESH 14
SCF_PRINT 1
$end
$molecule
0 3
Se 3.501862 1.490810 0.123093
C 0.338302 -2.098747 0.506455
C -0.752116 -1.527271 -0.260170
C -2.145902 -2.061611 0.050247
Se -0.720824 0.565081 0.053221
H -0.915752 0.430610 1.507008
H 2.231680 0.717475 0.123582
H 1.359825 -2.049057 0.146783
H 0.177998 -2.414559 1.533087
H -0.549232 -1.528263 -1.334313
H -2.372199 -1.979384 1.117916
H -2.916126 -1.521682 -0.504380
H -2.199517 -3.122808 -0.221029
$end
$scan
stre 1 2 4.700000 4.701000 0.100000
$end
--------------------------------------------------------------

   11   -4921.6403508692      9.93e-07  Convergence criterion met
 Total energy in the final basis set =    -4921.6403508692
   13   -4921.6397293525      9.83e-07  Convergence criterion met
 Total energy in the final basis set =    -4921.6397293525
   13   -4921.6401321329      9.81e-07  Convergence criterion met
 Total energy in the final basis set =    -4921.6401321329
   13   -4921.6402671409      9.92e-07  Convergence criterion met
 Total energy in the final basis set =    -4921.6402671409
   13   -4921.6402712127      9.99e-07  Convergence criterion met
 Total energy in the final basis set =    -4921.6402712127
   15   -4921.6402779914      9.74e-07  Convergence criterion met
 Total energy in the final basis set =    -4921.6402779914
   15   -4921.6402824234      9.91e-07  Convergence criterion met
 Total energy in the final basis set =    -4921.6402824234
   15   -4921.6402855925      9.98e-07  Convergence criterion met
   22   -4921.6403381270      9.81e-07  Convergence criterion met
 Total energy in the final basis set =    -4921.6403381270
   22   -4921.6403413442      9.52e-07  Convergence criterion met
 Total energy in the final basis set =    -4921.6403413442
   23   -4921.6403461210      4.78e-07  Convergence criterion met
 Total energy in the final basis set =    -4921.6403461210
   23   -4921.6403504478      5.80e-07  Convergence criterion met
 Total energy in the final basis set =    -4921.6403504478
   23   -4921.6403533691      6.96e-07  Convergence criterion met
 Total energy in the final basis set =    -4921.6403533691
   23   -4921.6403547139      7.50e-07  Convergence criterion met
 Total energy in the final basis set =    -4921.6403547139

             Standard Nuclear Orientation (Angstroms)
    I     Atom           X                Y                Z
 ----------------------------------------------------------------
    1      Se      3.4905786572     1.4322407586     0.2628181020
    2      C       0.3610125407    -2.0698474214     0.4394467646
    3      C      -0.7674291624    -1.5316574976    -0.2958986788
    4      C      -2.1418264386    -2.0656403915     0.0924343722
    5      Se     -0.7411580626     0.5689722215    -0.0471225962
    6      H      -0.9200553526     0.4746534721     1.4125480150
    7      H       2.2157008387     0.6678903508     0.2620710980
    8      H       1.3642891450    -2.0250803488     0.0309919650
    9      H       0.2502150326    -2.3509544881     1.4825844006
   10      H      -0.6122948342    -1.5652548276    -1.3773908675
   11      H      -2.3240130677    -1.9457414703     1.1651260807
   12      H      -2.9398225774    -1.5525998695    -0.4484581152
   13      H      -2.1971977187    -3.1363864881    -0.1376505405
 ----------------------------------------------------------------

   23   -4921.6403555384      7.50e-07  Convergence criterion met
 Total energy in the final basis set =    -4921.6403555384

                    Orbital Energies (a.u.)
 --------------------------------------------------------------

 Alpha MOs
 -- Occupied --
*******-453.899 -58.102 -58.095 -52.162 -52.159 -52.155 -52.152
-52.151 -52.149 -10.242 -10.210 -10.196  -7.836  -7.828  -5.784
 -5.777  -5.773  -5.770  -5.766  -5.760  -2.117  -2.116  -2.107
 -2.107  -2.106  -2.102  -2.100  -2.098  -2.096  -2.094  -0.817
 -0.702  -0.696  -0.691  -0.585  -0.482  -0.439  -0.431  -0.390
 -0.383  -0.379  -0.361  -0.337  -0.286  -0.244  -0.242  -0.206

 Beta MOs
 -- Occupied --
*******-453.899 -58.101 -58.094 -52.158 -52.157 -52.155 -52.151
-52.150 -52.148 -10.244 -10.198 -10.196  -7.833  -7.827  -5.776
 -5.775  -5.772  -5.768  -5.764  -5.760  -2.111  -2.110  -2.105
 -2.105  -2.101  -2.101  -2.098  -2.097  -2.095  -2.094  -0.809
 -0.693  -0.674  -0.661  -0.576  -0.477  -0.436  -0.426  -0.387
 -0.379  -0.370  -0.359  -0.319  -0.235  -0.230

          Ground-State Mulliken Net Atomic Charges

     Atom                 Charge (a.u.)    Spin (a.u.)
  --------------------------------------------------------
      1 Se                   -0.115332       1.020014
      2 C                    -0.203228       0.929708
      3 C                    -0.151358      -0.111784
      4 C                    -0.309299       0.007558
      5 Se                   -0.104145       0.260051
      6 H                     0.060336      -0.006415
      7 H                     0.090271      -0.027006
      8 H                     0.119371      -0.041210
      9 H                     0.112718      -0.041259
     10 H                     0.138511       0.011422
     11 H                     0.114232      -0.000925
     12 H                     0.129230       0.001070
     13 H                     0.118692      -0.001224
  --------------------------------------------------------
  Sum of atomic charges =    -0.000000

                    Cartesian Multipole Moments
 -----------------------------------------------------------------
    Charge (ESU x 10^10)
                 0.0000
    Dipole Moment (Debye)
         X      -1.6350      Y      -2.3819      Z       0.3629
       Tot       2.9118
    Quadrupole Moments (Debye-Ang)
        XX     -63.0963     XY      -0.9875     YY     -57.3294
        XZ      -0.4658     YZ      -0.6086     ZZ     -56.8116

 Final energy is   -4921.64035553836
 **  OPTIMIZATION CONVERGED  **
 Total job time:  202.51s(wall), 2325.04s(cpu)
        *  Thank you very much for using Q-Chem.  Have a nice day.  *
