 Q-Chem 5.1, Q-Chem, Inc., Pleasanton, CA (2018)
 Q-Chem 5.1.1 for Intel X86 EM64T Linux

User input:
--------------------------------------------------------------

$comment
potential surface scanner
$end

$rem
JOBTYPE  PES_SCAN
UNRESTRICTED TRUE
SYM_IGNORE  TRUE
GEOM_OPT_MAX_CYCLES 400
SCF_MAX_CYCLES 400
METHOD   B3LYP
BASIS   6-31G**
PDB_PRINT 2
SCF_CONVERGENCE 6
THRESH 14
SCF_PRINT 1
$end
$molecule
0 3
Se 3.544417 1.774669 0.010053
C 0.278879 -2.233612 0.566783
C -0.744112 -1.584073 -0.229719
C -2.178538 -2.037616 0.016177
Se -0.597737 0.498050 0.120947
H -0.795096 0.350847 1.572797
H 2.274649 0.997437 0.009964
H 1.315985 -2.232974 0.251727
H 0.056779 -2.561415 1.578104
H -0.499255 -1.580235 -1.295179
H -2.443329 -1.958145 1.075127
H -2.891221 -1.443089 -0.558977
H -2.283421 -3.089248 -0.276300
$end
$scan
stre 1 2 5.100000 5.101000 0.100000
$end
--------------------------------------------------------------

   11   -4921.6404879781      8.39e-07  Convergence criterion met
 Total energy in the final basis set =    -4921.6404879781
   11   -4921.6404244274      8.12e-07  Convergence criterion met
 Total energy in the final basis set =    -4921.6404244274
   11   -4921.6404360398      8.18e-07  Convergence criterion met
 Total energy in the final basis set =    -4921.6404360398
   11   -4921.6404441363      8.38e-07  Convergence criterion met
 Total energy in the final basis set =    -4921.6404441363
   11   -4921.6404463997      8.50e-07  Convergence criterion met
 Total energy in the final basis set =    -4921.6404463997
   11   -4921.6404512303      8.81e-07  Convergence criterion met
 Total energy in the final basis set =    -4921.6404512303
   11   -4921.6404529676      8.89e-07  Convergence criterion met
 Total energy in the final basis set =    -4921.6404529676
   11   -4921.6404549645      8.95e-07  Convergence criterion met
 Total energy in the final basis set =    -4921.6404549645
   11   -4921.6404564281      8.98e-07  Convergence criterion met
 Total energy in the final basis set =    -4921.6404564281
   11   -4921.6404592080      9.04e-07  Convergence criterion met
 Total energy in the final basis set =    -4921.6404592080
   11   -4921.6404613079      9.08e-07  Convergence criterion met
 Total energy in the final basis set =    -4921.6404613079
   11   -4921.6404627072      9.12e-07  Convergence criterion met
 Total energy in the final basis set =    -4921.6404627072

             Standard Nuclear Orientation (Angstroms)
    I     Atom           X                Y                Z
 ----------------------------------------------------------------
    1      Se      3.5309301786     1.7044125146     0.0349395398
    2      C       0.2942233436    -2.2026706457     0.5530421434
    3      C      -0.7442329334    -1.5700690485    -0.2369767065
    4      C      -2.1701846042    -2.0424971922     0.0238030411
    5      Se     -0.6267028998     0.5150293031     0.1054154112
    6      H      -0.8227814146     0.3700072200     1.5577179248
    7      H       2.2577426696     0.9331891990     0.0377636048
    8      H       1.3279710954    -2.1943005245     0.2270015721
    9      H       0.0861631237    -2.5264312048     1.5686441502
   10      H      -0.5090415837    -1.5668456759    -1.3045678480
   11      H      -2.4256493986    -1.9633232223     1.0850915144
   12      H      -2.8965107847    -1.4595037699    -0.5461090729
   13      H      -2.2639267918    -3.0964009527    -0.2642612747
 ----------------------------------------------------------------

   11   -4921.6404636289      9.16e-07  Convergence criterion met
 Total energy in the final basis set =    -4921.6404636289

                    Orbital Energies (a.u.)
 --------------------------------------------------------------

 Alpha MOs
 -- Occupied --
*******-453.899 -58.101 -58.094 -52.161 -52.158 -52.155 -52.152
-52.151 -52.148 -10.242 -10.210 -10.196  -7.835  -7.828  -5.783
 -5.776  -5.773  -5.770  -5.765  -5.760  -2.116  -2.115  -2.107
 -2.106  -2.106  -2.101  -2.099  -2.098  -2.096  -2.094  -0.817
 -0.701  -0.695  -0.691  -0.585  -0.482  -0.439  -0.431  -0.390
 -0.383  -0.378  -0.361  -0.338  -0.285  -0.243  -0.242  -0.206

 Beta MOs
 -- Occupied --
*******-453.899 -58.100 -58.094 -52.157 -52.156 -52.154 -52.151
-52.150 -52.148 -10.244 -10.198 -10.196  -7.832  -7.827  -5.775
 -5.775  -5.771  -5.768  -5.764  -5.760  -2.110  -2.110  -2.105
 -2.104  -2.100  -2.100  -2.097  -2.097  -2.095  -2.093  -0.809
 -0.693  -0.674  -0.660  -0.576  -0.477  -0.436  -0.426  -0.387
 -0.379  -0.369  -0.358  -0.319  -0.235  -0.229

          Ground-State Mulliken Net Atomic Charges

     Atom                 Charge (a.u.)    Spin (a.u.)
  --------------------------------------------------------
      1 Se                   -0.117886       1.022982
      2 C                    -0.199197       0.930044
      3 C                    -0.151193      -0.112411
      4 C                    -0.308031       0.007453
      5 Se                   -0.109521       0.256560
      6 H                     0.061260      -0.006304
      7 H                     0.093463      -0.026486
      8 H                     0.118547      -0.041169
      9 H                     0.112551      -0.041271
     10 H                     0.138106       0.011747
     11 H                     0.114778      -0.000922
     12 H                     0.128917       0.001107
     13 H                     0.118206      -0.001330
  --------------------------------------------------------
  Sum of atomic charges =     0.000000

                    Cartesian Multipole Moments
 -----------------------------------------------------------------
    Charge (ESU x 10^10)
                 0.0000
    Dipole Moment (Debye)
         X      -1.7063      Y      -2.4768      Z       0.3389
       Tot       3.0267
    Quadrupole Moments (Debye-Ang)
        XX     -63.0920     XY      -1.6549     YY     -57.2816
        XZ      -1.1274     YZ       0.7668     ZZ     -57.0881

 Final energy is   -4921.64046362886
 **  OPTIMIZATION CONVERGED  **
 Total job time:  80.95s(wall), 941.56s(cpu)
        *  Thank you very much for using Q-Chem.  Have a nice day.  *
