 Q-Chem 5.1, Q-Chem, Inc., Pleasanton, CA (2018)
 Q-Chem 5.1.1 for Intel X86 EM64T Linux

User input:
--------------------------------------------------------------

$comment
potential surface scanner
$end

$rem
JOBTYPE  PES_SCAN
UNRESTRICTED TRUE
SYM_IGNORE  TRUE
GEOM_OPT_MAX_CYCLES 400
SCF_MAX_CYCLES 400
METHOD   B3LYP
BASIS   6-31G**
PDB_PRINT 2
SCF_CONVERGENCE 6
THRESH 14
SCF_PRINT 1
$end
$molecule
0 3
Se 0.732546 0.128766 1.466477
C 0.545063 -1.732784 0.128761
C -0.796372 -1.875338 -0.278744
C -1.825229 -2.620040 0.501371
Se 0.407721 2.017406 -0.969175
H -0.924854 2.316502 -0.404573
H 2.180924 0.252375 1.217857
H 1.249816 -1.396212 -0.626066
H 0.936830 -2.470966 0.824506
H -1.128310 -1.291332 -1.134113
H -1.378221 -3.253232 1.273099
H -2.521841 -1.925870 0.996405
H -2.440075 -3.248675 -0.154304
$end
$scan
stre 1 2 2.200000 2.201000 0.100000
$end
--------------------------------------------------------------

   13   -4921.6535936274      6.04e-07  Convergence criterion met
 Total energy in the final basis set =    -4921.6535936274
   11   -4921.6531975571      9.96e-07  Convergence criterion met
 Total energy in the final basis set =    -4921.6531975571
   11   -4921.6534270616      9.92e-07  Convergence criterion met
 Total energy in the final basis set =    -4921.6534270616
   11   -4921.6538701704      9.94e-07  Convergence criterion met
 Total energy in the final basis set =    -4921.6538701704
   11   -4921.6538746725      9.94e-07  Convergence criterion met
 Total energy in the final basis set =    -4921.6538746725
   11   -4921.6538809562      9.95e-07  Convergence criterion met
 Total energy in the final basis set =    -4921.6538809562
   11   -4921.6538828054      9.98e-07  Convergence criterion met
 Total energy in the final basis set =    -4921.6538828054
   12   -4921.6538862175      4.70e-07  Convergence criterion met
   12   -4921.6538919529      4.72e-07  Convergence criterion met
 Total energy in the final basis set =    -4921.6538919529
   12   -4921.6538949308      4.72e-07  Convergence criterion met
 Total energy in the final basis set =    -4921.6538949308
   12   -4921.6538978472      4.72e-07  Convergence criterion met
 Total energy in the final basis set =    -4921.6538978472
   12   -4921.6539000187      4.71e-07  Convergence criterion met
 Total energy in the final basis set =    -4921.6539000187
   12   -4921.6539014433      4.70e-07  Convergence criterion met
 Total energy in the final basis set =    -4921.6539014433
   12   -4921.6539024683      4.69e-07  Convergence criterion met
 Total energy in the final basis set =    -4921.6539024683

             Standard Nuclear Orientation (Angstroms)
    I     Atom           X                Y                Z
 ----------------------------------------------------------------
    1      Se      0.6972879381     0.0898272409     1.4501006433
    2      C       0.5476846615    -1.6773719796     0.1483227152
    3      C      -0.8041530744    -1.8611753050    -0.2792608887
    4      C      -1.8176293218    -2.6215460757     0.5059247727
    5      Se      0.4322986540     1.9979584866    -0.9915352548
    6      H      -0.9081411304     2.2939238156    -0.4446344198
    7      H       2.1532844929     0.2254598588     1.2671730008
    8      H       1.2408945273    -1.3707052330    -0.6316382312
    9      H       0.9464417956    -2.4509829937     0.8030031028
   10      H      -1.1449126843    -1.2750442127    -1.1294098987
   11      H      -1.3531135838    -3.2853651544     1.2414379963
   12      H      -2.4921552705    -1.9419538186     1.0512372708
   13      H      -2.4597890042    -3.2224246290    -0.1492198088
 ----------------------------------------------------------------

   12   -4921.6539031420      4.69e-07  Convergence criterion met
 Total energy in the final basis set =    -4921.6539031420

                    Orbital Energies (a.u.)
 --------------------------------------------------------------

 Alpha MOs
 -- Occupied --
*******-453.869 -58.114 -58.063 -52.171 -52.170 -52.169 -52.122
-52.120 -52.117 -10.239 -10.226 -10.204  -7.847  -7.797  -5.791
 -5.788  -5.782  -5.742  -5.740  -5.728  -2.124  -2.124  -2.119
 -2.116  -2.115  -2.076  -2.075  -2.066  -2.065  -2.063  -0.821
 -0.739  -0.690  -0.659  -0.588  -0.492  -0.450  -0.439  -0.408
 -0.388  -0.380  -0.353  -0.343  -0.293  -0.216  -0.210  -0.200

 Beta MOs
 -- Occupied --
*******-453.867 -58.113 -58.062 -52.170 -52.169 -52.167 -52.120
-52.118 -52.117 -10.240 -10.215 -10.204  -7.845  -7.794  -5.789
 -5.785  -5.779  -5.738  -5.735  -5.727  -2.122  -2.121  -2.116
 -2.113  -2.112  -2.072  -2.071  -2.064  -2.062  -2.061  -0.806
 -0.730  -0.676  -0.633  -0.575  -0.488  -0.444  -0.427  -0.402
 -0.382  -0.376  -0.344  -0.328  -0.257  -0.204

          Ground-State Mulliken Net Atomic Charges

     Atom                 Charge (a.u.)    Spin (a.u.)
  --------------------------------------------------------
      1 Se                   -0.011317       0.574841
      2 C                    -0.287904      -0.133316
      3 C                    -0.038433       0.819843
      4 C                    -0.352094      -0.062017
      5 Se                   -0.274336       0.771281
      6 H                     0.055475      -0.020556
      7 H                     0.075132      -0.009128
      8 H                     0.164519       0.013216
      9 H                     0.145484       0.008354
     10 H                     0.135999      -0.036187
     11 H                     0.119550       0.003797
     12 H                     0.136470       0.047968
     13 H                     0.131455       0.021904
  --------------------------------------------------------
  Sum of atomic charges =    -0.000000

                    Cartesian Multipole Moments
 -----------------------------------------------------------------
    Charge (ESU x 10^10)
                -0.0000
    Dipole Moment (Debye)
         X      -0.6504      Y      -3.9759      Z       1.0820
       Tot       4.1715
    Quadrupole Moments (Debye-Ang)
        XX     -51.8509     XY      -1.4672     YY     -59.5171
        XZ       0.6464     YZ       1.7044     ZZ     -61.4226

 Final energy is   -4921.65390314198
 **  OPTIMIZATION CONVERGED  **
 Total job time:  123.80s(wall), 1324.27s(cpu)
        *  Thank you very much for using Q-Chem.  Have a nice day.  *
