 Q-Chem 5.1, Q-Chem, Inc., Pleasanton, CA (2018)
 Q-Chem 5.1.1 for Intel X86 EM64T Linux

User input:
--------------------------------------------------------------

$comment
potential surface scanner
$end

$rem
JOBTYPE  PES_SCAN
UNRESTRICTED TRUE
SYM_IGNORE  TRUE
GEOM_OPT_MAX_CYCLES 400
SCF_MAX_CYCLES 400
METHOD   B3LYP
BASIS   6-31G**
PDB_PRINT 2
SCF_CONVERGENCE 6
THRESH 14
SCF_PRINT 1
$end
$molecule
0 3
Se 3.573660 1.919335 -0.007147
C 0.251191 -2.297127 0.578214
C -0.746552 -1.619608 -0.226158
C -2.195562 -2.027036 0.012942
Se -0.538981 0.460708 0.119771
H -0.741676 0.321353 1.571768
H 2.309470 1.132512 -0.002900
H 1.290366 -2.324228 0.271327
H 0.012803 -2.615964 1.588733
H -0.495310 -1.625446 -1.290078
H -2.464393 -1.934003 1.069789
H -2.885836 -1.413557 -0.569494
H -2.331182 -3.076342 -0.275263
$end
$scan
stre 1 2 5.300000 5.301000 0.100000
$end
--------------------------------------------------------------

   11   -4921.6405080353      7.71e-07  Convergence criterion met
 Total energy in the final basis set =    -4921.6405080353
   11   -4921.6404683724      7.43e-07  Convergence criterion met
 Total energy in the final basis set =    -4921.6404683724
   11   -4921.6404812066      7.47e-07  Convergence criterion met
 Total energy in the final basis set =    -4921.6404812066
   11   -4921.6404920009      7.63e-07  Convergence criterion met
 Total energy in the final basis set =    -4921.6404920009
   11   -4921.6404953429      7.75e-07  Convergence criterion met
 Total energy in the final basis set =    -4921.6404953429
   11   -4921.6405000202      7.97e-07  Convergence criterion met
 Total energy in the final basis set =    -4921.6405000202
   11   -4921.6405013881      8.01e-07  Convergence criterion met
 Total energy in the final basis set =    -4921.6405013881
   11   -4921.6405026244      8.01e-07  Convergence criterion met
 Total energy in the final basis set =    -4921.6405026244

             Standard Nuclear Orientation (Angstroms)
    I     Atom           X                Y                Z
 ----------------------------------------------------------------
    1      Se      3.5609169589     1.8464210707     0.0001345959
    2      C       0.2649719367    -2.2643591390     0.5730506082
    3      C      -0.7457670486    -1.6009767223    -0.2273692628
    4      C      -2.1874058604    -2.0330799527     0.0140840210
    5      Se     -0.5697036869     0.4800053137     0.1218854365
    6      H      -0.7696224948     0.3362469083     1.5737787030
    7      H       2.2945668849     1.0634441231     0.0016274173
    8      H       1.3033878669    -2.2760792543     0.2626320259
    9      H       0.0344938301    -2.5889062295     1.5835656529
   10      H      -0.4973279462    -1.6013577115    -1.2920046092
   11      H      -2.4549791050    -1.9479316079     1.0719018411
   12      H      -2.8892051473    -1.4292512537    -0.5646957518
   13      H      -2.3063281882    -3.0835785449    -0.2770866779
 ----------------------------------------------------------------

   11   -4921.6405034448      8.00e-07  Convergence criterion met
 Total energy in the final basis set =    -4921.6405034448

                    Orbital Energies (a.u.)
 --------------------------------------------------------------

 Alpha MOs
 -- Occupied --
*******-453.899 -58.101 -58.094 -52.161 -52.158 -52.155 -52.152
-52.151 -52.148 -10.242 -10.209 -10.196  -7.835  -7.827  -5.784
 -5.776  -5.772  -5.769  -5.765  -5.760  -2.116  -2.115  -2.106
 -2.106  -2.106  -2.101  -2.099  -2.098  -2.096  -2.094  -0.817
 -0.701  -0.695  -0.690  -0.584  -0.481  -0.439  -0.431  -0.390
 -0.383  -0.378  -0.361  -0.337  -0.286  -0.243  -0.242  -0.206

 Beta MOs
 -- Occupied --
*******-453.898 -58.100 -58.094 -52.157 -52.157 -52.154 -52.151
-52.150 -52.148 -10.244 -10.197 -10.196  -7.832  -7.826  -5.775
 -5.775  -5.771  -5.768  -5.764  -5.759  -2.110  -2.110  -2.105
 -2.104  -2.101  -2.100  -2.097  -2.097  -2.094  -2.093  -0.809
 -0.693  -0.673  -0.660  -0.576  -0.477  -0.436  -0.426  -0.386
 -0.378  -0.369  -0.358  -0.319  -0.235  -0.230

          Ground-State Mulliken Net Atomic Charges

     Atom                 Charge (a.u.)    Spin (a.u.)
  --------------------------------------------------------
      1 Se                   -0.117271       1.024319
      2 C                    -0.198648       0.928993
      3 C                    -0.150583      -0.112823
      4 C                    -0.307838       0.007300
      5 Se                   -0.112421       0.256525
      6 H                     0.061207      -0.006313
      7 H                     0.094518      -0.026459
      8 H                     0.119047      -0.041043
      9 H                     0.112212      -0.041219
     10 H                     0.137943       0.012004
     11 H                     0.114928      -0.000917
     12 H                     0.128802       0.001028
     13 H                     0.118104      -0.001395
  --------------------------------------------------------
  Sum of atomic charges =     0.000000

                    Cartesian Multipole Moments
 -----------------------------------------------------------------
    Charge (ESU x 10^10)
                 0.0000
    Dipole Moment (Debye)
         X      -1.7157      Y      -2.4978      Z       0.3386
       Tot       3.0492
    Quadrupole Moments (Debye-Ang)
        XX     -63.0698     XY      -1.7437     YY     -57.5100
        XZ      -1.2477     YZ       1.0482     ZZ     -56.9007

 Final energy is   -4921.64050344478
 **  OPTIMIZATION CONVERGED  **
 Total job time:  55.59s(wall), 646.39s(cpu)
        *  Thank you very much for using Q-Chem.  Have a nice day.  *
