 Q-Chem 5.1, Q-Chem, Inc., Pleasanton, CA (2018)
 Q-Chem 5.1.1 for Intel X86 EM64T Linux

User input:
--------------------------------------------------------------

$comment
potential surface scanner
$end

$rem
JOBTYPE  PES_SCAN
UNRESTRICTED TRUE
SYM_IGNORE  TRUE
GEOM_OPT_MAX_CYCLES 400
SCF_MAX_CYCLES 400
METHOD   B3LYP
BASIS   6-31G**
PDB_PRINT 2
SCF_CONVERGENCE 6
THRESH 14
SCF_PRINT 1
$end
$molecule
0 3
Se 3.514147 1.560930 0.092061
C 0.323833 -2.133195 0.522569
C -0.749747 -1.540788 -0.252099
C -2.154489 -2.055778 0.041351
Se -0.690307 0.549056 0.070296
H -0.885125 0.411737 1.523760
H 2.241157 0.790904 0.094972
H 1.350290 -2.093944 0.175879
H 0.146369 -2.456426 1.544072
H -0.535883 -1.540274 -1.324169
H -2.390541 -1.975638 1.107072
H -2.910745 -1.501368 -0.518150
H -2.220960 -3.114621 -0.236112
$end
$scan
stre 1 2 4.800000 4.801000 0.100000
$end
--------------------------------------------------------------

   11   -4921.6403842232      9.80e-07  Convergence criterion met
 Total energy in the final basis set =    -4921.6403842232
   12   -4921.6397877254      9.26e-07  Convergence criterion met
 Total energy in the final basis set =    -4921.6397877254
   12   -4921.6401807121      9.28e-07  Convergence criterion met
 Total energy in the final basis set =    -4921.6401807121
   11   -4921.6403135022      9.82e-07  Convergence criterion met
 Total energy in the final basis set =    -4921.6403135022
   11   -4921.6403173788      9.93e-07  Convergence criterion met
 Total energy in the final basis set =    -4921.6403173788
   12   -4921.6403225559      9.43e-07  Convergence criterion met
 Total energy in the final basis set =    -4921.6403225559
   11   -4921.6403265110      1.00e-06  Convergence criterion met
 Total energy in the final basis set =    -4921.6403265110
   11   -4921.6403311463      9.94e-07  Convergence criterion met
 Total energy in the final basis set =    -4921.6403311463
   11   -4921.6403360366      9.92e-07  Convergence criterion met
 Total energy in the final basis set =    -4921.6403360366
   11   -4921.6403414893      9.96e-07  Convergence criterion met
 Total energy in the final basis set =    -4921.6403414893
   11   -4921.6403461298      9.98e-07  Convergence criterion met
 Total energy in the final basis set =    -4921.6403461298
   11   -4921.6403490794      9.93e-07  Convergence criterion met
 Total energy in the final basis set =    -4921.6403490794
   11   -4921.6403503695      9.92e-07  Convergence criterion met
 Total energy in the final basis set =    -4921.6403503695

             Standard Nuclear Orientation (Angstroms)
    I     Atom           X                Y                Z
 ----------------------------------------------------------------
    1      Se      3.5018621968     1.4908102628     0.1230934591
    2      C       0.3383015296    -2.0987469519     0.5064552269
    3      C      -0.7521157947    -1.5272709346    -0.2601701698
    4      C      -2.1459022000    -2.0616105437     0.0502473763
    5      Se     -0.7208242920     0.5650813940     0.0532206409
    6      H      -0.9157518468     0.4306097489     1.5070081173
    7      H       2.2316798125     0.7174749568     0.1235822372
    8      H       1.3598253798    -2.0490567776     0.1467829237
    9      H       0.1779976566    -2.4145586696     1.5330870285
   10      H      -0.5492316660    -1.5282629612    -1.3343125168
   11      H      -2.3721985770    -1.9793841747     1.1179162146
   12      H      -2.9161259343    -1.5216823784    -0.5043800252
   13      H      -2.1995172642    -3.1228079708    -0.2210285129
 ----------------------------------------------------------------

   11   -4921.6403508810      9.93e-07  Convergence criterion met
 Total energy in the final basis set =    -4921.6403508810

                    Orbital Energies (a.u.)
 --------------------------------------------------------------

 Alpha MOs
 -- Occupied --
*******-453.899 -58.102 -58.095 -52.161 -52.158 -52.155 -52.152
-52.151 -52.149 -10.243 -10.210 -10.196  -7.835  -7.828  -5.784
 -5.777  -5.773  -5.770  -5.765  -5.760  -2.116  -2.115  -2.107
 -2.106  -2.106  -2.102  -2.100  -2.098  -2.096  -2.095  -0.817
 -0.702  -0.695  -0.691  -0.585  -0.482  -0.439  -0.431  -0.390
 -0.383  -0.379  -0.361  -0.338  -0.286  -0.243  -0.243  -0.207

 Beta MOs
 -- Occupied --
*******-453.899 -58.101 -58.094 -52.157 -52.157 -52.154 -52.152
-52.151 -52.148 -10.244 -10.198 -10.196  -7.832  -7.827  -5.775
 -5.775  -5.772  -5.768  -5.764  -5.760  -2.111  -2.110  -2.106
 -2.105  -2.101  -2.101  -2.098  -2.097  -2.095  -2.094  -0.809
 -0.694  -0.674  -0.661  -0.577  -0.477  -0.436  -0.426  -0.387
 -0.379  -0.369  -0.358  -0.319  -0.235  -0.230

          Ground-State Mulliken Net Atomic Charges

     Atom                 Charge (a.u.)    Spin (a.u.)
  --------------------------------------------------------
      1 Se                   -0.116006       1.019999
      2 C                    -0.200756       0.930061
      3 C                    -0.151864      -0.112120
      4 C                    -0.308574       0.007511
      5 Se                   -0.105646       0.259758
      6 H                     0.060864      -0.006395
      7 H                     0.090823      -0.026853
      8 H                     0.117548      -0.041239
      9 H                     0.113078      -0.041257
     10 H                     0.138397       0.011610
     11 H                     0.114519      -0.000920
     12 H                     0.129129       0.001091
     13 H                     0.118489      -0.001246
  --------------------------------------------------------
  Sum of atomic charges =     0.000000

                    Cartesian Multipole Moments
 -----------------------------------------------------------------
    Charge (ESU x 10^10)
                 0.0000
    Dipole Moment (Debye)
         X      -1.6501      Y      -2.4214      Z       0.3415
       Tot       2.9500
    Quadrupole Moments (Debye-Ang)
        XX     -62.9843     XY      -1.3293     YY     -57.0543
        XZ      -0.9935     YZ       0.3438     ZZ     -57.2372

 Final energy is   -4921.64035088099
 **  OPTIMIZATION CONVERGED  **
 Total job time:  89.32s(wall), 1038.12s(cpu)
        *  Thank you very much for using Q-Chem.  Have a nice day.  *
