 Q-Chem 5.1, Q-Chem, Inc., Pleasanton, CA (2018)
 Q-Chem 5.1.1 for Intel X86 EM64T Linux

User input:
--------------------------------------------------------------

$comment
potential surface scanner
$end

$rem
JOBTYPE  PES_SCAN
UNRESTRICTED TRUE
SYM_IGNORE  TRUE
GEOM_OPT_MAX_CYCLES 400
SCF_MAX_CYCLES 400
METHOD   B3LYP
BASIS   6-31G**
PDB_PRINT 2
SCF_CONVERGENCE 6
THRESH 14
SCF_PRINT 1
$end
$molecule
0 1
S 1.647376 -0.000193 -0.484302
C -0.168791 0.000060 -0.511667
C -0.780850 -1.273967 0.076035
C -0.780499 1.274244 0.076059
H -0.343255 0.000091 -1.606706
H -1.864190 -1.288301 -0.089569
H -0.344378 -2.171514 -0.367325
H -0.595556 -1.301333 1.156064
H -1.863833 1.288891 -0.089557
H -0.343767 2.171678 -0.367272
H -0.595214 1.301532 1.156091
H 1.562857 -0.000390 2.614545
$end
$scan
stre 1 12 3.200000 3.201000 0.100000
$end
--------------------------------------------------------------

   12    -517.1680642674      7.24e-07  Convergence criterion met
 Total energy in the final basis set =     -517.1680642674
   12    -517.1631153865      7.62e-07  Convergence criterion met
 Total energy in the final basis set =     -517.1631153865
   12    -517.1630842732      7.74e-07  Convergence criterion met
 Total energy in the final basis set =     -517.1630842732
   12    -517.1631193404      8.05e-07  Convergence criterion met
 Total energy in the final basis set =     -517.1631193404
   12    -517.1631212880      8.06e-07  Convergence criterion met
 Total energy in the final basis set =     -517.1631212880
   12    -517.1631278648      8.01e-07  Convergence criterion met
 Total energy in the final basis set =     -517.1631278648
   12    -517.1631289261      7.97e-07  Convergence criterion met
 Total energy in the final basis set =     -517.1631289261
   12    -517.1631326614      7.78e-07  Convergence criterion met
 Total energy in the final basis set =     -517.1631326614
   12    -517.1631352128      7.68e-07  Convergence criterion met
 Total energy in the final basis set =     -517.1631352128
   12    -517.1631394084      7.62e-07  Convergence criterion met
 Total energy in the final basis set =     -517.1631394084
   12    -517.1631440250      7.64e-07  Convergence criterion met
 Total energy in the final basis set =     -517.1631440250
   12    -517.1631484667      7.73e-07  Convergence criterion met
 Total energy in the final basis set =     -517.1631484667
   12    -517.1631505989      7.75e-07  Convergence criterion met
 Total energy in the final basis set =     -517.1631505989

             Standard Nuclear Orientation (Angstroms)
    I     Atom           X                Y                Z
 ----------------------------------------------------------------
    1      S       1.6465449764    -0.0001778385    -0.5256793864
    2      C      -0.1683035858     0.0000653037    -0.5243176404
    3      C      -0.7714353360    -1.2732335640     0.0744317107
    4      C      -0.7710997110     1.2735191284     0.0744390245
    5      H      -0.3611517315     0.0000874452    -1.6164146731
    6      H      -1.8590516458    -1.2795169257    -0.0603686138
    7      H      -0.3541168991    -2.1726772589    -0.3836005608
    8      H      -0.5551952930    -1.3049014146     1.1486602078
    9      H      -1.8587122643     1.2801057587    -0.0603808859
   10      H      -0.3535257096     2.1728541660    -0.3835739498
   11      H      -0.5548765792     1.3051166018     1.1486716799
   12      H       1.4908237790    -0.0004434022     2.6705290872
 ----------------------------------------------------------------

   12    -517.1631513136      7.72e-07  Convergence criterion met
 Total energy in the final basis set =     -517.1631513136

                    Orbital Energies (a.u.)
 --------------------------------------------------------------

 Alpha MOs
 -- Occupied --
-88.902 -10.240 -10.190 -10.190  -7.960  -5.926  -5.922  -5.913
 -0.824  -0.697  -0.692  -0.569  -0.470  -0.441  -0.422  -0.395
 -0.363  -0.361  -0.334  -0.256  -0.241

 Beta MOs
 -- Occupied --
-88.902 -10.240 -10.190 -10.190  -7.960  -5.926  -5.922  -5.913
 -0.824  -0.697  -0.692  -0.569  -0.470  -0.441  -0.422  -0.395
 -0.363  -0.361  -0.334  -0.256  -0.241

          Ground-State Mulliken Net Atomic Charges

     Atom                 Charge (a.u.)    Spin (a.u.)
  --------------------------------------------------------
      1 S                    -0.012193      -0.000000
      2 C                    -0.235903      -0.000000
      3 C                    -0.292996      -0.000000
      4 C                    -0.292997      -0.000000
      5 H                     0.154216      -0.000000
      6 H                     0.107647      -0.000000
      7 H                     0.124142       0.000000
      8 H                     0.121297      -0.000000
      9 H                     0.107647      -0.000000
     10 H                     0.124141      -0.000000
     11 H                     0.121298      -0.000000
     12 H                    -0.026299       0.000000
  --------------------------------------------------------
  Sum of atomic charges =     0.000000

                    Cartesian Multipole Moments
 -----------------------------------------------------------------
    Charge (ESU x 10^10)
                 0.0000
    Dipole Moment (Debye)
         X      -2.1120      Y       0.0003      Z      -0.5638
       Tot       2.1860
    Quadrupole Moments (Debye-Ang)
        XX     -37.4524     XY       0.0003     YY     -35.4653
        XZ       0.4030     YZ      -0.0002     ZZ     -33.3011

 Final energy is   -517.163151313564
 **  OPTIMIZATION CONVERGED  **
 Total job time:  48.63s(wall), 565.36s(cpu)
        *  Thank you very much for using Q-Chem.  Have a nice day.  *
