 Q-Chem 5.1, Q-Chem, Inc., Pleasanton, CA (2018)
 Q-Chem 5.1.1 for Intel X86 EM64T Linux

User input:
--------------------------------------------------------------

$comment
potential surface scanner
$end

$rem
JOBTYPE  PES_SCAN
UNRESTRICTED TRUE
SYM_IGNORE  TRUE
GEOM_OPT_MAX_CYCLES 400
SCF_MAX_CYCLES 400
METHOD   B3LYP
BASIS   6-31G**
PDB_PRINT 2
SCF_CONVERGENCE 6
THRESH 14
SCF_PRINT 1
$end
$molecule
0 1
S 1.657900 -0.000200 0.107500
C -0.098900 0.000100 -0.384900
C -0.779700 -1.258900 0.138700
C -0.779300 1.259100 0.138700
H -0.135800 0.000100 -1.479400
H -1.829100 -1.282800 -0.175600
H -0.301500 -2.163300 -0.253500
H -0.763000 -1.307700 1.233500
H -1.828700 1.283400 -0.175500
H -0.300800 2.163400 -0.253400
H -0.762600 1.307800 1.233400
H 1.451400 -0.000200 1.432900
$end
$scan
stre 1 12 3.400000 3.401000 0.100000
$end
--------------------------------------------------------------

    9    -517.3397527088      2.29e-07  Convergence criterion met
 Total energy in the final basis set =     -517.3397527088
    9    -517.3334161693      2.50e-07  Convergence criterion met
 Total energy in the final basis set =     -517.3334161693
    9    -517.3165452430      4.07e-07  Convergence criterion met
 Total energy in the final basis set =     -517.3165452430
    9    -517.2957023336      3.92e-07  Convergence criterion met
 Total energy in the final basis set =     -517.2957023336
    9    -517.2744242627      4.57e-07  Convergence criterion met
 Total energy in the final basis set =     -517.2744242627
    9    -517.2544160229      7.44e-07  Convergence criterion met
 Total energy in the final basis set =     -517.2544160229
   10    -517.2361561121      1.77e-07  Convergence criterion met
 Total energy in the final basis set =     -517.2361561121
   10    -517.2198772011      4.01e-07  Convergence criterion met
    8    -517.2974481602      7.91e-07  Convergence criterion met
 Total energy in the final basis set =     -517.2974481602
    8    -517.2974504620      7.91e-07  Convergence criterion met
 Total energy in the final basis set =     -517.2974504620
    8    -517.2974534705      7.92e-07  Convergence criterion met
 Total energy in the final basis set =     -517.2974534705
    8    -517.2974562409      7.91e-07  Convergence criterion met
 Total energy in the final basis set =     -517.2974562409
    8    -517.2974572942      7.91e-07  Convergence criterion met
 Total energy in the final basis set =     -517.2974572942
    8    -517.2974572929      7.90e-07  Convergence criterion met
 Total energy in the final basis set =     -517.2974572929

             Standard Nuclear Orientation (Angstroms)
    I     Atom           X                Y                Z
 ----------------------------------------------------------------
    1      S       1.5600560964     0.0542600596    -0.6033691515
    2      C      -0.0602533005     0.2476715396    -0.4507011271
    3      C      -1.0345466906    -0.8815120764    -0.6624926925
    4      C      -0.6871638217     1.5687140752    -0.0892876187
    5      H      -1.7608019837    -0.6123766458    -1.4409944805
    6      H      -1.6149199247    -1.0513275572     0.2542304437
    7      H      -0.5295073311    -1.8050696213    -0.9436030532
    8      H       1.0333410619    -1.7473179661     3.0793930195
    9      H      -1.3607579578     1.8951268150    -0.8929443607
   10      H       0.0640170513     2.3386588647     0.0833434030
   11      H      -1.3095483474     1.4588873028     0.8084287571
   12      H       1.2299851479    -1.4649147903     2.4203968609
 ----------------------------------------------------------------

    8    -517.2974574946      7.90e-07  Convergence criterion met
 Total energy in the final basis set =     -517.2974574946

                    Orbital Energies (a.u.)
 --------------------------------------------------------------

 Alpha MOs
 -- Occupied --
-88.856 -10.268 -10.201 -10.201  -7.918  -5.881  -5.881  -5.873
 -0.834  -0.713  -0.705  -0.528  -0.455  -0.445  -0.443  -0.426
 -0.405  -0.377  -0.356  -0.284  -0.217

 Beta MOs
 -- Occupied --
-88.856 -10.268 -10.201 -10.201  -7.918  -5.881  -5.881  -5.873
 -0.834  -0.713  -0.705  -0.528  -0.455  -0.445  -0.443  -0.426
 -0.405  -0.377  -0.356  -0.284  -0.217

          Ground-State Mulliken Net Atomic Charges

     Atom                 Charge (a.u.)    Spin (a.u.)
  --------------------------------------------------------
      1 S                    -0.132503      -0.000000
      2 C                    -0.012047      -0.000000
      3 C                    -0.335196      -0.000000
      4 C                    -0.335095       0.000000
      5 H                     0.130342       0.000000
      6 H                     0.133325      -0.000000
      7 H                     0.145753       0.000000
      8 H                    -0.016133      -0.000000
      9 H                     0.132390      -0.000000
     10 H                     0.145834      -0.000000
     11 H                     0.130891      -0.000000
     12 H                     0.012439       0.000000
  --------------------------------------------------------
  Sum of atomic charges =    -0.000000

                    Cartesian Multipole Moments
 -----------------------------------------------------------------
    Charge (ESU x 10^10)
                 0.0000
    Dipole Moment (Debye)
         X      -3.0493      Y       0.4109      Z       0.1943
       Tot       3.0829
    Quadrupole Moments (Debye-Ang)
        XX     -36.2457     XY      -0.3737     YY     -33.8746
        XZ       1.4025     YZ      -0.1423     ZZ     -34.2981

 Final energy is   -517.297457494581
 **  OPTIMIZATION CONVERGED  **
 Total job time:  433.10s(wall), 5059.58s(cpu)
        *  Thank you very much for using Q-Chem.  Have a nice day.  *
