 Q-Chem 5.1, Q-Chem, Inc., Pleasanton, CA (2018)
 Q-Chem 5.1.1 for Intel X86 EM64T Linux

User input:
--------------------------------------------------------------

$comment
potential surface scanner
$end

$rem
JOBTYPE  PES_SCAN
UNRESTRICTED TRUE
SYM_IGNORE  TRUE
GEOM_OPT_MAX_CYCLES 400
SCF_MAX_CYCLES 400
METHOD   B3LYP
BASIS   6-31G**
PDB_PRINT 2
SCF_CONVERGENCE 6
THRESH 14
SCF_PRINT 1
$end
$molecule
0 1
S 1.699158 -0.000237 -0.037324
C -0.120575 0.000037 -0.377952
C -0.803199 -1.272451 0.125293
C -0.802820 1.272710 0.125341
H -0.129564 0.000060 -1.476709
H -1.856810 -1.284698 -0.178701
H -0.317563 -2.168548 -0.267938
H -0.769856 -1.320652 1.219397
H -1.856422 1.285298 -0.178675
H -0.316901 2.168677 -0.267837
H -0.769485 1.320848 1.219448
H 1.573934 -0.000245 1.658057
$end
$scan
stre 1 12 1.800000 1.801000 0.100000
$end
--------------------------------------------------------------

    9    -517.3090249808      3.19e-07  Convergence criterion met
 Total energy in the final basis set =     -517.3090249808
    9    -517.2953360487      4.31e-07  Convergence criterion met
 Total energy in the final basis set =     -517.2953360487
    9    -517.2949508074      4.57e-07  Convergence criterion met
 Total energy in the final basis set =     -517.2949508074
    9    -517.2949521013      4.65e-07  Convergence criterion met
 Total energy in the final basis set =     -517.2949521013

             Standard Nuclear Orientation (Angstroms)
    I     Atom           X                Y                Z
 ----------------------------------------------------------------
    1      S       1.6962590050    -0.0002357178    -0.0681619448
    2      C      -0.1241560072     0.0000379313    -0.3854785379
    3      C      -0.8037045729    -1.2725925654     0.1214044202
    4      C      -0.8033258352     1.2728521750     0.1214514190
    5      H      -0.1409268669     0.0000609034    -1.4850505959
    6      H      -1.8593576432    -1.2842223355    -0.1751405870
    7      H      -0.3208901667    -2.1686536767    -0.2753176887
    8      H      -0.7616233590    -1.3203556764     1.2151949299
    9      H      -1.8589697316     1.2848238575    -0.1751150747
   10      H      -0.3202267646     2.1687843632    -0.2752157363
   11      H      -0.7612527395     1.3205469826     1.2152455317
   12      H       1.5880716819    -0.0002472412     1.7285838644
 ----------------------------------------------------------------

    9    -517.2949522564      4.66e-07  Convergence criterion met
 Total energy in the final basis set =     -517.2949522564

                    Orbital Energies (a.u.)
 --------------------------------------------------------------

 Alpha MOs
 -- Occupied --
-88.889 -10.230 -10.185 -10.185  -7.947  -5.913  -5.908  -5.901
 -0.815  -0.693  -0.687  -0.569  -0.463  -0.437  -0.417  -0.392
 -0.368  -0.354  -0.335  -0.312  -0.234

 Beta MOs
 -- Occupied --
-88.889 -10.230 -10.185 -10.185  -7.947  -5.913  -5.908  -5.901
 -0.815  -0.693  -0.687  -0.569  -0.463  -0.437  -0.417  -0.392
 -0.368  -0.354  -0.335  -0.312  -0.234

          Ground-State Mulliken Net Atomic Charges

     Atom                 Charge (a.u.)    Spin (a.u.)
  --------------------------------------------------------
      1 S                    -0.050602      -0.000000
      2 C                    -0.216661      -0.000000
      3 C                    -0.292373       0.000000
      4 C                    -0.292374      -0.000000
      5 H                     0.137103       0.000000
      6 H                     0.105884      -0.000000
      7 H                     0.122558       0.000000
      8 H                     0.109952       0.000000
      9 H                     0.105884       0.000000
     10 H                     0.122558      -0.000000
     11 H                     0.109952      -0.000000
     12 H                     0.038118       0.000000
  --------------------------------------------------------
  Sum of atomic charges =    -0.000000

                    Cartesian Multipole Moments
 -----------------------------------------------------------------
    Charge (ESU x 10^10)
                -0.0000
    Dipole Moment (Debye)
         X      -1.7964      Y       0.0003      Z       0.1528
       Tot       1.8029
    Quadrupole Moments (Debye-Ang)
        XX     -37.4150     XY       0.0002     YY     -35.5583
        XZ       1.1533     YZ      -0.0002     ZZ     -31.9740

 Final energy is   -517.294952256392
 **  OPTIMIZATION CONVERGED  **
 Total job time:  15.07s(wall), 171.77s(cpu)
        *  Thank you very much for using Q-Chem.  Have a nice day.  *
