 Q-Chem 5.1, Q-Chem, Inc., Pleasanton, CA (2018)
 Q-Chem 5.1.1 for Intel X86 EM64T Linux

User input:
--------------------------------------------------------------

$comment
potential surface scanner
$end

$rem
JOBTYPE  PES_SCAN
UNRESTRICTED TRUE
SYM_IGNORE  TRUE
GEOM_OPT_MAX_CYCLES 400
SCF_MAX_CYCLES 400
METHOD   B3LYP
BASIS   6-31G**
PDB_PRINT 2
SCF_CONVERGENCE 6
THRESH 14
SCF_PRINT 1
$end
$molecule
0 1
S 1.651326 -0.000196 -0.446894
C -0.165739 0.000058 -0.501329
C -0.784867 -1.273965 0.078409
C -0.784513 1.274241 0.078436
H -0.323727 0.000088 -1.598382
H -1.866620 -1.286740 -0.097487
H -0.345501 -2.171291 -0.362628
H -0.610057 -1.304354 1.160009
H -1.866261 1.287330 -0.097471
H -0.344887 2.171453 -0.362573
H -0.609709 1.304555 1.160038
H 1.580456 -0.000382 2.552269
$end
$scan
stre 1 12 3.100000 3.101000 0.100000
$end
--------------------------------------------------------------

   12    -517.1735295455      4.98e-07  Convergence criterion met
 Total energy in the final basis set =     -517.1735295455
   12    -517.1680675067      7.65e-07  Convergence criterion met
 Total energy in the final basis set =     -517.1680675067
   12    -517.1680200979      7.53e-07  Convergence criterion met
 Total energy in the final basis set =     -517.1680200979
   12    -517.1680566298      7.28e-07  Convergence criterion met
 Total energy in the final basis set =     -517.1680566298
   12    -517.1680584097      7.27e-07  Convergence criterion met
 Total energy in the final basis set =     -517.1680584097
   12    -517.1680636137      7.23e-07  Convergence criterion met
 Total energy in the final basis set =     -517.1680636137

             Standard Nuclear Orientation (Angstroms)
    I     Atom           X                Y                Z
 ----------------------------------------------------------------
    1      S       1.6473755036    -0.0001930836    -0.4843021401
    2      C      -0.1687905298     0.0000596673    -0.5116666970
    3      C      -0.7808495993    -1.2739669970     0.0760345657
    4      C      -0.7804985774     1.2742435196     0.0760594633
    5      H      -0.3432552998     0.0000906645    -1.6067056726
    6      H      -1.8641897401    -1.2883009712    -0.0895687124
    7      H      -0.3443779314    -2.1715135177    -0.3673248414
    8      H      -0.5955563718    -1.3013331031     1.1560636044
    9      H      -1.8638327850     1.2888907455    -0.0895569602
   10      H      -0.3437668699     2.1716775622    -0.3672720077
   11      H      -0.5952139853     1.3015324986     1.1560912974
   12      H       1.5628571862    -0.0003899850     2.6145451008
 ----------------------------------------------------------------

   12    -517.1680642553      7.24e-07  Convergence criterion met
 Total energy in the final basis set =     -517.1680642553

                    Orbital Energies (a.u.)
 --------------------------------------------------------------

 Alpha MOs
 -- Occupied --
-88.902 -10.240 -10.189 -10.189  -7.960  -5.926  -5.922  -5.913
 -0.824  -0.697  -0.692  -0.568  -0.470  -0.441  -0.422  -0.395
 -0.363  -0.360  -0.333  -0.259  -0.240

 Beta MOs
 -- Occupied --
-88.902 -10.240 -10.189 -10.189  -7.960  -5.926  -5.922  -5.913
 -0.824  -0.697  -0.692  -0.568  -0.470  -0.441  -0.422  -0.395
 -0.363  -0.360  -0.333  -0.259  -0.240

          Ground-State Mulliken Net Atomic Charges

     Atom                 Charge (a.u.)    Spin (a.u.)
  --------------------------------------------------------
      1 S                    -0.013788       0.000000
      2 C                    -0.235298       0.000000
      3 C                    -0.293121       0.000000
      4 C                    -0.293121      -0.000000
      5 H                     0.152793       0.000000
      6 H                     0.107531      -0.000000
      7 H                     0.124269      -0.000000
      8 H                     0.121075       0.000000
      9 H                     0.107531       0.000000
     10 H                     0.124268       0.000000
     11 H                     0.121076       0.000000
     12 H                    -0.023215      -0.000000
  --------------------------------------------------------
  Sum of atomic charges =    -0.000000

                    Cartesian Multipole Moments
 -----------------------------------------------------------------
    Charge (ESU x 10^10)
                 0.0000
    Dipole Moment (Debye)
         X      -2.1032      Y       0.0003      Z      -0.5369
       Tot       2.1707
    Quadrupole Moments (Debye-Ang)
        XX     -37.4835     XY       0.0003     YY     -35.4830
        XZ       0.3736     YZ      -0.0002     ZZ     -33.1050

 Final energy is   -517.168064255340
 **  OPTIMIZATION CONVERGED  **
 Total job time:  24.65s(wall), 283.27s(cpu)
        *  Thank you very much for using Q-Chem.  Have a nice day.  *
