 Q-Chem 5.1, Q-Chem, Inc., Pleasanton, CA (2018)
 Q-Chem 5.1.1 for Intel X86 EM64T Linux

User input:
--------------------------------------------------------------

$comment
potential surface scanner
$end

$rem
JOBTYPE  PES_SCAN
UNRESTRICTED TRUE
SYM_IGNORE  TRUE
GEOM_OPT_MAX_CYCLES 400
SCF_MAX_CYCLES 400
METHOD   B3LYP
BASIS   6-31G**
PDB_PRINT 2
SCF_CONVERGENCE 6
THRESH 14
SCF_PRINT 1
$end
$molecule
0 1
S 1.657900 -0.000200 0.107500
C -0.098900 0.000100 -0.384900
C -0.779700 -1.258900 0.138700
C -0.779300 1.259100 0.138700
H -0.135800 0.000100 -1.479400
H -1.829100 -1.282800 -0.175600
H -0.301500 -2.163300 -0.253500
H -0.763000 -1.307700 1.233500
H -1.828700 1.283400 -0.175500
H -0.300800 2.163400 -0.253400
H -0.762600 1.307800 1.233400
H 1.451400 -0.000200 1.432900
$end
$scan
stre 1 12 1.100000 1.101000 0.100000
$end
--------------------------------------------------------------

    9    -517.3397527088      2.29e-07  Convergence criterion met
 Total energy in the final basis set =     -517.3397527088
    9    -517.3253996246      2.15e-07  Convergence criterion met
 Total energy in the final basis set =     -517.3253996246
    9    -517.2948969996      2.11e-07  Convergence criterion met
 Total energy in the final basis set =     -517.2948969996
    9    -517.2943225530      2.10e-07  Convergence criterion met
 Total energy in the final basis set =     -517.2943225530
    9    -517.2944454965      2.09e-07  Convergence criterion met
 Total energy in the final basis set =     -517.2944454965
    9    -517.2944512245      2.09e-07  Convergence criterion met
 Total energy in the final basis set =     -517.2944512245

             Standard Nuclear Orientation (Angstroms)
    I     Atom           X                Y                Z
 ----------------------------------------------------------------
    1      S       1.6991097759    -0.0002396244     0.1495392252
    2      C      -0.0989494937     0.0000358319    -0.3260008612
    3      C      -0.8043415247    -1.2728811955     0.1480003662
    4      C      -0.8039671674     1.2731455818     0.1480456561
    5      H      -0.0584166959     0.0000509267    -1.4202322849
    6      H      -1.8419607326    -1.2853653546    -0.2067075983
    7      H      -0.3002040934    -2.1684193055    -0.2228078841
    8      H      -0.8274375348    -1.3251703303     1.2423967419
    9      H      -1.8415764313     1.2859569788    -0.2066838415
   10      H      -0.2995555813     2.1685497765    -0.2227119389
   11      H      -0.8270659944     1.3253860161     1.2424450588
   12      H       1.5342654736    -0.0002493014     1.2371173607
 ----------------------------------------------------------------

    9    -517.2944551037      2.09e-07  Convergence criterion met
 Total energy in the final basis set =     -517.2944551037

                    Orbital Energies (a.u.)
 --------------------------------------------------------------

 Alpha MOs
 -- Occupied --
-88.847 -10.228 -10.185 -10.185  -7.920  -5.884  -5.880  -5.874
 -0.822  -0.731  -0.693  -0.588  -0.462  -0.453  -0.417  -0.396
 -0.392  -0.353  -0.345  -0.313  -0.235

 Beta MOs
 -- Occupied --
-88.847 -10.228 -10.185 -10.185  -7.920  -5.884  -5.880  -5.874
 -0.822  -0.731  -0.693  -0.588  -0.462  -0.453  -0.417  -0.396
 -0.392  -0.353  -0.345  -0.313  -0.235

          Ground-State Mulliken Net Atomic Charges

     Atom                 Charge (a.u.)    Spin (a.u.)
  --------------------------------------------------------
      1 S                    -0.047033      -0.000000
      2 C                    -0.211196      -0.000000
      3 C                    -0.299780       0.000000
      4 C                    -0.299779       0.000000
      5 H                     0.136286       0.000000
      6 H                     0.106542      -0.000000
      7 H                     0.124047      -0.000000
      8 H                     0.105983       0.000000
      9 H                     0.106542      -0.000000
     10 H                     0.124048      -0.000000
     11 H                     0.105983       0.000000
     12 H                     0.048356       0.000000
  --------------------------------------------------------
  Sum of atomic charges =     0.000000

                    Cartesian Multipole Moments
 -----------------------------------------------------------------
    Charge (ESU x 10^10)
                 0.0000
    Dipole Moment (Debye)
         X      -1.8266      Y       0.0002      Z       0.4970
       Tot       1.8930
    Quadrupole Moments (Debye-Ang)
        XX     -37.3385     XY       0.0003     YY     -34.9607
        XZ       1.6817     YZ      -0.0004     ZZ     -31.4795

 Final energy is   -517.294455103680
 **  OPTIMIZATION CONVERGED  **
 Total job time:  22.43s(wall), 241.18s(cpu)
        *  Thank you very much for using Q-Chem.  Have a nice day.  *
