 Q-Chem 5.1, Q-Chem, Inc., Pleasanton, CA (2018)
 Q-Chem 5.1.1 for Intel X86 EM64T Linux

User input:
--------------------------------------------------------------

$comment
potential surface scanner
$end

$rem
JOBTYPE  PES_SCAN
UNRESTRICTED TRUE
SYM_IGNORE  TRUE
GEOM_OPT_MAX_CYCLES 400
SCF_MAX_CYCLES 400
METHOD   B3LYP
BASIS   6-31G**
PDB_PRINT 2
SCF_CONVERGENCE 6
THRESH 14
SCF_PRINT 1
$end
$molecule
0 1
S 1.686217 -0.000229 -0.157529
C -0.135307 0.000041 -0.412758
C -0.802637 -1.272818 0.109356
C -0.802260 1.273078 0.109402
H -0.178955 0.000067 -1.514158
H -1.865717 -1.283342 -0.158752
H -0.330631 -2.169178 -0.299322
H -0.728049 -1.317478 1.201483
H -1.865331 1.283944 -0.158727
H -0.329969 2.169313 -0.299223
H -0.727679 1.317661 1.201532
H 1.610217 -0.000261 1.941095
$end
$scan
stre 1 12 2.200000 2.201000 0.100000
$end
--------------------------------------------------------------

    9    -517.2541545550      7.66e-07  Convergence criterion met
 Total energy in the final basis set =     -517.2541545550
   10    -517.2422209513      1.68e-07  Convergence criterion met
 Total energy in the final basis set =     -517.2422209513
   10    -517.2419375514      1.68e-07  Convergence criterion met
 Total energy in the final basis set =     -517.2419375514

             Standard Nuclear Orientation (Angstroms)
    I     Atom           X                Y                Z
 ----------------------------------------------------------------
    1      S       1.6823822640    -0.0002251947    -0.1869376038
    2      C      -0.1388808340     0.0000429300    -0.4220490541
    3      C      -0.8020942780    -1.2729105189     0.1052744738
    4      C      -0.8017206512     1.2731736704     0.1053171083
    5      H      -0.1919497807     0.0000691474    -1.5238735246
    6      H      -1.8675969160    -1.2828383192    -0.1527833985
    7      H      -0.3340576140    -2.1693950068    -0.3076158555
    8      H      -0.7161656480    -1.3166082902     1.1966163089
    9      H      -1.8672156778     1.2834393393    -0.1527610281
   10      H      -0.3334022147     2.1695342289    -0.3075232388
   11      H      -0.7157989279     1.3167956941     1.1966625135
   12      H       1.6163992785    -0.0002796802     2.0120722991
 ----------------------------------------------------------------

   10    -517.2419380781      1.67e-07  Convergence criterion met
 Total energy in the final basis set =     -517.2419380781

                    Orbital Energies (a.u.)
 --------------------------------------------------------------

 Alpha MOs
 -- Occupied --
-88.899 -10.233 -10.186 -10.186  -7.955  -5.922  -5.917  -5.909
 -0.817  -0.694  -0.687  -0.567  -0.465  -0.437  -0.419  -0.393
 -0.362  -0.356  -0.329  -0.297  -0.237

 Beta MOs
 -- Occupied --
-88.899 -10.233 -10.186 -10.186  -7.955  -5.922  -5.917  -5.909
 -0.817  -0.694  -0.687  -0.567  -0.465  -0.437  -0.419  -0.393
 -0.362  -0.356  -0.329  -0.297  -0.237

          Ground-State Mulliken Net Atomic Charges

     Atom                 Charge (a.u.)    Spin (a.u.)
  --------------------------------------------------------
      1 S                    -0.035989       0.000000
      2 C                    -0.223161       0.000000
      3 C                    -0.291256       0.000000
      4 C                    -0.291256      -0.000000
      5 H                     0.141297       0.000000
      6 H                     0.106007      -0.000000
      7 H                     0.122442      -0.000000
      8 H                     0.114449      -0.000000
      9 H                     0.106006       0.000000
     10 H                     0.122442       0.000000
     11 H                     0.114449       0.000000
     12 H                     0.014569      -0.000000
  --------------------------------------------------------
  Sum of atomic charges =    -0.000000

                    Cartesian Multipole Moments
 -----------------------------------------------------------------
    Charge (ESU x 10^10)
                 0.0000
    Dipole Moment (Debye)
         X      -1.8835      Y       0.0003      Z      -0.1364
       Tot       1.8884
    Quadrupole Moments (Debye-Ang)
        XX     -37.4827     XY       0.0002     YY     -35.6209
        XZ       0.7071     YZ      -0.0002     ZZ     -32.1696

 Final energy is   -517.241938078134
 **  OPTIMIZATION CONVERGED  **
 Total job time:  13.20s(wall), 145.46s(cpu)
        *  Thank you very much for using Q-Chem.  Have a nice day.  *
