 Q-Chem 5.1, Q-Chem, Inc., Pleasanton, CA (2018)
 Q-Chem 5.1.1 for Intel X86 EM64T Linux

User input:
--------------------------------------------------------------

$comment
potential surface scanner
$end

$rem
JOBTYPE  PES_SCAN
UNRESTRICTED TRUE
SYM_IGNORE  TRUE
GEOM_OPT_MAX_CYCLES 400
SCF_MAX_CYCLES 400
METHOD   B3LYP
BASIS   6-31G**
PDB_PRINT 2
SCF_CONVERGENCE 6
THRESH 14
SCF_PRINT 1
$end
$molecule
0 1
S 1.657900 -0.000200 0.107500
C -0.098900 0.000100 -0.384900
C -0.779700 -1.258900 0.138700
C -0.779300 1.259100 0.138700
H -0.135800 0.000100 -1.479400
H -1.829100 -1.282800 -0.175600
H -0.301500 -2.163300 -0.253500
H -0.763000 -1.307700 1.233500
H -1.828700 1.283400 -0.175500
H -0.300800 2.163400 -0.253400
H -0.762600 1.307800 1.233400
H 1.451400 -0.000200 1.432900
$end
$scan
stre 1 12 0.800000 0.801000 0.100000
$end
--------------------------------------------------------------

    9    -517.3397527088      2.29e-07  Convergence criterion met
 Total energy in the final basis set =     -517.3397527088
    9    -517.3253996246      2.15e-07  Convergence criterion met
 Total energy in the final basis set =     -517.3253996246
    9    -517.2604198979      2.09e-07  Convergence criterion met
 Total energy in the final basis set =     -517.2604198979
    9    -517.1538468780      2.06e-07  Convergence criterion met
 Total energy in the final basis set =     -517.1538468780
    9    -516.9332408383      2.06e-07  Convergence criterion met
 Total energy in the final basis set =     -516.9332408383
    9    -516.9128092595      2.06e-07  Convergence criterion met
 Total energy in the final basis set =     -516.9128092595
    9    -516.9001746959      2.07e-07  Convergence criterion met
 Total energy in the final basis set =     -516.9001746959
    9    -516.9001344647      2.07e-07  Convergence criterion met
 Total energy in the final basis set =     -516.9001344647
    9    -516.9001621949      2.07e-07  Convergence criterion met
 Total energy in the final basis set =     -516.9001621949

             Standard Nuclear Orientation (Angstroms)
    I     Atom           X                Y                Z
 ----------------------------------------------------------------
    1      S       1.6863707558    -0.0002393035     0.2416388979
    2      C      -0.0906287677     0.0000348837    -0.2973252506
    3      C      -0.8062698493    -1.2734945417     0.1594175044
    4      C      -0.8058936673     1.2737578198     0.1594626447
    5      H      -0.0214231700     0.0000481835    -1.3893007021
    6      H      -1.8331421842    -1.2868177910    -0.2247796291
    7      H      -0.2910532012    -2.1684862689    -0.1974145887
    8      H      -0.8610177617    -1.3261783691     1.2526020374
    9      H      -1.8327554092     1.2874067292    -0.2247534292
   10      H      -0.2904017674     2.1686108560    -0.1973184668
   11      H      -0.8606432273     1.3263995528     1.2526465308
   12      H       1.5367582495    -0.0002417508     1.0275244512
 ----------------------------------------------------------------

    9    -516.9001627357      2.07e-07  Convergence criterion met
 Total energy in the final basis set =     -516.9001627357

                    Orbital Energies (a.u.)
 --------------------------------------------------------------

 Alpha MOs
 -- Occupied --
-88.820 -10.229 -10.186 -10.186  -7.923  -5.892  -5.877  -5.870
 -0.852  -0.769  -0.694  -0.596  -0.462  -0.461  -0.418  -0.398
 -0.393  -0.354  -0.346  -0.314  -0.239

 Beta MOs
 -- Occupied --
-88.820 -10.229 -10.186 -10.186  -7.923  -5.892  -5.877  -5.870
 -0.852  -0.769  -0.694  -0.596  -0.462  -0.461  -0.418  -0.398
 -0.393  -0.354  -0.346  -0.314  -0.239

          Ground-State Mulliken Net Atomic Charges

     Atom                 Charge (a.u.)    Spin (a.u.)
  --------------------------------------------------------
      1 S                     0.093806      -0.000000
      2 C                    -0.210384      -0.000000
      3 C                    -0.302562       0.000000
      4 C                    -0.302562      -0.000000
      5 H                     0.138006      -0.000000
      6 H                     0.106945      -0.000000
      7 H                     0.124812      -0.000000
      8 H                     0.107536       0.000000
      9 H                     0.106945       0.000000
     10 H                     0.124812       0.000000
     11 H                     0.107536       0.000000
     12 H                    -0.094889      -0.000000
  --------------------------------------------------------
  Sum of atomic charges =    -0.000000

                    Cartesian Multipole Moments
 -----------------------------------------------------------------
    Charge (ESU x 10^10)
                 0.0000
    Dipole Moment (Debye)
         X      -1.9071      Y       0.0003      Z       0.4413
       Tot       1.9575
    Quadrupole Moments (Debye-Ang)
        XX     -37.2551     XY       0.0003     YY     -34.5327
        XZ       1.5160     YZ      -0.0003     ZZ     -31.3537

 Final energy is   -516.900162735697
 **  OPTIMIZATION CONVERGED  **
 Total job time:  29.81s(wall), 341.18s(cpu)
        *  Thank you very much for using Q-Chem.  Have a nice day.  *
