 Q-Chem 5.1, Q-Chem, Inc., Pleasanton, CA (2018)
 Q-Chem 5.1.1 for Intel X86 EM64T Linux

User input:
--------------------------------------------------------------

$comment
potential surface scanner
$end

$rem
JOBTYPE  PES_SCAN
UNRESTRICTED TRUE
SYM_IGNORE  TRUE
GEOM_OPT_MAX_CYCLES 400
SCF_MAX_CYCLES 400
METHOD   B3LYP
BASIS   6-31G**
PDB_PRINT 2
SCF_CONVERGENCE 6
THRESH 14
SCF_PRINT 1
$end
$molecule
0 1
S 1.678275 -0.000220 -0.216311
C -0.142443 0.000046 -0.431248
C -0.801526 -1.273040 0.101213
C -0.801156 1.273307 0.101252
H -0.205142 0.000071 -1.533389
H -1.869318 -1.282360 -0.146928
H -0.337439 -2.169612 -0.315879
H -0.704422 -1.315845 1.191663
H -1.868942 1.282959 -0.146908
H -0.336792 2.169756 -0.315795
H -0.704059 1.316038 1.191705
H 1.622863 -0.000303 2.083021
$end
$scan
stre 1 12 2.400000 2.401000 0.100000
$end
--------------------------------------------------------------

   10    -517.2305721568      1.97e-07  Convergence criterion met
 Total energy in the final basis set =     -517.2305721568
   10    -517.2203025126      3.90e-07  Convergence criterion met
 Total energy in the final basis set =     -517.2203025126
   10    -517.2200809882      4.01e-07  Convergence criterion met
 Total energy in the final basis set =     -517.2200809882

             Standard Nuclear Orientation (Angstroms)
    I     Atom           X                Y                Z
 ----------------------------------------------------------------
    1      S       1.6740971654    -0.0002145089    -0.2458179341
    2      C      -0.1459849862     0.0000482757    -0.4404949964
    3      C      -0.8007747090    -1.2732145531     0.0972135521
    4      C      -0.8004095405     1.2734846551     0.0972484849
    5      H      -0.2188205358     0.0000729597    -1.5427953090
    6      H      -1.8707770317    -1.2819655504    -0.1409403036
    7      H      -0.3406814517    -2.1698356203    -0.3241360765
    8      H      -0.6925080814    -1.3152494850     1.1866590669
    9      H      -1.8704058083     1.2825631655    -0.1409224528
   10      H      -0.3400434108     2.1699847715    -0.3240609626
   11      H      -0.6921481335     1.3154493623     1.1866970536
   12      H       1.6283555235    -0.0003264721     2.1537458775
 ----------------------------------------------------------------

   10    -517.2200816925      4.02e-07  Convergence criterion met
 Total energy in the final basis set =     -517.2200816925

                    Orbital Energies (a.u.)
 --------------------------------------------------------------

 Alpha MOs
 -- Occupied --
-88.901 -10.235 -10.187 -10.187  -7.958  -5.924  -5.920  -5.911
 -0.819  -0.695  -0.688  -0.567  -0.466  -0.438  -0.420  -0.393
 -0.362  -0.357  -0.329  -0.286  -0.238

 Beta MOs
 -- Occupied --
-88.901 -10.235 -10.187 -10.187  -7.958  -5.924  -5.920  -5.911
 -0.819  -0.695  -0.688  -0.567  -0.466  -0.438  -0.420  -0.393
 -0.362  -0.357  -0.329  -0.286  -0.238

          Ground-State Mulliken Net Atomic Charges

     Atom                 Charge (a.u.)    Spin (a.u.)
  --------------------------------------------------------
      1 S                    -0.028410       0.000000
      2 C                    -0.226619      -0.000000
      3 C                    -0.291502       0.000000
      4 C                    -0.291502       0.000000
      5 H                     0.143834       0.000000
      6 H                     0.106224       0.000000
      7 H                     0.122606       0.000000
      8 H                     0.116599       0.000000
      9 H                     0.106224      -0.000000
     10 H                     0.122606      -0.000000
     11 H                     0.116600       0.000000
     12 H                     0.003341      -0.000000
  --------------------------------------------------------
  Sum of atomic charges =    -0.000000

                    Cartesian Multipole Moments
 -----------------------------------------------------------------
    Charge (ESU x 10^10)
                -0.0000
    Dipole Moment (Debye)
         X      -1.9357      Y       0.0003      Z      -0.2596
       Tot       1.9530
    Quadrupole Moments (Debye-Ang)
        XX     -37.5022     XY       0.0002     YY     -35.6032
        XZ       0.5466     YZ      -0.0002     ZZ     -32.2852

 Final energy is   -517.220081692474
 **  OPTIMIZATION CONVERGED  **
 Total job time:  13.05s(wall), 147.66s(cpu)
        *  Thank you very much for using Q-Chem.  Have a nice day.  *
