 Q-Chem 5.1, Q-Chem, Inc., Pleasanton, CA (2018)
 Q-Chem 5.1.1 for Intel X86 EM64T Linux

User input:
--------------------------------------------------------------

$comment
potential surface scanner
$end

$rem
JOBTYPE  PES_SCAN
UNRESTRICTED TRUE
SYM_IGNORE  TRUE
GEOM_OPT_MAX_CYCLES 400
SCF_MAX_CYCLES 400
METHOD   B3LYP
BASIS   6-31G**
PDB_PRINT 2
SCF_CONVERGENCE 6
THRESH 14
SCF_PRINT 1
$end
$molecule
0 1
S 1.657900 -0.000200 0.107500
C -0.098900 0.000100 -0.384900
C -0.779700 -1.258900 0.138700
C -0.779300 1.259100 0.138700
H -0.135800 0.000100 -1.479400
H -1.829100 -1.282800 -0.175600
H -0.301500 -2.163300 -0.253500
H -0.763000 -1.307700 1.233500
H -1.828700 1.283400 -0.175500
H -0.300800 2.163400 -0.253400
H -0.762600 1.307800 1.233400
H 1.451400 -0.000200 1.432900
$end
$scan
stre 1 12 0.900000 0.901000 0.100000
$end
--------------------------------------------------------------

    9    -517.3397527088      2.29e-07  Convergence criterion met
 Total energy in the final basis set =     -517.3397527088
    9    -517.3253996246      2.15e-07  Convergence criterion met
 Total energy in the final basis set =     -517.3253996246
    9    -517.2604198979      2.09e-07  Convergence criterion met
 Total energy in the final basis set =     -517.2604198979
    9    -517.1578088555      2.06e-07  Convergence criterion met
 Total energy in the final basis set =     -517.1578088555
    9    -517.1080997137      2.05e-07  Convergence criterion met
 Total energy in the final basis set =     -517.1080997137
    9    -517.1075298982      2.05e-07  Convergence criterion met
 Total energy in the final basis set =     -517.1075298982
    9    -517.1075327513      2.05e-07  Convergence criterion met
 Total energy in the final basis set =     -517.1075327513
    9    -517.1075338177      2.05e-07  Convergence criterion met
 Total energy in the final basis set =     -517.1075338177

             Standard Nuclear Orientation (Angstroms)
    I     Atom           X                Y                Z
 ----------------------------------------------------------------
    1      S       1.6903779318    -0.0002409127     0.2115029271
    2      C      -0.0924365643     0.0000373200    -0.3081236818
    3      C      -0.8048838164    -1.2729019111     0.1557709078
    4      C      -0.8045082209     1.2731649314     0.1558148758
    5      H      -0.0352582030     0.0000488980    -1.4008968684
    6      H      -1.8356536446    -1.2862954021    -0.2181135166
    7      H      -0.2941633571    -2.1685569324    -0.2060265405
    8      H      -0.8486590824    -1.3251939873     1.2494797411
    9      H      -1.8352681689     1.2868846815    -0.2180871859
   10      H      -0.2935145316     2.1686854419    -0.2059294325
   11      H      -0.8482876078     1.3254134556     1.2495229896
   12      H       1.5321552652    -0.0002455828     1.0974857843
 ----------------------------------------------------------------

    9    -517.1075347068      2.05e-07  Convergence criterion met
 Total energy in the final basis set =     -517.1075347068

                    Orbital Energies (a.u.)
 --------------------------------------------------------------

 Alpha MOs
 -- Occupied --
-88.828 -10.228 -10.185 -10.185  -7.918  -5.883  -5.875  -5.868
 -0.839  -0.759  -0.693  -0.594  -0.462  -0.459  -0.418  -0.398
 -0.393  -0.354  -0.346  -0.314  -0.237

 Beta MOs
 -- Occupied --
-88.828 -10.228 -10.185 -10.185  -7.918  -5.883  -5.875  -5.868
 -0.839  -0.759  -0.693  -0.594  -0.462  -0.459  -0.418  -0.398
 -0.393  -0.354  -0.346  -0.314  -0.237

          Ground-State Mulliken Net Atomic Charges

     Atom                 Charge (a.u.)    Spin (a.u.)
  --------------------------------------------------------
      1 S                     0.017599       0.000000
      2 C                    -0.209793       0.000000
      3 C                    -0.301861      -0.000000
      4 C                    -0.301859      -0.000000
      5 H                     0.137441      -0.000000
      6 H                     0.106753      -0.000000
      7 H                     0.124489       0.000000
      8 H                     0.106736       0.000000
      9 H                     0.106753      -0.000000
     10 H                     0.124489       0.000000
     11 H                     0.106736      -0.000000
     12 H                    -0.017485      -0.000000
  --------------------------------------------------------
  Sum of atomic charges =    -0.000000

                    Cartesian Multipole Moments
 -----------------------------------------------------------------
    Charge (ESU x 10^10)
                 0.0000
    Dipole Moment (Debye)
         X      -1.8786      Y       0.0003      Z       0.4764
       Tot       1.9381
    Quadrupole Moments (Debye-Ang)
        XX     -37.3015     XY       0.0003     YY     -34.6864
        XZ       1.6020     YZ      -0.0003     ZZ     -31.3620

 Final energy is   -517.107534706784
 **  OPTIMIZATION CONVERGED  **
 Total job time:  27.21s(wall), 312.04s(cpu)
        *  Thank you very much for using Q-Chem.  Have a nice day.  *
