 Q-Chem 5.1, Q-Chem, Inc., Pleasanton, CA (2018)
 Q-Chem 5.1.1 for Intel X86 EM64T Linux

User input:
--------------------------------------------------------------

$comment
potential surface scanner
$end

$rem
JOBTYPE  PES_SCAN
UNRESTRICTED TRUE
SYM_IGNORE  TRUE
GEOM_OPT_MAX_CYCLES 400
SCF_MAX_CYCLES 400
METHOD   B3LYP
BASIS   6-31G**
PDB_PRINT 2
SCF_CONVERGENCE 6
THRESH 14
SCF_PRINT 1
$end
$molecule
0 1
S 1.701203 -0.000239 -0.006361
C -0.117007 0.000036 -0.369442
C -0.803329 -1.272447 0.129128
C -0.802950 1.272706 0.129176
H -0.117617 0.000058 -1.467410
H -1.854477 -1.285076 -0.183415
H -0.314449 -2.168402 -0.260448
H -0.779767 -1.321596 1.223488
H -1.854088 1.285675 -0.183387
H -0.313787 2.168530 -0.260347
H -0.779395 1.321794 1.223539
H 1.565561 -0.000240 1.587879
$end
$scan
stre 1 12 1.700000 1.701000 0.100000
$end
--------------------------------------------------------------

    8    -517.3223454038      6.64e-07  Convergence criterion met
 Total energy in the final basis set =     -517.3223454038
    9    -517.3093911168      3.17e-07  Convergence criterion met
 Total energy in the final basis set =     -517.3093911168
    9    -517.3090240286      3.18e-07  Convergence criterion met
 Total energy in the final basis set =     -517.3090240286

             Standard Nuclear Orientation (Angstroms)
    I     Atom           X                Y                Z
 ----------------------------------------------------------------
    1      S       1.6991579618    -0.0002373367    -0.0373244350
    2      C      -0.1205745111     0.0000373228    -0.3779522997
    3      C      -0.8031988229    -1.2724505651     0.1252934777
    4      C      -0.8028202605     1.2727100434     0.1253405476
    5      H      -0.1295637853     0.0000596558    -1.4767089639
    6      H      -1.8568099049    -1.2846979109    -0.1787009363
    7      H      -0.3175627477    -2.1685477798    -0.2679377302
    8      H      -0.7698555244    -1.3206521954     1.2193972447
    9      H      -1.8564220024     1.2852978355    -0.1786749346
   10      H      -0.3169009563     2.1686774829    -0.2678369354
   11      H      -0.7694849535     1.3208475353     1.2194477807
   12      H       1.5739335072    -0.0002450878     1.6580571844
 ----------------------------------------------------------------

    9    -517.3090248907      3.19e-07  Convergence criterion met
 Total energy in the final basis set =     -517.3090248907

                    Orbital Energies (a.u.)
 --------------------------------------------------------------

 Alpha MOs
 -- Occupied --
-88.886 -10.230 -10.185 -10.185  -7.944  -5.909  -5.905  -5.898
 -0.814  -0.693  -0.688  -0.570  -0.463  -0.438  -0.417  -0.392
 -0.371  -0.354  -0.338  -0.313  -0.234

 Beta MOs
 -- Occupied --
-88.886 -10.230 -10.185 -10.185  -7.944  -5.909  -5.905  -5.898
 -0.814  -0.693  -0.688  -0.570  -0.463  -0.438  -0.417  -0.392
 -0.371  -0.354  -0.338  -0.313  -0.234

          Ground-State Mulliken Net Atomic Charges

     Atom                 Charge (a.u.)    Spin (a.u.)
  --------------------------------------------------------
      1 S                    -0.052805       0.000000
      2 C                    -0.215515      -0.000000
      3 C                    -0.292983       0.000000
      4 C                    -0.292984       0.000000
      5 H                     0.136405      -0.000000
      6 H                     0.105889      -0.000000
      7 H                     0.122697      -0.000000
      8 H                     0.108870      -0.000000
      9 H                     0.105889      -0.000000
     10 H                     0.122698      -0.000000
     11 H                     0.108869      -0.000000
     12 H                     0.042969      -0.000000
  --------------------------------------------------------
  Sum of atomic charges =     0.000000

                    Cartesian Multipole Moments
 -----------------------------------------------------------------
    Charge (ESU x 10^10)
                 0.0000
    Dipole Moment (Debye)
         X      -1.7842      Y       0.0003      Z       0.2254
       Tot       1.7984
    Quadrupole Moments (Debye-Ang)
        XX     -37.4044     XY       0.0002     YY     -35.5137
        XZ       1.2676     YZ      -0.0002     ZZ     -31.9133

 Final energy is   -517.309024890732
 **  OPTIMIZATION CONVERGED  **
 Total job time:  12.16s(wall), 136.18s(cpu)
        *  Thank you very much for using Q-Chem.  Have a nice day.  *
