 Q-Chem 5.1, Q-Chem, Inc., Pleasanton, CA (2018)
 Q-Chem 5.1.1 for Intel X86 EM64T Linux

User input:
--------------------------------------------------------------

$comment
potential surface scanner
$end

$rem
JOBTYPE  PES_SCAN
UNRESTRICTED TRUE
SYM_IGNORE  TRUE
GEOM_OPT_MAX_CYCLES 400
SCF_MAX_CYCLES 400
METHOD   B3LYP
BASIS   6-31G**
PDB_PRINT 2
SCF_CONVERGENCE 6
THRESH 14
SCF_PRINT 1
$end
$molecule
0 1
S 1.693000 -0.000234 -0.098217
C -0.128019 0.000038 -0.394351
C -0.803483 -1.272669 0.117453
C -0.803103 1.272928 0.117501
H -0.153392 0.000062 -1.494611
H -1.861575 -1.284126 -0.170152
H -0.323982 -2.168775 -0.283091
H -0.751058 -1.319307 1.210794
H -1.861187 1.284728 -0.170126
H -0.323317 2.168906 -0.282987
H -0.750686 1.319493 1.210845
H 1.596699 -0.000247 1.799341
$end
$scan
stre 1 12 2.000000 2.001000 0.100000
$end
--------------------------------------------------------------

    9    -517.2808214349      4.15e-07  Convergence criterion met
 Total energy in the final basis set =     -517.2808214349
    9    -517.2674916160      5.51e-07  Convergence criterion met
 Total energy in the final basis set =     -517.2674916160
    9    -517.2671421097      5.62e-07  Convergence criterion met
 Total energy in the final basis set =     -517.2671421097

             Standard Nuclear Orientation (Angstroms)
    I     Atom           X                Y                Z
 ----------------------------------------------------------------
    1      S       1.6896943463    -0.0002324850    -0.1280011335
    2      C      -0.1317057397     0.0000390105    -0.4034533691
    3      C      -0.8031281978    -1.2727457464     0.1134264354
    4      C      -0.8027491276     1.2730046470     0.1134736626
    5      H      -0.1660714893     0.0000643864    -1.5043272677
    6      H      -1.8637053834    -1.2838078354    -0.1646500309
    7      H      -0.3272351052    -2.1689583473    -0.2911008118
    8      H      -0.7398223964    -1.3183879026     1.2062210517
    9      H      -1.8633177179     1.2844105361    -0.1646238350
   10      H      -0.3265698251     2.1690904493    -0.2909980730
   11      H      -0.7394504782     1.3185705745     1.2062720253
   12      H       1.6039581142    -0.0002502871     1.8701603460
 ----------------------------------------------------------------

    9    -517.2671425119      5.64e-07  Convergence criterion met
 Total energy in the final basis set =     -517.2671425119

                    Orbital Energies (a.u.)
 --------------------------------------------------------------

 Alpha MOs
 -- Occupied --
-88.895 -10.232 -10.185 -10.185  -7.952  -5.918  -5.914  -5.906
 -0.816  -0.694  -0.686  -0.567  -0.464  -0.437  -0.418  -0.392
 -0.364  -0.355  -0.330  -0.307  -0.235

 Beta MOs
 -- Occupied --
-88.895 -10.232 -10.185 -10.185  -7.952  -5.918  -5.914  -5.906
 -0.816  -0.694  -0.686  -0.567  -0.464  -0.437  -0.418  -0.392
 -0.364  -0.355  -0.330  -0.307  -0.235

          Ground-State Mulliken Net Atomic Charges

     Atom                 Charge (a.u.)    Spin (a.u.)
  --------------------------------------------------------
      1 S                    -0.044112      -0.000000
      2 C                    -0.219707       0.000000
      3 C                    -0.291491      -0.000000
      4 C                    -0.291492      -0.000000
      5 H                     0.138990      -0.000000
      6 H                     0.105893       0.000000
      7 H                     0.122429      -0.000000
      8 H                     0.112198      -0.000000
      9 H                     0.105893       0.000000
     10 H                     0.122429       0.000000
     11 H                     0.112197      -0.000000
     12 H                     0.026774       0.000000
  --------------------------------------------------------
  Sum of atomic charges =    -0.000000

                    Cartesian Multipole Moments
 -----------------------------------------------------------------
    Charge (ESU x 10^10)
                -0.0000
    Dipole Moment (Debye)
         X      -1.8354      Y       0.0003      Z       0.0031
       Tot       1.8354
    Quadrupole Moments (Debye-Ang)
        XX     -37.4525     XY       0.0002     YY     -35.6104
        XZ       0.9144     YZ      -0.0002     ZZ     -32.0747

 Final energy is   -517.267142511933
 **  OPTIMIZATION CONVERGED  **
 Total job time:  17.97s(wall), 143.85s(cpu)
        *  Thank you very much for using Q-Chem.  Have a nice day.  *
