 Q-Chem 5.1, Q-Chem, Inc., Pleasanton, CA (2018)
 Q-Chem 5.1.1 for Intel X86 EM64T Linux

User input:
--------------------------------------------------------------

$comment
potential surface scanner
$end

$rem
JOBTYPE  PES_SCAN
UNRESTRICTED TRUE
SYM_IGNORE  TRUE
GEOM_OPT_MAX_CYCLES 400
SCF_MAX_CYCLES 400
METHOD   B3LYP
BASIS   6-31G**
PDB_PRINT 2
SCF_CONVERGENCE 6
THRESH 14
SCF_PRINT 1
$end
$molecule
0 1
S 1.657900 -0.000200 0.107500
C -0.098900 0.000100 -0.384900
C -0.779700 -1.258900 0.138700
C -0.779300 1.259100 0.138700
H -0.135800 0.000100 -1.479400
H -1.829100 -1.282800 -0.175600
H -0.301500 -2.163300 -0.253500
H -0.763000 -1.307700 1.233500
H -1.828700 1.283400 -0.175500
H -0.300800 2.163400 -0.253400
H -0.762600 1.307800 1.233400
H 1.451400 -0.000200 1.432900
$end
$scan
stre 1 12 3.500000 3.501000 0.100000
$end
--------------------------------------------------------------

    9    -517.3397527088      2.29e-07  Convergence criterion met
 Total energy in the final basis set =     -517.3397527088
    9    -517.3334161693      2.50e-07  Convergence criterion met
 Total energy in the final basis set =     -517.3334161693
    9    -517.3165452430      4.07e-07  Convergence criterion met
 Total energy in the final basis set =     -517.3165452430
    9    -517.2957023336      3.92e-07  Convergence criterion met
 Total energy in the final basis set =     -517.2957023336
    9    -517.2744242627      4.57e-07  Convergence criterion met
 Total energy in the final basis set =     -517.2744242627
    9    -517.2544160229      7.44e-07  Convergence criterion met
 Total energy in the final basis set =     -517.2544160229
   10    -517.2361561121      1.77e-07  Convergence criterion met
 Total energy in the final basis set =     -517.2361561121
   10    -517.2198772011      4.01e-07  Convergence criterion met
    8    -517.2970270620      8.43e-07  Convergence criterion met
 Total energy in the final basis set =     -517.2970270620
    8    -517.2970430333      8.46e-07  Convergence criterion met
 Total energy in the final basis set =     -517.2970430333
    8    -517.2970474898      8.47e-07  Convergence criterion met
 Total energy in the final basis set =     -517.2970474898
    8    -517.2970508701      8.50e-07  Convergence criterion met
 Total energy in the final basis set =     -517.2970508701
    8    -517.2970518724      8.51e-07  Convergence criterion met
 Total energy in the final basis set =     -517.2970518724
    8    -517.2970527667      8.53e-07  Convergence criterion met
 Total energy in the final basis set =     -517.2970527667

             Standard Nuclear Orientation (Angstroms)
    I     Atom           X                Y                Z
 ----------------------------------------------------------------
    1      S       1.3980743174     0.2392393890     0.1825931893
    2      C      -0.1966916945     0.3640060589    -0.1722426642
    3      C      -1.0797350705    -0.8396955487    -0.3738400613
    4      C      -0.8923090360     1.6927650095    -0.3151723279
    5      H      -1.5756763247    -0.7862481157    -1.3518901680
    6      H      -1.8811877759    -0.8425070801     0.3774323739
    7      H      -0.5197849191    -1.7715803932    -0.3023425738
    8      H       1.7426583506    -1.8753265050     1.9729853686
    9      H      -1.3233346658     1.7828996379    -1.3210588335
   10      H      -0.2134702248     2.5262777950    -0.1382306456
   11      H      -1.7335711689     1.7540124388     0.3879039845
   12      H       1.8049282122    -2.2430426864     2.6162623580
 ----------------------------------------------------------------

    8    -517.2970532317      8.54e-07  Convergence criterion met
 Total energy in the final basis set =     -517.2970532317

                    Orbital Energies (a.u.)
 --------------------------------------------------------------

 Alpha MOs
 -- Occupied --
-88.857 -10.268 -10.202 -10.202  -7.919  -5.883  -5.882  -5.874
 -0.835  -0.714  -0.707  -0.530  -0.456  -0.447  -0.444  -0.413
 -0.406  -0.378  -0.356  -0.285  -0.218

 Beta MOs
 -- Occupied --
-88.857 -10.268 -10.202 -10.202  -7.919  -5.883  -5.882  -5.874
 -0.835  -0.714  -0.707  -0.530  -0.456  -0.447  -0.444  -0.413
 -0.406  -0.378  -0.356  -0.285  -0.218

          Ground-State Mulliken Net Atomic Charges

     Atom                 Charge (a.u.)    Spin (a.u.)
  --------------------------------------------------------
      1 S                    -0.124523      -0.000000
      2 C                    -0.011463      -0.000000
      3 C                    -0.334753       0.000000
      4 C                    -0.335063       0.000000
      5 H                     0.130186       0.000000
      6 H                     0.133872       0.000000
      7 H                     0.146100      -0.000000
      8 H                     0.019572       0.000000
      9 H                     0.132270      -0.000000
     10 H                     0.145872       0.000000
     11 H                     0.131290      -0.000000
     12 H                    -0.033361      -0.000000
  --------------------------------------------------------
  Sum of atomic charges =    -0.000000

                    Cartesian Multipole Moments
 -----------------------------------------------------------------
    Charge (ESU x 10^10)
                -0.0000
    Dipole Moment (Debye)
         X      -3.0619      Y       0.3978      Z      -0.8427
       Tot       3.2006
    Quadrupole Moments (Debye-Ang)
        XX     -35.4762     XY      -0.6566     YY     -34.1023
        XZ      -0.2198     YZ       0.0425     ZZ     -34.3084

 Final energy is   -517.297053231652
 **  OPTIMIZATION CONVERGED  **
 Total job time:  413.08s(wall), 4661.20s(cpu)
        *  Thank you very much for using Q-Chem.  Have a nice day.  *
