 Q-Chem 5.1, Q-Chem, Inc., Pleasanton, CA (2018)
 Q-Chem 5.1.1 for Intel X86 EM64T Linux

User input:
--------------------------------------------------------------

$comment
potential surface scanner
$end

$rem
JOBTYPE  PES_SCAN
UNRESTRICTED TRUE
SYM_IGNORE  TRUE
GEOM_OPT_MAX_CYCLES 400
SCF_MAX_CYCLES 400
METHOD   B3LYP
BASIS   6-31G**
PDB_PRINT 2
SCF_CONVERGENCE 6
THRESH 14
SCF_PRINT 1
$end
$molecule
0 1
S 1.655223 -0.000198 -0.410607
C -0.162555 0.000056 -0.490812
C -0.788341 -1.273902 0.080993
C -0.787985 1.274177 0.081021
H -0.304581 0.000085 -1.589585
H -1.868535 -1.284881 -0.104694
H -0.346514 -2.171020 -0.357996
H -0.623816 -1.307364 1.163952
H -1.868175 1.285472 -0.104675
H -0.345898 2.171181 -0.357940
H -0.623462 1.307567 1.163982
H 1.594539 -0.000375 2.488757
$end
$scan
stre 1 12 3.000000 3.001000 0.100000
$end
--------------------------------------------------------------

   12    -517.1795686196      1.44e-07  Convergence criterion met
 Total energy in the final basis set =     -517.1795686196
   12    -517.1735496308      4.66e-07  Convergence criterion met
 Total energy in the final basis set =     -517.1735496308
   12    -517.1734852250      4.84e-07  Convergence criterion met
 Total energy in the final basis set =     -517.1734852250
   12    -517.1735225490      4.96e-07  Convergence criterion met
 Total energy in the final basis set =     -517.1735225490
   12    -517.1735243459      4.97e-07  Convergence criterion met
 Total energy in the final basis set =     -517.1735243459
   12    -517.1735291336      4.98e-07  Convergence criterion met
 Total energy in the final basis set =     -517.1735291336

             Standard Nuclear Orientation (Angstroms)
    I     Atom           X                Y                Z
 ----------------------------------------------------------------
    1      S       1.6513258382    -0.0001960325    -0.4468937230
    2      C      -0.1657393355     0.0000580364    -0.5013288961
    3      C      -0.7848666604    -1.2739650782     0.0784087551
    4      C      -0.7845131108     1.2742410335     0.0784355004
    5      H      -0.3237267158     0.0000880657    -1.5983823251
    6      H      -1.8666200294    -1.2867398902    -0.0974868063
    7      H      -0.3455011889    -2.1712905160    -0.3626278602
    8      H      -0.6100574636    -1.3043540700     1.1600089722
    9      H      -1.8662612467     1.2873301902    -0.0974707924
   10      H      -0.3448873736     2.1714527847    -0.3625734614
   11      H      -0.6097088784     1.3045550488     1.1600380087
   12      H       1.5804561649    -0.0003815722     2.5522686283
 ----------------------------------------------------------------

   12    -517.1735295830      4.98e-07  Convergence criterion met
 Total energy in the final basis set =     -517.1735295830

                    Orbital Energies (a.u.)
 --------------------------------------------------------------

 Alpha MOs
 -- Occupied --
-88.903 -10.239 -10.189 -10.189  -7.960  -5.926  -5.922  -5.913
 -0.823  -0.697  -0.691  -0.568  -0.469  -0.440  -0.422  -0.395
 -0.363  -0.360  -0.333  -0.262  -0.240

 Beta MOs
 -- Occupied --
-88.903 -10.239 -10.189 -10.189  -7.960  -5.926  -5.922  -5.913
 -0.823  -0.697  -0.691  -0.568  -0.469  -0.440  -0.422  -0.395
 -0.363  -0.360  -0.333  -0.262  -0.240

          Ground-State Mulliken Net Atomic Charges

     Atom                 Charge (a.u.)    Spin (a.u.)
  --------------------------------------------------------
      1 S                    -0.015196       0.000000
      2 C                    -0.234415       0.000000
      3 C                    -0.292859       0.000000
      4 C                    -0.292859       0.000000
      5 H                     0.151568       0.000000
      6 H                     0.107297       0.000000
      7 H                     0.123959       0.000000
      8 H                     0.120721       0.000000
      9 H                     0.107297       0.000000
     10 H                     0.123958      -0.000000
     11 H                     0.120722       0.000000
     12 H                    -0.020193      -0.000000
  --------------------------------------------------------
  Sum of atomic charges =     0.000000

                    Cartesian Multipole Moments
 -----------------------------------------------------------------
    Charge (ESU x 10^10)
                 0.0000
    Dipole Moment (Debye)
         X      -2.0830      Y       0.0003      Z      -0.5105
       Tot       2.1446
    Quadrupole Moments (Debye-Ang)
        XX     -37.4981     XY       0.0003     YY     -35.5000
        XZ       0.3611     YZ      -0.0002     ZZ     -32.9379

 Final energy is   -517.173529583023
 **  OPTIMIZATION CONVERGED  **
 Total job time:  24.46s(wall), 285.65s(cpu)
        *  Thank you very much for using Q-Chem.  Have a nice day.  *
