 Q-Chem 5.1, Q-Chem, Inc., Pleasanton, CA (2018)
 Q-Chem 5.1.1 for Intel X86 EM64T Linux

User input:
--------------------------------------------------------------

$comment
potential surface scanner
$end

$rem
JOBTYPE  PES_SCAN
UNRESTRICTED TRUE
SYM_IGNORE  TRUE
GEOM_OPT_MAX_CYCLES 400
SCF_MAX_CYCLES 400
METHOD   B3LYP
BASIS   6-31G**
PDB_PRINT 2
SCF_CONVERGENCE 6
THRESH 14
SCF_PRINT 1
$end
$molecule
0 1
S 1.669979 -0.000209 -0.275741
C -0.149475 0.000051 -0.450002
C -0.799590 -1.273432 0.093330
C -0.799228 1.273705 0.093361
H -0.233309 0.000074 -1.552250
H -1.871826 -1.281683 -0.134275
H -0.343710 -2.170068 -0.332516
H -0.679684 -1.314836 1.181607
H -1.871460 1.282279 -0.134258
H -0.343080 2.170221 -0.332450
H -0.679326 1.315040 1.181641
H 1.630609 -0.000346 2.223948
$end
$scan
stre 1 12 2.600000 2.601000 0.100000
$end
--------------------------------------------------------------

   11    -517.2104415665      1.12e-07  Convergence criterion met
 Total energy in the final basis set =     -517.2104415665
   11    -517.2017844377      2.14e-07  Convergence criterion met
 Total energy in the final basis set =     -517.2017844377
   11    -517.2016130593      2.14e-07  Convergence criterion met
 Total energy in the final basis set =     -517.2016130593

             Standard Nuclear Orientation (Angstroms)
    I     Atom           X                Y                Z
 ----------------------------------------------------------------
    1      S       1.6660628194    -0.0002040271    -0.3065774968
    2      C      -0.1528126000     0.0000526585    -0.4599303275
    3      C      -0.7976772861    -1.2736699123     0.0896537302
    4      C      -0.7973188489     1.2739447700     0.0896823908
    5      H      -0.2488729485     0.0000761882    -1.5618511714
    6      H      -1.8722710618    -1.2814271156    -0.1262939557
    7      H      -0.3465072113    -2.1703145882    -0.3411365092
    8      H      -0.6650979225    -1.3145637799     1.1765218642
    9      H      -1.8719083224     1.2820211258    -0.1262770757
   10      H      -0.3458842388     2.1704713630    -0.3410770107
   11      H      -0.6647403334     1.3147716286     1.1765527690
   12      H       1.6269279543    -0.0003623110     2.2931277930
 ----------------------------------------------------------------

   11    -517.2016145552      2.13e-07  Convergence criterion met
 Total energy in the final basis set =     -517.2016145552

                    Orbital Energies (a.u.)
 --------------------------------------------------------------

 Alpha MOs
 -- Occupied --
-88.902 -10.236 -10.187 -10.187  -7.959  -5.926  -5.921  -5.913
 -0.821  -0.696  -0.689  -0.567  -0.467  -0.439  -0.420  -0.394
 -0.362  -0.358  -0.330  -0.276  -0.239

 Beta MOs
 -- Occupied --
-88.902 -10.236 -10.187 -10.187  -7.959  -5.926  -5.921  -5.913
 -0.821  -0.696  -0.689  -0.567  -0.467  -0.439  -0.420  -0.394
 -0.362  -0.358  -0.330  -0.276  -0.239

          Ground-State Mulliken Net Atomic Charges

     Atom                 Charge (a.u.)    Spin (a.u.)
  --------------------------------------------------------
      1 S                    -0.022497      -0.000000
      2 C                    -0.229795      -0.000000
      3 C                    -0.291898       0.000000
      4 C                    -0.291899       0.000000
      5 H                     0.146460      -0.000000
      6 H                     0.106516       0.000000
      7 H                     0.122879      -0.000000
      8 H                     0.118431       0.000000
      9 H                     0.106515       0.000000
     10 H                     0.122878      -0.000000
     11 H                     0.118432      -0.000000
     12 H                    -0.006023       0.000000
  --------------------------------------------------------
  Sum of atomic charges =    -0.000000

                    Cartesian Multipole Moments
 -----------------------------------------------------------------
    Charge (ESU x 10^10)
                -0.0000
    Dipole Moment (Debye)
         X      -1.9877      Y       0.0003      Z      -0.3649
       Tot       2.0209
    Quadrupole Moments (Debye-Ang)
        XX     -37.5140     XY       0.0002     YY     -35.5717
        XZ       0.4298     YZ      -0.0002     ZZ     -32.4423

 Final energy is   -517.201614555221
 **  OPTIMIZATION CONVERGED  **
 Total job time:  13.56s(wall), 155.78s(cpu)
        *  Thank you very much for using Q-Chem.  Have a nice day.  *
