 Q-Chem 5.1, Q-Chem, Inc., Pleasanton, CA (2018)
 Q-Chem 5.1.1 for Intel X86 EM64T Linux

User input:
--------------------------------------------------------------

$comment
potential surface scanner
$end

$rem
JOBTYPE  PES_SCAN
UNRESTRICTED TRUE
SYM_IGNORE  TRUE
GEOM_OPT_MAX_CYCLES 400
SCF_MAX_CYCLES 400
METHOD   B3LYP
BASIS   6-31G**
PDB_PRINT 2
SCF_CONVERGENCE 6
THRESH 14
SCF_PRINT 1
$end
$molecule
0 1
S 1.657900 -0.000200 0.107500
C -0.098900 0.000100 -0.384900
C -0.779700 -1.258900 0.138700
C -0.779300 1.259100 0.138700
H -0.135800 0.000100 -1.479400
H -1.829100 -1.282800 -0.175600
H -0.301500 -2.163300 -0.253500
H -0.763000 -1.307700 1.233500
H -1.828700 1.283400 -0.175500
H -0.300800 2.163400 -0.253400
H -0.762600 1.307800 1.233400
H 1.451400 -0.000200 1.432900
$end
$scan
stre 1 12 1.000000 1.001000 0.100000
$end
--------------------------------------------------------------

    9    -517.3397527088      2.29e-07  Convergence criterion met
 Total energy in the final basis set =     -517.3397527088
    9    -517.3253996246      2.15e-07  Convergence criterion met
 Total energy in the final basis set =     -517.3253996246
    9    -517.2604198979      2.09e-07  Convergence criterion met
 Total energy in the final basis set =     -517.2604198979
    9    -517.2298886679      2.07e-07  Convergence criterion met
 Total energy in the final basis set =     -517.2298886679
    9    -517.2278100223      2.07e-07  Convergence criterion met
 Total energy in the final basis set =     -517.2278100223
    9    -517.2278255276      2.07e-07  Convergence criterion met
 Total energy in the final basis set =     -517.2278255276

             Standard Nuclear Orientation (Angstroms)
    I     Atom           X                Y                Z
 ----------------------------------------------------------------
    1      S       1.6952108792    -0.0002410828     0.1800752769
    2      C      -0.0959314802     0.0000362962    -0.3169125815
    3      C      -0.8047330560    -1.2731495480     0.1518879371
    4      C      -0.8043586561     1.2734147215     0.1519328341
    5      H      -0.0466849740     0.0000508742    -1.4103022660
    6      H      -1.8389686481    -1.2858798378    -0.2123674012
    7      H      -0.2969186197    -2.1685537669    -0.2142846750
    8      H      -0.8381114865    -1.3254117898     1.2460137527
    9      H      -1.8385835480     1.2864691532    -0.2123454127
   10      H      -0.2962718682     2.1686847156    -0.2141886668
   11      H      -0.8377413802     1.3256305506     1.2460609382
   12      H       1.5329928379    -0.0002502860     1.1668302644
 ----------------------------------------------------------------

    9    -517.2278409101      2.07e-07  Convergence criterion met
 Total energy in the final basis set =     -517.2278409101

                    Orbital Energies (a.u.)
 --------------------------------------------------------------

 Alpha MOs
 -- Occupied --
-88.838 -10.228 -10.185 -10.185  -7.918  -5.882  -5.877  -5.870
 -0.829  -0.746  -0.693  -0.591  -0.462  -0.456  -0.417  -0.398
 -0.393  -0.354  -0.346  -0.313  -0.236

 Beta MOs
 -- Occupied --
-88.838 -10.228 -10.185 -10.185  -7.918  -5.882  -5.877  -5.870
 -0.829  -0.746  -0.693  -0.591  -0.462  -0.456  -0.417  -0.398
 -0.393  -0.354  -0.346  -0.313  -0.236

          Ground-State Mulliken Net Atomic Charges

     Atom                 Charge (a.u.)    Spin (a.u.)
  --------------------------------------------------------
      1 S                    -0.027913      -0.000000
      2 C                    -0.210214      -0.000000
      3 C                    -0.300911       0.000000
      4 C                    -0.300910       0.000000
      5 H                     0.136837      -0.000000
      6 H                     0.106664       0.000000
      7 H                     0.124317      -0.000000
      8 H                     0.106236      -0.000000
      9 H                     0.106664      -0.000000
     10 H                     0.124317      -0.000000
     11 H                     0.106235      -0.000000
     12 H                     0.028677       0.000000
  --------------------------------------------------------
  Sum of atomic charges =     0.000000

                    Cartesian Multipole Moments
 -----------------------------------------------------------------
    Charge (ESU x 10^10)
                 0.0000
    Dipole Moment (Debye)
         X      -1.8514      Y       0.0002      Z       0.4960
       Tot       1.9167
    Quadrupole Moments (Debye-Ang)
        XX     -37.3227     XY       0.0003     YY     -34.8265
        XZ       1.6594     YZ      -0.0004     ZZ     -31.4123

 Final energy is   -517.227840910069
 **  OPTIMIZATION CONVERGED  **
 Total job time:  21.58s(wall), 242.95s(cpu)
        *  Thank you very much for using Q-Chem.  Have a nice day.  *
