 Q-Chem 5.1, Q-Chem, Inc., Pleasanton, CA (2018)
 Q-Chem 5.1.1 for Intel X86 EM64T Linux

User input:
--------------------------------------------------------------

$comment
potential surface scanner
$end

$rem
JOBTYPE  PES_SCAN
UNRESTRICTED TRUE
SYM_IGNORE  TRUE
GEOM_OPT_MAX_CYCLES 400
SCF_MAX_CYCLES 400
METHOD   B3LYP
BASIS   6-31G**
PDB_PRINT 2
SCF_CONVERGENCE 6
THRESH 14
SCF_PRINT 1
$end
$molecule
0 1
S 1.674097 -0.000215 -0.245818
C -0.145985 0.000048 -0.440495
C -0.800775 -1.273215 0.097214
C -0.800410 1.273485 0.097248
H -0.218821 0.000073 -1.542795
H -1.870777 -1.281966 -0.140940
H -0.340681 -2.169836 -0.324136
H -0.692508 -1.315249 1.186659
H -1.870406 1.282563 -0.140922
H -0.340043 2.169985 -0.324061
H -0.692148 1.315449 1.186697
H 1.628356 -0.000326 2.153746
$end
$scan
stre 1 12 2.500000 2.501000 0.100000
$end
--------------------------------------------------------------

   10    -517.2200816749      4.02e-07  Convergence criterion met
 Total energy in the final basis set =     -517.2200816749
   11    -517.2106357040      1.10e-07  Convergence criterion met
 Total energy in the final basis set =     -517.2106357040
   11    -517.2104405767      1.12e-07  Convergence criterion met
 Total energy in the final basis set =     -517.2104405767

             Standard Nuclear Orientation (Angstroms)
    I     Atom           X                Y                Z
 ----------------------------------------------------------------
    1      S       1.6699785216    -0.0002091089    -0.2757414194
    2      C      -0.1494746172     0.0000505673    -0.4500015349
    3      C      -0.7995896784    -1.2734320839     0.0933300126
    4      C      -0.7992281621     1.2737048602     0.0933614546
    5      H      -0.2333089680     0.0000744915    -1.5522499973
    6      H      -1.8718261819    -1.2816829034    -0.1342749457
    7      H      -0.3437102096    -2.1700675236    -0.3325161965
    8      H      -0.6796844466    -1.3148355025     1.1816073838
    9      H      -1.8714595122     1.2822785944    -0.1342579674
   10      H      -0.3430802552     2.1702206938    -0.3324496066
   11      H      -0.6793260151     1.3150402889     1.1816414572
   12      H       1.6306085248    -0.0003463738     2.2239483595
 ----------------------------------------------------------------

   11    -517.2104414946      1.12e-07  Convergence criterion met
 Total energy in the final basis set =     -517.2104414946

                    Orbital Energies (a.u.)
 --------------------------------------------------------------

 Alpha MOs
 -- Occupied --
-88.902 -10.236 -10.187 -10.187  -7.959  -5.925  -5.920  -5.912
 -0.820  -0.695  -0.689  -0.567  -0.467  -0.439  -0.420  -0.393
 -0.362  -0.358  -0.330  -0.281  -0.238

 Beta MOs
 -- Occupied --
-88.902 -10.236 -10.187 -10.187  -7.959  -5.925  -5.920  -5.912
 -0.820  -0.695  -0.689  -0.567  -0.467  -0.439  -0.420  -0.393
 -0.362  -0.358  -0.330  -0.281  -0.238

          Ground-State Mulliken Net Atomic Charges

     Atom                 Charge (a.u.)    Spin (a.u.)
  --------------------------------------------------------
      1 S                    -0.025245      -0.000000
      2 C                    -0.228264      -0.000000
      3 C                    -0.291699       0.000000
      4 C                    -0.291700       0.000000
      5 H                     0.145143      -0.000000
      6 H                     0.106365       0.000000
      7 H                     0.122732       0.000000
      8 H                     0.117569      -0.000000
      9 H                     0.106364       0.000000
     10 H                     0.122732       0.000000
     11 H                     0.117569       0.000000
     12 H                    -0.001566       0.000000
  --------------------------------------------------------
  Sum of atomic charges =     0.000000

                    Cartesian Multipole Moments
 -----------------------------------------------------------------
    Charge (ESU x 10^10)
                 0.0000
    Dipole Moment (Debye)
         X      -1.9621      Y       0.0003      Z      -0.3144
       Tot       1.9872
    Quadrupole Moments (Debye-Ang)
        XX     -37.5092     XY       0.0002     YY     -35.5884
        XZ       0.4832     YZ      -0.0002     ZZ     -32.3571

 Final energy is   -517.210441494615
 **  OPTIMIZATION CONVERGED  **
 Total job time:  14.61s(wall), 162.71s(cpu)
        *  Thank you very much for using Q-Chem.  Have a nice day.  *
