 Q-Chem 5.1, Q-Chem, Inc., Pleasanton, CA (2018)
 Q-Chem 5.1.1 for Intel X86 EM64T Linux

User input:
--------------------------------------------------------------

$comment
potential surface scanner
$end

$rem
JOBTYPE  PES_SCAN
UNRESTRICTED TRUE
SYM_IGNORE  TRUE
GEOM_OPT_MAX_CYCLES 400
SCF_MAX_CYCLES 400
METHOD   B3LYP
BASIS   6-31G**
PDB_PRINT 2
SCF_CONVERGENCE 6
THRESH 14
SCF_PRINT 1
$end
$molecule
0 1
S 1.657900 -0.000200 0.107500
C -0.098900 0.000100 -0.384900
C -0.779700 -1.258900 0.138700
C -0.779300 1.259100 0.138700
H -0.135800 0.000100 -1.479400
H -1.829100 -1.282800 -0.175600
H -0.301500 -2.163300 -0.253500
H -0.763000 -1.307700 1.233500
H -1.828700 1.283400 -0.175500
H -0.300800 2.163400 -0.253400
H -0.762600 1.307800 1.233400
H 1.451400 -0.000200 1.432900
$end
$scan
stre 1 12 1.300000 1.301000 0.100000
$end
--------------------------------------------------------------

    9    -517.3397527088      2.29e-07  Convergence criterion met
 Total energy in the final basis set =     -517.3397527088
    9    -517.3401961287      2.18e-07  Convergence criterion met
 Total energy in the final basis set =     -517.3401961287
    9    -517.3403906642      2.17e-07  Convergence criterion met
 Total energy in the final basis set =     -517.3403906642
    9    -517.3404253064      2.17e-07  Convergence criterion met
 Total energy in the final basis set =     -517.3404253064

             Standard Nuclear Orientation (Angstroms)
    I     Atom           X                Y                Z
 ----------------------------------------------------------------
    1      S       1.7023548255    -0.0002385069     0.0873859683
    2      C      -0.1059324680     0.0000342393    -0.3419896269
    3      C      -0.8043260419    -1.2728703687     0.1404234675
    4      C      -0.8039473597     1.2731299015     0.1404709094
    5      H      -0.0808827968     0.0000516608    -1.4376989582
    6      H      -1.8472136510    -1.2852094864    -0.1986572526
    7      H      -0.3059307617    -2.1681893406    -0.2385828029
    8      H      -0.8102921552    -1.3256431980     1.2349550468
    9      H      -1.8468252326     1.2858065427    -0.1986300256
   10      H      -0.3052701391     2.1683144781    -0.2384814729
   11      H      -0.8099174444     1.3258480737     1.2350051151
   12      H       1.5480832248    -0.0002339954     1.3781996320
 ----------------------------------------------------------------

    9    -517.3404261816      2.18e-07  Convergence criterion met
 Total energy in the final basis set =     -517.3404261816

                    Orbital Energies (a.u.)
 --------------------------------------------------------------

 Alpha MOs
 -- Occupied --
-88.864 -10.228 -10.185 -10.185  -7.928  -5.893  -5.889  -5.883
 -0.816  -0.708  -0.693  -0.581  -0.462  -0.446  -0.417  -0.392
 -0.391  -0.353  -0.344  -0.312  -0.233

 Beta MOs
 -- Occupied --
-88.864 -10.228 -10.185 -10.185  -7.928  -5.893  -5.889  -5.883
 -0.816  -0.708  -0.693  -0.581  -0.462  -0.446  -0.417  -0.392
 -0.391  -0.353  -0.344  -0.312  -0.233

          Ground-State Mulliken Net Atomic Charges

     Atom                 Charge (a.u.)    Spin (a.u.)
  --------------------------------------------------------
      1 S                    -0.055365      -0.000000
      2 C                    -0.212802       0.000000
      3 C                    -0.297256      -0.000000
      4 C                    -0.297257      -0.000000
      5 H                     0.135708      -0.000000
      6 H                     0.106269       0.000000
      7 H                     0.123548      -0.000000
      8 H                     0.106217      -0.000000
      9 H                     0.106269      -0.000000
     10 H                     0.123548       0.000000
     11 H                     0.106217       0.000000
     12 H                     0.054902       0.000000
  --------------------------------------------------------
  Sum of atomic charges =    -0.000000

                    Cartesian Multipole Moments
 -----------------------------------------------------------------
    Charge (ESU x 10^10)
                -0.0000
    Dipole Moment (Debye)
         X      -1.7887      Y       0.0003      Z       0.4584
       Tot       1.8465
    Quadrupole Moments (Debye-Ang)
        XX     -37.3552     XY       0.0003     YY     -35.1951
        XZ       1.6526     YZ      -0.0003     ZZ     -31.6340

 Final energy is   -517.340426181582
 **  OPTIMIZATION CONVERGED  **
 Total job time:  14.89s(wall), 171.44s(cpu)
        *  Thank you very much for using Q-Chem.  Have a nice day.  *
