 Q-Chem 5.1, Q-Chem, Inc., Pleasanton, CA (2018)
 Q-Chem 5.1.1 for Intel X86 EM64T Linux

User input:
--------------------------------------------------------------

$comment
potential surface scanner
$end

$rem
JOBTYPE  PES_SCAN
UNRESTRICTED TRUE
SYM_IGNORE  TRUE
GEOM_OPT_MAX_CYCLES 400
SCF_MAX_CYCLES 400
METHOD   B3LYP
BASIS   6-31G**
PDB_PRINT 2
SCF_CONVERGENCE 6
THRESH 14
SCF_PRINT 1
$end
$molecule
0 1
S 1.702746 -0.000240 0.056008
C -0.109744 0.000035 -0.351260
C -0.803953 -1.272669 0.136716
C -0.803573 1.272927 0.136765
H -0.093137 0.000053 -1.447702
H -1.849716 -1.285447 -0.193547
H -0.308721 -2.168196 -0.245898
H -0.800239 -1.324307 1.231275
H -1.849327 1.286045 -0.193517
H -0.308059 2.168322 -0.245796
H -0.799862 1.324509 1.231326
H 1.553486 -0.000232 1.448029
$end
$scan
stre 1 12 1.500000 1.501000 0.100000
$end
--------------------------------------------------------------

    9    -517.3406213208      2.27e-07  Convergence criterion met
 Total energy in the final basis set =     -517.3406213208
    9    -517.3337711208      2.48e-07  Convergence criterion met
 Total energy in the final basis set =     -517.3337711208
    9    -517.3335749802      2.48e-07  Convergence criterion met
 Total energy in the final basis set =     -517.3335749802

             Standard Nuclear Orientation (Angstroms)
    I     Atom           X                Y                Z
 ----------------------------------------------------------------
    1      S       1.7024951968    -0.0002400554     0.0247557070
    2      C      -0.1133942045     0.0000353964    -0.3605053084
    3      C      -0.8035719911    -1.2725322081     0.1329477728
    4      C      -0.8031918886     1.2727905236     0.1329962506
    5      H      -0.1055275739     0.0000556558    -1.4577053252
    6      H      -1.8521005851    -1.2853206944    -0.1883675891
    7      H      -0.3114975067    -2.1682756609    -0.2531465611
    8      H      -0.7898908110    -1.3228926534     1.2274568123
    9      H      -1.8517113053     1.2859189517    -0.1883381376
   10      H      -0.3108354459     2.1684022081    -0.2530446964
   11      H      -0.7895159940     1.3230927480     1.2275084722
   12      H       1.5586431093    -0.0002342113     1.5178416028
 ----------------------------------------------------------------

    9    -517.3335755943      2.48e-07  Convergence criterion met
 Total energy in the final basis set =     -517.3335755943

                    Orbital Energies (a.u.)
 --------------------------------------------------------------

 Alpha MOs
 -- Occupied --
-88.877 -10.228 -10.185 -10.185  -7.936  -5.902  -5.898  -5.891
 -0.814  -0.694  -0.693  -0.575  -0.463  -0.441  -0.417  -0.392
 -0.381  -0.353  -0.342  -0.313  -0.233

 Beta MOs
 -- Occupied --
-88.877 -10.228 -10.185 -10.185  -7.936  -5.902  -5.898  -5.891
 -0.814  -0.694  -0.693  -0.575  -0.463  -0.441  -0.417  -0.392
 -0.381  -0.353  -0.342  -0.313  -0.233

          Ground-State Mulliken Net Atomic Charges

     Atom                 Charge (a.u.)    Spin (a.u.)
  --------------------------------------------------------
      1 S                    -0.055340      -0.000000
      2 C                    -0.213920       0.000000
      3 C                    -0.294844       0.000000
      4 C                    -0.294845       0.000000
      5 H                     0.135672      -0.000000
      6 H                     0.106030      -0.000000
      7 H                     0.123089      -0.000000
      8 H                     0.107193      -0.000000
      9 H                     0.106030      -0.000000
     10 H                     0.123090      -0.000000
     11 H                     0.107193      -0.000000
     12 H                     0.050651       0.000000
  --------------------------------------------------------
  Sum of atomic charges =    -0.000000

                    Cartesian Multipole Moments
 -----------------------------------------------------------------
    Charge (ESU x 10^10)
                -0.0000
    Dipole Moment (Debye)
         X      -1.7752      Y       0.0003      Z       0.3605
       Tot       1.8115
    Quadrupole Moments (Debye-Ang)
        XX     -37.3786     XY       0.0003     YY     -35.3824
        XZ       1.4942     YZ      -0.0003     ZZ     -31.7805

 Final energy is   -517.333575594276
 **  OPTIMIZATION CONVERGED  **
 Total job time:  15.08s(wall), 151.54s(cpu)
        *  Thank you very much for using Q-Chem.  Have a nice day.  *
