 Q-Chem 5.1, Q-Chem, Inc., Pleasanton, CA (2018)
 Q-Chem 5.1.1 for Intel X86 EM64T Linux

User input:
--------------------------------------------------------------

$comment
potential surface scanner
$end

$rem
JOBTYPE  PES_SCAN
UNRESTRICTED TRUE
SYM_IGNORE  TRUE
GEOM_OPT_MAX_CYCLES 400
SCF_MAX_CYCLES 400
METHOD   B3LYP
BASIS   6-31G**
PDB_PRINT 2
SCF_CONVERGENCE 6
THRESH 14
SCF_PRINT 1
$end
$molecule
0 1
S 1.657900 -0.000200 0.107500
C -0.098900 0.000100 -0.384900
C -0.779700 -1.258900 0.138700
C -0.779300 1.259100 0.138700
H -0.135800 0.000100 -1.479400
H -1.829100 -1.282800 -0.175600
H -0.301500 -2.163300 -0.253500
H -0.763000 -1.307700 1.233500
H -1.828700 1.283400 -0.175500
H -0.300800 2.163400 -0.253400
H -0.762600 1.307800 1.233400
H 1.451400 -0.000200 1.432900
$end
$scan
stre 1 12 3.600000 3.601000 0.100000
$end
--------------------------------------------------------------

    9    -517.3397527088      2.29e-07  Convergence criterion met
 Total energy in the final basis set =     -517.3397527088
    9    -517.3334161693      2.50e-07  Convergence criterion met
 Total energy in the final basis set =     -517.3334161693
    9    -517.3165452430      4.07e-07  Convergence criterion met
 Total energy in the final basis set =     -517.3165452430
    9    -517.2957023336      3.92e-07  Convergence criterion met
 Total energy in the final basis set =     -517.2957023336
    9    -517.2744242627      4.57e-07  Convergence criterion met
 Total energy in the final basis set =     -517.2744242627
    9    -517.2544160229      7.44e-07  Convergence criterion met
 Total energy in the final basis set =     -517.2544160229
   10    -517.2361561121      1.77e-07  Convergence criterion met
 Total energy in the final basis set =     -517.2361561121
   10    -517.2198772011      4.01e-07  Convergence criterion met
    8    -517.2972922182      8.40e-07  Convergence criterion met
 Total energy in the final basis set =     -517.2972922182
    8    -517.2972957754      8.39e-07  Convergence criterion met
 Total energy in the final basis set =     -517.2972957754
    8    -517.2973001042      8.37e-07  Convergence criterion met
 Total energy in the final basis set =     -517.2973001042
    8    -517.2973022476      8.37e-07  Convergence criterion met
 Total energy in the final basis set =     -517.2973022476
    8    -517.2973044378      8.37e-07  Convergence criterion met
 Total energy in the final basis set =     -517.2973044378
    8    -517.2973052287      8.37e-07  Convergence criterion met
 Total energy in the final basis set =     -517.2973052287

             Standard Nuclear Orientation (Angstroms)
    I     Atom           X                Y                Z
 ----------------------------------------------------------------
    1      S       1.4680506100     0.1563172243     0.0636145550
    2      C      -0.1341115512     0.3400184364    -0.2277828151
    3      C      -1.0687229657    -0.8294517586    -0.3935653471
    4      C      -0.7851621285     1.6938190170    -0.3385158846
    5      H      -1.6353354003    -0.7341608613    -1.3285955459
    6      H      -1.8099016528    -0.8283140445     0.4171324705
    7      H      -0.5357864787    -1.7795983440    -0.3854155495
    8      H       1.5051281842    -1.8776898753     2.1074446463
    9      H      -1.2643143779     1.8007537966    -1.3205901944
   10      H      -0.0670392560     2.5008534280    -0.1980426231
   11      H      -1.5864694462     1.7867742513     0.4064471231
   12      H       1.4435644630    -2.2285212700     2.7602691648
 ----------------------------------------------------------------

    8    -517.2973056699      8.38e-07  Convergence criterion met
 Total energy in the final basis set =     -517.2973056699

                    Orbital Energies (a.u.)
 --------------------------------------------------------------

 Alpha MOs
 -- Occupied --
-88.857 -10.268 -10.201 -10.201  -7.919  -5.882  -5.882  -5.874
 -0.835  -0.714  -0.706  -0.529  -0.456  -0.447  -0.444  -0.416
 -0.406  -0.377  -0.357  -0.285  -0.218

 Beta MOs
 -- Occupied --
-88.857 -10.268 -10.201 -10.201  -7.919  -5.882  -5.882  -5.874
 -0.835  -0.714  -0.706  -0.529  -0.456  -0.447  -0.444  -0.416
 -0.406  -0.377  -0.357  -0.285  -0.218

          Ground-State Mulliken Net Atomic Charges

     Atom                 Charge (a.u.)    Spin (a.u.)
  --------------------------------------------------------
      1 S                    -0.127195      -0.000000
      2 C                    -0.011404       0.000000
      3 C                    -0.334811      -0.000000
      4 C                    -0.335218       0.000000
      5 H                     0.128759       0.000000
      6 H                     0.135474       0.000000
      7 H                     0.146197       0.000000
      8 H                     0.019219       0.000000
      9 H                     0.131842      -0.000000
     10 H                     0.145907       0.000000
     11 H                     0.131751      -0.000000
     12 H                    -0.030521      -0.000000
  --------------------------------------------------------
  Sum of atomic charges =     0.000000

                    Cartesian Multipole Moments
 -----------------------------------------------------------------
    Charge (ESU x 10^10)
                 0.0000
    Dipole Moment (Debye)
         X      -3.0479      Y       0.4808      Z      -0.6941
       Tot       3.1627
    Quadrupole Moments (Debye-Ang)
        XX     -35.7734     XY      -0.5650     YY     -33.9972
        XZ       0.0001     YZ       0.0057     ZZ     -34.2168

 Final energy is   -517.297305669938
 **  OPTIMIZATION CONVERGED  **
 Total job time:  324.64s(wall), 3746.11s(cpu)
        *  Thank you very much for using Q-Chem.  Have a nice day.  *
