 Q-Chem 5.1, Q-Chem, Inc., Pleasanton, CA (2018)
 Q-Chem 5.1.1 for Intel X86 EM64T Linux

User input:
--------------------------------------------------------------

$comment
potential surface scanner
$end

$rem
JOBTYPE  PES_SCAN
UNRESTRICTED TRUE
SYM_IGNORE  TRUE
GEOM_OPT_MAX_CYCLES 400
SCF_MAX_CYCLES 400
METHOD   B3LYP
BASIS   6-31G**
PDB_PRINT 2
SCF_CONVERGENCE 6
THRESH 14
SCF_PRINT 1
$end
$molecule
0 1
S 1.657900 -0.000200 0.107500
C -0.098900 0.000100 -0.384900
C -0.779700 -1.258900 0.138700
C -0.779300 1.259100 0.138700
H -0.135800 0.000100 -1.479400
H -1.829100 -1.282800 -0.175600
H -0.301500 -2.163300 -0.253500
H -0.763000 -1.307700 1.233500
H -1.828700 1.283400 -0.175500
H -0.300800 2.163400 -0.253400
H -0.762600 1.307800 1.233400
H 1.451400 -0.000200 1.432900
$end
$scan
stre 1 12 1.200000 1.201000 0.100000
$end
--------------------------------------------------------------

    9    -517.3397527088      2.29e-07  Convergence criterion met
 Total energy in the final basis set =     -517.3397527088
    9    -517.3285032293      2.14e-07  Convergence criterion met
 Total energy in the final basis set =     -517.3285032293
    9    -517.3276306363      2.12e-07  Convergence criterion met
 Total energy in the final basis set =     -517.3276306363
    9    -517.3276878396      2.12e-07  Convergence criterion met
 Total energy in the final basis set =     -517.3276878396

             Standard Nuclear Orientation (Angstroms)
    I     Atom           X                Y                Z
 ----------------------------------------------------------------
    1      S       1.7009595825    -0.0002390690     0.1183971265
    2      C      -0.1024606436     0.0000348933    -0.3340913927
    3      C      -0.8042271108    -1.2728682194     0.1442225218
    4      C      -0.8038498140     1.2731292547     0.1442692921
    5      H      -0.0696963501     0.0000509396    -1.4290575782
    6      H      -1.8446063827    -1.2855084309    -0.2024468612
    7      H      -0.3030111788    -2.1682964756    -0.2308271663
    8      H      -0.8186656458    -1.3255486121     1.2387180259
    9      H      -1.8442193628     1.2861032084    -0.2024200050
   10      H      -0.3023550438     2.1684230815    -0.2307279562
   11      H      -0.8182913484     1.3257579388     1.2387672171
   12      H       1.5403232983    -0.0002385092     1.3075967760
 ----------------------------------------------------------------

    9    -517.3276888213      2.12e-07  Convergence criterion met
 Total energy in the final basis set =     -517.3276888213

                    Orbital Energies (a.u.)
 --------------------------------------------------------------

 Alpha MOs
 -- Occupied --
-88.856 -10.228 -10.185 -10.185  -7.924  -5.888  -5.885  -5.878
 -0.818  -0.718  -0.693  -0.585  -0.462  -0.449  -0.417  -0.394
 -0.392  -0.353  -0.345  -0.312  -0.234

 Beta MOs
 -- Occupied --
-88.856 -10.228 -10.185 -10.185  -7.924  -5.888  -5.885  -5.878
 -0.818  -0.718  -0.693  -0.585  -0.462  -0.449  -0.417  -0.394
 -0.392  -0.353  -0.345  -0.312  -0.234

          Ground-State Mulliken Net Atomic Charges

     Atom                 Charge (a.u.)    Spin (a.u.)
  --------------------------------------------------------
      1 S                    -0.053415      -0.000000
      2 C                    -0.212119      -0.000000
      3 C                    -0.298536      -0.000000
      4 C                    -0.298536       0.000000
      5 H                     0.135942      -0.000000
      6 H                     0.106393       0.000000
      7 H                     0.123793       0.000000
      8 H                     0.105990      -0.000000
      9 H                     0.106393      -0.000000
     10 H                     0.123793      -0.000000
     11 H                     0.105989      -0.000000
     12 H                     0.054312      -0.000000
  --------------------------------------------------------
  Sum of atomic charges =     0.000000

                    Cartesian Multipole Moments
 -----------------------------------------------------------------
    Charge (ESU x 10^10)
                -0.0000
    Dipole Moment (Debye)
         X      -1.8049      Y       0.0003      Z       0.4853
       Tot       1.8690
    Quadrupole Moments (Debye-Ang)
        XX     -37.3479     XY       0.0003     YY     -35.0827
        XZ       1.6825     YZ      -0.0003     ZZ     -31.5561

 Final energy is   -517.327688821335
 **  OPTIMIZATION CONVERGED  **
 Total job time:  28.69s(wall), 184.98s(cpu)
        *  Thank you very much for using Q-Chem.  Have a nice day.  *
