 Q-Chem 5.1, Q-Chem, Inc., Pleasanton, CA (2018)
 Q-Chem 5.1.1 for Intel X86 EM64T Linux

User input:
--------------------------------------------------------------

$comment
potential surface scanner
$end

$rem
JOBTYPE  PES_SCAN
UNRESTRICTED TRUE
SYM_IGNORE  TRUE
GEOM_OPT_MAX_CYCLES 400
SCF_MAX_CYCLES 400
METHOD   B3LYP
BASIS   6-31G**
PDB_PRINT 2
SCF_CONVERGENCE 6
THRESH 14
SCF_PRINT 1
$end
$molecule
0 1
S 1.702495 -0.000240 0.024756
C -0.113394 0.000035 -0.360505
C -0.803572 -1.272532 0.132948
C -0.803192 1.272791 0.132996
H -0.105528 0.000056 -1.457705
H -1.852101 -1.285321 -0.188368
H -0.311498 -2.168276 -0.253147
H -0.789891 -1.322893 1.227457
H -1.851711 1.285919 -0.188338
H -0.310835 2.168402 -0.253045
H -0.789516 1.323093 1.227508
H 1.558643 -0.000234 1.517842
$end
$scan
stre 1 12 1.600000 1.601000 0.100000
$end
--------------------------------------------------------------

    9    -517.3335755852      2.48e-07  Convergence criterion met
 Total energy in the final basis set =     -517.3335755852
    8    -517.3226495736      7.31e-07  Convergence criterion met
 Total energy in the final basis set =     -517.3226495736
    8    -517.3223446737      6.51e-07  Convergence criterion met
 Total energy in the final basis set =     -517.3223446737

             Standard Nuclear Orientation (Angstroms)
    I     Atom           X                Y                Z
 ----------------------------------------------------------------
    1      S       1.7012034662    -0.0002391577    -0.0063609157
    2      C      -0.1170067953     0.0000363536    -0.3694422005
    3      C      -0.8033291896    -1.2724470508     0.1291279898
    4      C      -0.8029497898     1.2727061140     0.1291756655
    5      H      -0.1176170957     0.0000578777    -1.4674096913
    6      H      -1.8544766381    -1.2850762229    -0.1834147289
    7      H      -0.3144485764    -2.1684019929    -0.2604483656
    8      H      -0.7797669468    -1.3215956409     1.2234880936
    9      H      -1.8540879233     1.2856753382    -0.1833871378
   10      H      -0.3137865411     2.1685301683    -0.2603473290
   11      H      -0.7793945978     1.3217939420     1.2235390992
   12      H       1.5655606278    -0.0002397287     1.5878785208
 ----------------------------------------------------------------

    8    -517.3223454591      6.64e-07  Convergence criterion met
 Total energy in the final basis set =     -517.3223454591

                    Orbital Energies (a.u.)
 --------------------------------------------------------------

 Alpha MOs
 -- Occupied --
-88.881 -10.229 -10.185 -10.185  -7.940  -5.906  -5.902  -5.895
 -0.814  -0.693  -0.690  -0.572  -0.463  -0.439  -0.417  -0.392
 -0.376  -0.354  -0.341  -0.313  -0.233

 Beta MOs
 -- Occupied --
-88.881 -10.229 -10.185 -10.185  -7.940  -5.906  -5.902  -5.895
 -0.814  -0.693  -0.690  -0.572  -0.463  -0.439  -0.417  -0.392
 -0.376  -0.354  -0.341  -0.313  -0.233

          Ground-State Mulliken Net Atomic Charges

     Atom                 Charge (a.u.)    Spin (a.u.)
  --------------------------------------------------------
      1 S                    -0.054333       0.000000
      2 C                    -0.214606       0.000000
      3 C                    -0.293835       0.000000
      4 C                    -0.293836       0.000000
      5 H                     0.135935      -0.000000
      6 H                     0.105944      -0.000000
      7 H                     0.122879       0.000000
      8 H                     0.107952      -0.000000
      9 H                     0.105944      -0.000000
     10 H                     0.122879       0.000000
     11 H                     0.107951      -0.000000
     12 H                     0.047127       0.000000
  --------------------------------------------------------
  Sum of atomic charges =    -0.000000

                    Cartesian Multipole Moments
 -----------------------------------------------------------------
    Charge (ESU x 10^10)
                -0.0000
    Dipole Moment (Debye)
         X      -1.7768      Y       0.0003      Z       0.2959
       Tot       1.8013
    Quadrupole Moments (Debye-Ang)
        XX     -37.3910     XY       0.0002     YY     -35.4553
        XZ       1.3854     YZ      -0.0003     ZZ     -31.8490

 Final energy is   -517.322345459087
 **  OPTIMIZATION CONVERGED  **
 Total job time:  12.03s(wall), 131.13s(cpu)
        *  Thank you very much for using Q-Chem.  Have a nice day.  *
