 Q-Chem 5.1, Q-Chem, Inc., Pleasanton, CA (2018)
 Q-Chem 5.1.1 for Intel X86 EM64T Linux

User input:
--------------------------------------------------------------

$comment
potential surface scanner
$end

$rem
JOBTYPE  PES_SCAN
UNRESTRICTED TRUE
SYM_IGNORE  TRUE
GEOM_OPT_MAX_CYCLES 400
SCF_MAX_CYCLES 400
METHOD   B3LYP
BASIS   6-31G**
PDB_PRINT 2
SCF_CONVERGENCE 6
THRESH 14
SCF_PRINT 1
$end
$molecule
0 1
S 1.646545 -0.000178 -0.525679
C -0.168304 0.000065 -0.524318
C -0.771435 -1.273234 0.074432
C -0.771100 1.273519 0.074439
H -0.361152 0.000087 -1.616415
H -1.859052 -1.279517 -0.060369
H -0.354117 -2.172677 -0.383601
H -0.555195 -1.304901 1.148660
H -1.858712 1.280106 -0.060381
H -0.353526 2.172854 -0.383574
H -0.554877 1.305117 1.148672
H 1.490824 -0.000443 2.670529
$end
$scan
stre 1 12 3.300000 3.301000 0.100000
$end
--------------------------------------------------------------

   12    -517.1631513359      7.72e-07  Convergence criterion met
 Total energy in the final basis set =     -517.1631513359
   13    -517.1587016924      1.16e-07  Convergence criterion met
 Total energy in the final basis set =     -517.1587016924
   13    -517.1586706106      1.13e-07  Convergence criterion met
 Total energy in the final basis set =     -517.1586706106
   13    -517.1587123443      1.13e-07  Convergence criterion met
 Total energy in the final basis set =     -517.1587123443
   13    -517.1587141477      1.14e-07  Convergence criterion met
 Total energy in the final basis set =     -517.1587141477
   13    -517.1587199054      1.16e-07  Convergence criterion met
 Total energy in the final basis set =     -517.1587199054

             Standard Nuclear Orientation (Angstroms)
    I     Atom           X                Y                Z
 ----------------------------------------------------------------
    1      S       1.6415987531    -0.0001730731    -0.5683556164
    2      C      -0.1718884446     0.0000669536    -0.5331179041
    3      C      -0.7663221045    -1.2737229800     0.0732261092
    4      C      -0.7659891609     1.2740087384     0.0732318807
    5      H      -0.3835168591     0.0000900962    -1.6226521249
    6      H      -1.8548922414    -1.2844543963    -0.0536534831
    7      H      -0.3482346278    -2.1720346333    -0.3858975949
    8      H      -0.5422165703    -1.3012788534     1.1461026863
    9      H      -1.8545543722     1.2850414046    -0.0536682752
   10      H      -0.3476474683     2.1722115684    -0.3858732883
   11      H      -0.5419011643     1.3014932386     1.1461124891
   12      H       1.4654632603    -0.0004500638     2.7269401215
 ----------------------------------------------------------------

   13    -517.1587205990      1.16e-07  Convergence criterion met
 Total energy in the final basis set =     -517.1587205990

                    Orbital Energies (a.u.)
 --------------------------------------------------------------

 Alpha MOs
 -- Occupied --
-88.902 -10.241 -10.190 -10.190  -7.960  -5.926  -5.922  -5.913
 -0.825  -0.698  -0.693  -0.569  -0.470  -0.441  -0.423  -0.396
 -0.364  -0.361  -0.334  -0.254  -0.241

 Beta MOs
 -- Occupied --
-88.902 -10.241 -10.190 -10.190  -7.960  -5.926  -5.922  -5.913
 -0.825  -0.698  -0.693  -0.569  -0.470  -0.441  -0.423  -0.396
 -0.364  -0.361  -0.334  -0.254  -0.241

          Ground-State Mulliken Net Atomic Charges

     Atom                 Charge (a.u.)    Spin (a.u.)
  --------------------------------------------------------
      1 S                    -0.011270      -0.000000
      2 C                    -0.236675      -0.000000
      3 C                    -0.293202      -0.000000
      4 C                    -0.293204      -0.000000
      5 H                     0.155288      -0.000000
      6 H                     0.107928      -0.000000
      7 H                     0.124629       0.000000
      8 H                     0.121444      -0.000000
      9 H                     0.107927      -0.000000
     10 H                     0.124628       0.000000
     11 H                     0.121447      -0.000000
     12 H                    -0.028939       0.000000
  --------------------------------------------------------
  Sum of atomic charges =    -0.000000

                    Cartesian Multipole Moments
 -----------------------------------------------------------------
    Charge (ESU x 10^10)
                -0.0000
    Dipole Moment (Debye)
         X      -2.1298      Y       0.0003      Z      -0.5773
       Tot       2.2067
    Quadrupole Moments (Debye-Ang)
        XX     -37.4215     XY       0.0003     YY     -35.4480
        XZ       0.4522     YZ      -0.0002     ZZ     -33.5027

 Final energy is   -517.158720598976
 **  OPTIMIZATION CONVERGED  **
 Total job time:  25.74s(wall), 300.40s(cpu)
        *  Thank you very much for using Q-Chem.  Have a nice day.  *
