 Q-Chem 5.1, Q-Chem, Inc., Pleasanton, CA (2018)
 Q-Chem 5.1.1 for Intel X86 EM64T Linux

User input:
--------------------------------------------------------------

$comment
potential surface scanner
$end

$rem
JOBTYPE  PES_SCAN
UNRESTRICTED TRUE
SYM_IGNORE  TRUE
GEOM_OPT_MAX_CYCLES 400
SCF_MAX_CYCLES 400
METHOD   B3LYP
BASIS   6-31G**
PDB_PRINT 2
SCF_CONVERGENCE 6
THRESH 14
SCF_PRINT 1
$end
$molecule
0 1
S 1.682382 -0.000225 -0.186938
C -0.138881 0.000043 -0.422049
C -0.802094 -1.272911 0.105274
C -0.801721 1.273174 0.105317
H -0.191950 0.000069 -1.523874
H -1.867597 -1.282838 -0.152783
H -0.334058 -2.169395 -0.307616
H -0.716166 -1.316608 1.196616
H -1.867216 1.283439 -0.152761
H -0.333402 2.169534 -0.307523
H -0.715799 1.316796 1.196663
H 1.616399 -0.000280 2.012072
$end
$scan
stre 1 12 2.300000 2.301000 0.100000
$end
--------------------------------------------------------------

   10    -517.2419380667      1.67e-07  Convergence criterion met
 Total energy in the final basis set =     -517.2419380667
   10    -517.2308226710      1.96e-07  Convergence criterion met
 Total energy in the final basis set =     -517.2308226710
   10    -517.2305715315      1.97e-07  Convergence criterion met
 Total energy in the final basis set =     -517.2305715315

             Standard Nuclear Orientation (Angstroms)
    I     Atom           X                Y                Z
 ----------------------------------------------------------------
    1      S       1.6782751922    -0.0002200639    -0.2163106030
    2      C      -0.1424434659     0.0000456287    -0.4312481034
    3      C      -0.8015256995    -1.2730404565     0.1012132156
    4      C      -0.8011562646     1.2733071585     0.1012520865
    5      H      -0.2051422633     0.0000712364    -1.5333890574
    6      H      -1.8693183653    -1.2823597958    -0.1469276544
    7      H      -0.3374391406    -2.1696119414    -0.3158789856
    8      H      -0.7044222285    -1.3158448928     1.1916630403
    9      H      -1.8689419670     1.2829594460    -0.1469080863
   10      H      -0.3367919351     2.1697562145    -0.3157946045
   11      H      -0.7040594166     1.3160383873     1.1917052825
   12      H       1.6228625541    -0.0003029209     2.0830214697
 ----------------------------------------------------------------

   10    -517.2305721470      1.97e-07  Convergence criterion met
 Total energy in the final basis set =     -517.2305721470

                    Orbital Energies (a.u.)
 --------------------------------------------------------------

 Alpha MOs
 -- Occupied --
-88.900 -10.234 -10.186 -10.186  -7.957  -5.923  -5.919  -5.910
 -0.818  -0.695  -0.687  -0.566  -0.466  -0.438  -0.419  -0.393
 -0.362  -0.357  -0.329  -0.291  -0.237

 Beta MOs
 -- Occupied --
-88.900 -10.234 -10.186 -10.186  -7.957  -5.923  -5.919  -5.910
 -0.818  -0.695  -0.687  -0.566  -0.466  -0.438  -0.419  -0.393
 -0.362  -0.357  -0.329  -0.291  -0.237

          Ground-State Mulliken Net Atomic Charges

     Atom                 Charge (a.u.)    Spin (a.u.)
  --------------------------------------------------------
      1 S                    -0.032022       0.000000
      2 C                    -0.224907      -0.000000
      3 C                    -0.291338      -0.000000
      4 C                    -0.291338       0.000000
      5 H                     0.142545       0.000000
      6 H                     0.106103      -0.000000
      7 H                     0.122506       0.000000
      8 H                     0.115550       0.000000
      9 H                     0.106102      -0.000000
     10 H                     0.122506      -0.000000
     11 H                     0.115550      -0.000000
     12 H                     0.008744      -0.000000
  --------------------------------------------------------
  Sum of atomic charges =     0.000000

                    Cartesian Multipole Moments
 -----------------------------------------------------------------
    Charge (ESU x 10^10)
                 0.0000
    Dipole Moment (Debye)
         X      -1.9093      Y       0.0003      Z      -0.2002
       Tot       1.9198
    Quadrupole Moments (Debye-Ang)
        XX     -37.4935     XY       0.0002     YY     -35.6146
        XZ       0.6211     YZ      -0.0002     ZZ     -32.2234

 Final energy is   -517.230572146982
 **  OPTIMIZATION CONVERGED  **
 Total job time:  16.24s(wall), 161.56s(cpu)
        *  Thank you very much for using Q-Chem.  Have a nice day.  *
