 Q-Chem 5.1, Q-Chem, Inc., Pleasanton, CA (2018)
 Q-Chem 5.1.1 for Intel X86 EM64T Linux

User input:
--------------------------------------------------------------

$comment
potential surface scanner
$end

$rem
JOBTYPE  PES_SCAN
UNRESTRICTED TRUE
SYM_IGNORE  TRUE
GEOM_OPT_MAX_CYCLES 400
SCF_MAX_CYCLES 400
METHOD   B3LYP
BASIS   6-31G**
PDB_PRINT 2
SCF_CONVERGENCE 6
THRESH 14
SCF_PRINT 1
$end
$molecule
0 1
S 1.689694 -0.000232 -0.128001
C -0.131706 0.000039 -0.403453
C -0.803128 -1.272746 0.113426
C -0.802749 1.273005 0.113474
H -0.166071 0.000064 -1.504327
H -1.863705 -1.283808 -0.164650
H -0.327235 -2.168958 -0.291101
H -0.739822 -1.318388 1.206221
H -1.863318 1.284411 -0.164624
H -0.326570 2.169090 -0.290998
H -0.739450 1.318571 1.206272
H 1.603958 -0.000250 1.870160
$end
$scan
stre 1 12 2.100000 2.101000 0.100000
$end
--------------------------------------------------------------

    9    -517.2671425772      5.64e-07  Convergence criterion met
 Total energy in the final basis set =     -517.2671425772
    9    -517.2544707488      7.51e-07  Convergence criterion met
 Total energy in the final basis set =     -517.2544707488
    9    -517.2541541204      7.63e-07  Convergence criterion met
 Total energy in the final basis set =     -517.2541541204

             Standard Nuclear Orientation (Angstroms)
    I     Atom           X                Y                Z
 ----------------------------------------------------------------
    1      S       1.6862168875    -0.0002294365    -0.1575293294
    2      C      -0.1353072741     0.0000406028    -0.4127578798
    3      C      -0.8026369534    -1.2728177031     0.1093562170
    4      C      -0.8022598577     1.2730780508     0.1094018639
    5      H      -0.1789545273     0.0000667933    -1.5141578980
    6      H      -1.8657166956    -1.2833417984    -0.1587517049
    7      H      -0.3306314278    -2.1691779621    -0.2993218427
    8      H      -0.7280493506    -1.3174779608     1.2014825813
    9      H      -1.8653314315     1.2839440465    -0.1587268639
   10      H      -0.3299694434     2.1693128801    -0.2992225944
   11      H      -0.7276791874     1.3176611888     1.2015319360
   12      H       1.6102172612    -0.0002607013     1.9410945148
 ----------------------------------------------------------------

    9    -517.2541545763      7.66e-07  Convergence criterion met
 Total energy in the final basis set =     -517.2541545763

                    Orbital Energies (a.u.)
 --------------------------------------------------------------

 Alpha MOs
 -- Occupied --
-88.897 -10.233 -10.186 -10.186  -7.954  -5.920  -5.916  -5.908
 -0.817  -0.694  -0.686  -0.567  -0.465  -0.437  -0.418  -0.392
 -0.363  -0.356  -0.329  -0.302  -0.236

 Beta MOs
 -- Occupied --
-88.897 -10.233 -10.186 -10.186  -7.954  -5.920  -5.916  -5.908
 -0.817  -0.694  -0.686  -0.567  -0.465  -0.437  -0.418  -0.392
 -0.363  -0.356  -0.329  -0.302  -0.236

          Ground-State Mulliken Net Atomic Charges

     Atom                 Charge (a.u.)    Spin (a.u.)
  --------------------------------------------------------
      1 S                    -0.040118      -0.000000
      2 C                    -0.221417       0.000000
      3 C                    -0.291298       0.000000
      4 C                    -0.291298      -0.000000
      5 H                     0.140100      -0.000000
      6 H                     0.105938       0.000000
      7 H                     0.122415       0.000000
      8 H                     0.113330      -0.000000
      9 H                     0.105938       0.000000
     10 H                     0.122415      -0.000000
     11 H                     0.113329       0.000000
     12 H                     0.020665       0.000000
  --------------------------------------------------------
  Sum of atomic charges =    -0.000000

                    Cartesian Multipole Moments
 -----------------------------------------------------------------
    Charge (ESU x 10^10)
                 0.0000
    Dipole Moment (Debye)
         X      -1.8587      Y       0.0003      Z      -0.0682
       Tot       1.8600
    Quadrupole Moments (Debye-Ang)
        XX     -37.4690     XY       0.0002     YY     -35.6202
        XZ       0.8054     YZ      -0.0002     ZZ     -32.1211

 Final energy is   -517.254154576257
 **  OPTIMIZATION CONVERGED  **
 Total job time:  12.60s(wall), 140.43s(cpu)
        *  Thank you very much for using Q-Chem.  Have a nice day.  *
