 Q-Chem 5.1, Q-Chem, Inc., Pleasanton, CA (2018)
 Q-Chem 5.1.1 for Intel X86 EM64T Linux

User input:
--------------------------------------------------------------

$comment
potential surface scanner
$end

$rem
JOBTYPE  PES_SCAN
UNRESTRICTED TRUE
SYM_IGNORE  TRUE
GEOM_OPT_MAX_CYCLES 400
SCF_MAX_CYCLES 400
METHOD   B3LYP
BASIS   6-31G**
PDB_PRINT 2
SCF_CONVERGENCE 6
THRESH 14
SCF_PRINT 1
$end
$molecule
0 1
S 1.659059 -0.000199 -0.374534
C -0.159255 0.000055 -0.480408
C -0.791633 -1.273834 0.083603
C -0.791276 1.274110 0.083631
H -0.285460 0.000082 -1.580576
H -1.870278 -1.282863 -0.111149
H -0.347707 -2.170704 -0.353840
H -0.636683 -1.310755 1.167791
H -1.869918 1.283455 -0.111130
H -0.347090 2.170864 -0.353784
H -0.636326 1.310959 1.167820
H 1.606467 -0.000373 2.424972
$end
$scan
stre 1 12 2.900000 2.901000 0.100000
$end
--------------------------------------------------------------

   11    -517.1862285894      1.76e-07  Convergence criterion met
 Total energy in the final basis set =     -517.1862285894
   12    -517.1796057165      1.35e-07  Convergence criterion met
 Total energy in the final basis set =     -517.1796057165
   12    -517.1795240203      1.40e-07  Convergence criterion met
 Total energy in the final basis set =     -517.1795240203
   12    -517.1795624435      1.43e-07  Convergence criterion met
 Total energy in the final basis set =     -517.1795624435
   12    -517.1795642148      1.43e-07  Convergence criterion met
 Total energy in the final basis set =     -517.1795642148

             Standard Nuclear Orientation (Angstroms)
    I     Atom           X                Y                Z
 ----------------------------------------------------------------
    1      S       1.6552226577    -0.0001981277    -0.4106071259
    2      C      -0.1625552504     0.0000564599    -0.4908122540
    3      C      -0.7883406705    -1.2739020063     0.0809929080
    4      C      -0.7879852709     1.2741771340     0.0810211092
    5      H      -0.3045808635     0.0000851309    -1.5895852012
    6      H      -1.8685350414    -1.2848814124    -0.1046942809
    7      H      -0.3465138305    -2.1710200346    -0.3579959803
    8      H      -0.6238155467    -1.3073644056     1.1639521635
    9      H      -1.8681750517     1.2854723572    -0.1046752718
   10      H      -0.3458975896     2.1711806212    -0.3579398383
   11      H      -0.6234620626     1.3075666329     1.1639824227
   12      H       1.5945385202    -0.0003753497     2.4887573489
 ----------------------------------------------------------------

   12    -517.1795685894      1.44e-07  Convergence criterion met
 Total energy in the final basis set =     -517.1795685894

                    Orbital Energies (a.u.)
 --------------------------------------------------------------

 Alpha MOs
 -- Occupied --
-88.903 -10.238 -10.189 -10.189  -7.960  -5.926  -5.922  -5.913
 -0.823  -0.697  -0.691  -0.568  -0.469  -0.440  -0.422  -0.395
 -0.363  -0.360  -0.332  -0.265  -0.240

 Beta MOs
 -- Occupied --
-88.903 -10.238 -10.189 -10.189  -7.960  -5.926  -5.922  -5.913
 -0.823  -0.697  -0.691  -0.568  -0.469  -0.440  -0.422  -0.395
 -0.363  -0.360  -0.332  -0.265  -0.240

          Ground-State Mulliken Net Atomic Charges

     Atom                 Charge (a.u.)    Spin (a.u.)
  --------------------------------------------------------
      1 S                    -0.016643       0.000000
      2 C                    -0.233437       0.000000
      3 C                    -0.292569      -0.000000
      4 C                    -0.292569       0.000000
      5 H                     0.150305       0.000000
      6 H                     0.107056       0.000000
      7 H                     0.123667      -0.000000
      8 H                     0.120282       0.000000
      9 H                     0.107056      -0.000000
     10 H                     0.123667      -0.000000
     11 H                     0.120283       0.000000
     12 H                    -0.017100      -0.000000
  --------------------------------------------------------
  Sum of atomic charges =     0.000000

                    Cartesian Multipole Moments
 -----------------------------------------------------------------
    Charge (ESU x 10^10)
                 0.0000
    Dipole Moment (Debye)
         X      -2.0612      Y       0.0003      Z      -0.4815
       Tot       2.1167
    Quadrupole Moments (Debye-Ang)
        XX     -37.5088     XY       0.0003     YY     -35.5169
        XZ       0.3581     YZ      -0.0002     ZZ     -32.7911

 Final energy is   -517.179568589424
 **  OPTIMIZATION CONVERGED  **
 Total job time:  24.74s(wall), 247.78s(cpu)
        *  Thank you very much for using Q-Chem.  Have a nice day.  *
