 Q-Chem 5.1, Q-Chem, Inc., Pleasanton, CA (2018)
 Q-Chem 5.1.1 for Intel X86 EM64T Linux

User input:
--------------------------------------------------------------

$comment
potential surface scanner
$end

$rem
JOBTYPE  PES_SCAN
UNRESTRICTED TRUE
SYM_IGNORE  TRUE
GEOM_OPT_MAX_CYCLES 400
SCF_MAX_CYCLES 400
METHOD   B3LYP
BASIS   6-31G**
PDB_PRINT 2
SCF_CONVERGENCE 6
THRESH 14
SCF_PRINT 1
$end
$molecule
0 1
S 1.657900 -0.000200 0.107500
C -0.098900 0.000100 -0.384900
C -0.779700 -1.258900 0.138700
C -0.779300 1.259100 0.138700
H -0.135800 0.000100 -1.479400
H -1.829100 -1.282800 -0.175600
H -0.301500 -2.163300 -0.253500
H -0.763000 -1.307700 1.233500
H -1.828700 1.283400 -0.175500
H -0.300800 2.163400 -0.253400
H -0.762600 1.307800 1.233400
H 1.451400 -0.000200 1.432900
$end
$scan
stre 1 12 0.700000 0.701000 0.100000
$end
--------------------------------------------------------------

    9    -517.3397527088      2.29e-07  Convergence criterion met
 Total energy in the final basis set =     -517.3397527088
    9    -517.3253996246      2.15e-07  Convergence criterion met
 Total energy in the final basis set =     -517.3253996246
    9    -517.2604198979      2.09e-07  Convergence criterion met
 Total energy in the final basis set =     -517.2604198979
    9    -517.1538468780      2.06e-07  Convergence criterion met
 Total energy in the final basis set =     -517.1538468780
    9    -516.8854650808      2.07e-07  Convergence criterion met
 Total energy in the final basis set =     -516.8854650808
    9    -516.7415191902      2.10e-07  Convergence criterion met
 Total energy in the final basis set =     -516.7415191902
    9    -516.6105708770      2.14e-07  Convergence criterion met
 Total energy in the final basis set =     -516.6105708770
    9    -516.5524094352      2.16e-07  Convergence criterion met
 Total energy in the final basis set =     -516.5524094352
    9    -516.5480636324      2.16e-07  Convergence criterion met
 Total energy in the final basis set =     -516.5480636324
    9    -516.5481035673      2.16e-07  Convergence criterion met
 Total energy in the final basis set =     -516.5481035673
    9    -516.5481511158      2.16e-07  Convergence criterion met
 Total energy in the final basis set =     -516.5481511158
    9    -516.5481530983      2.16e-07  Convergence criterion met
 Total energy in the final basis set =     -516.5481530983

             Standard Nuclear Orientation (Angstroms)
    I     Atom           X                Y                Z
 ----------------------------------------------------------------
    1      S       1.6790736249    -0.0002404913     0.2740929249
    2      C      -0.0880186250     0.0000355785    -0.2888944413
    3      C      -0.8067282362    -1.2736541797     0.1627217632
    4      C      -0.8063514028     1.2739163613     0.1627690544
    5      H      -0.0083687581     0.0000434798    -1.3799090512
    6      H      -1.8305012060    -1.2894411329    -0.2302253644
    7      H      -0.2881734362    -2.1686314958    -0.1892641957
    8      H      -0.8713033745    -1.3255336777     1.2552609667
    9      H      -1.8301155368     1.2900281634    -0.2301909979
   10      H      -0.2875268253     2.1687552571    -0.1891713866
   11      H      -0.8709264650     1.3257656698     1.2553082419
   12      H       1.5388402410    -0.0002435324     0.9599024860
 ----------------------------------------------------------------

    9    -516.5481581208      2.16e-07  Convergence criterion met
 Total energy in the final basis set =     -516.5481581208

                    Orbital Energies (a.u.)
 --------------------------------------------------------------

 Alpha MOs
 -- Occupied --
-88.818 -10.229 -10.186 -10.186  -7.942  -5.918  -5.889  -5.881
 -0.863  -0.775  -0.694  -0.597  -0.463  -0.461  -0.419  -0.397
 -0.394  -0.355  -0.347  -0.315  -0.241

 Beta MOs
 -- Occupied --
-88.818 -10.229 -10.186 -10.186  -7.942  -5.918  -5.889  -5.881
 -0.863  -0.775  -0.694  -0.597  -0.463  -0.461  -0.419  -0.397
 -0.394  -0.355  -0.347  -0.315  -0.241

          Ground-State Mulliken Net Atomic Charges

     Atom                 Charge (a.u.)    Spin (a.u.)
  --------------------------------------------------------
      1 S                     0.190253       0.000000
      2 C                    -0.211090       0.000000
      3 C                    -0.303434      -0.000000
      4 C                    -0.303433       0.000000
      5 H                     0.138525      -0.000000
      6 H                     0.106934      -0.000000
      7 H                     0.124972      -0.000000
      8 H                     0.108620       0.000000
      9 H                     0.106934      -0.000000
     10 H                     0.124972      -0.000000
     11 H                     0.108620      -0.000000
     12 H                    -0.191872      -0.000000
  --------------------------------------------------------
  Sum of atomic charges =    -0.000000

                    Cartesian Multipole Moments
 -----------------------------------------------------------------
    Charge (ESU x 10^10)
                -0.0000
    Dipole Moment (Debye)
         X      -1.9339      Y       0.0003      Z       0.3796
       Tot       1.9708
    Quadrupole Moments (Debye-Ang)
        XX     -37.1940     XY       0.0003     YY     -34.3686
        XZ       1.3783     YZ      -0.0003     ZZ     -31.3734

 Final energy is   -516.548158120799
 **  OPTIMIZATION CONVERGED  **
 Total job time:  38.49s(wall), 447.60s(cpu)
        *  Thank you very much for using Q-Chem.  Have a nice day.  *
