 Q-Chem 5.1, Q-Chem, Inc., Pleasanton, CA (2018)
 Q-Chem 5.1.1 for Intel X86 EM64T Linux

User input:
--------------------------------------------------------------

$comment
potential surface scanner
$end

$rem
JOBTYPE  PES_SCAN
UNRESTRICTED TRUE
SYM_IGNORE  TRUE
GEOM_OPT_MAX_CYCLES 400
SCF_MAX_CYCLES 400
METHOD   B3LYP
BASIS   6-31G**
PDB_PRINT 2
SCF_CONVERGENCE 6
THRESH 14
SCF_PRINT 1
$end
$molecule
0 1
S 1.666063 -0.000204 -0.306577
C -0.152813 0.000053 -0.459930
C -0.797677 -1.273670 0.089654
C -0.797319 1.273945 0.089682
H -0.248873 0.000076 -1.561851
H -1.872271 -1.281427 -0.126294
H -0.346507 -2.170315 -0.341137
H -0.665098 -1.314564 1.176522
H -1.871908 1.282021 -0.126277
H -0.345884 2.170471 -0.341077
H -0.664740 1.314772 1.176553
H 1.626928 -0.000362 2.293128
$end
$scan
stre 1 12 2.700000 2.701000 0.100000
$end
--------------------------------------------------------------

   11    -517.2016145795      2.13e-07  Convergence criterion met
 Total energy in the final basis set =     -517.2016145795
   11    -517.1937079883      4.16e-07  Convergence criterion met
 Total energy in the final basis set =     -517.1937079883
   11    -517.1935575852      4.19e-07  Convergence criterion met
 Total energy in the final basis set =     -517.1935575852

             Standard Nuclear Orientation (Angstroms)
    I     Atom           X                Y                Z
 ----------------------------------------------------------------
    1      S       1.6624229990    -0.0002005294    -0.3385626495
    2      C      -0.1559447842     0.0000541576    -0.4701634342
    3      C      -0.7950368500    -1.2739069721     0.0862310590
    4      C      -0.7946800498     1.2741825402     0.0862587144
    5      H      -0.2653736456     0.0000783587    -1.5714438732
    6      H      -1.8720626237    -1.2810712677    -0.1170227809
    7      H      -0.3491471854    -2.1705817047    -0.3499486425
    8      H      -0.6488795229    -1.3144512438     1.1714271800
    9      H      -1.8717023084     1.2816639286    -0.1170044500
   10      H      -0.3485285603     2.1707409456    -0.3498929118
   11      H      -0.6485216075     1.3146585464     1.1714567359
   12      H       1.6173551388    -0.0003707594     2.3610610528
 ----------------------------------------------------------------

   11    -517.1935599012      4.17e-07  Convergence criterion met
 Total energy in the final basis set =     -517.1935599012

                    Orbital Energies (a.u.)
 --------------------------------------------------------------

 Alpha MOs
 -- Occupied --
-88.903 -10.237 -10.188 -10.188  -7.959  -5.926  -5.921  -5.913
 -0.821  -0.696  -0.690  -0.567  -0.468  -0.439  -0.421  -0.394
 -0.362  -0.359  -0.331  -0.272  -0.239

 Beta MOs
 -- Occupied --
-88.903 -10.237 -10.188 -10.188  -7.959  -5.926  -5.921  -5.913
 -0.821  -0.696  -0.690  -0.567  -0.468  -0.439  -0.421  -0.394
 -0.362  -0.359  -0.331  -0.272  -0.239

          Ground-State Mulliken Net Atomic Charges

     Atom                 Charge (a.u.)    Spin (a.u.)
  --------------------------------------------------------
      1 S                    -0.020162      -0.000000
      2 C                    -0.231165      -0.000000
      3 C                    -0.292099      -0.000000
      4 C                    -0.292099      -0.000000
      5 H                     0.147774      -0.000000
      6 H                     0.106676       0.000000
      7 H                     0.123038       0.000000
      8 H                     0.119191      -0.000000
      9 H                     0.106676       0.000000
     10 H                     0.123037       0.000000
     11 H                     0.119192      -0.000000
     12 H                    -0.010060       0.000000
  --------------------------------------------------------
  Sum of atomic charges =    -0.000000

                    Cartesian Multipole Moments
 -----------------------------------------------------------------
    Charge (ESU x 10^10)
                -0.0000
    Dipole Moment (Debye)
         X      -2.0122      Y       0.0003      Z      -0.4105
       Tot       2.0537
    Quadrupole Moments (Debye-Ang)
        XX     -37.5160     XY       0.0003     YY     -35.5540
        XZ       0.3882     YZ      -0.0002     ZZ     -32.5420

 Final energy is   -517.193559901154
 **  OPTIMIZATION CONVERGED  **
 Total job time:  13.58s(wall), 155.97s(cpu)
        *  Thank you very much for using Q-Chem.  Have a nice day.  *
