 Q-Chem 5.1, Q-Chem, Inc., Pleasanton, CA (2018)
 Q-Chem 5.1.1 for Intel X86 EM64T Linux

User input:
--------------------------------------------------------------

$comment
potential surface scanner
$end

$rem
JOBTYPE  PES_SCAN
UNRESTRICTED TRUE
SYM_IGNORE  TRUE
GEOM_OPT_MAX_CYCLES 400
SCF_MAX_CYCLES 400
METHOD   B3LYP
BASIS   6-31G**
PDB_PRINT 2
SCF_CONVERGENCE 6
THRESH 14
SCF_PRINT 1
$end
$molecule
0 1
S 1.702355 -0.000239 0.087386
C -0.105932 0.000034 -0.341990
C -0.804326 -1.272870 0.140423
C -0.803947 1.273130 0.140471
H -0.080883 0.000052 -1.437699
H -1.847214 -1.285209 -0.198657
H -0.305931 -2.168189 -0.238583
H -0.810292 -1.325643 1.234955
H -1.846825 1.285807 -0.198630
H -0.305270 2.168314 -0.238481
H -0.809917 1.325848 1.235005
H 1.548083 -0.000234 1.378200
$end
$scan
stre 1 12 1.400000 1.401000 0.100000
$end
--------------------------------------------------------------

    9    -517.3404262025      2.18e-07  Convergence criterion met
 Total energy in the final basis set =     -517.3404262025
    9    -517.3406893133      2.27e-07  Convergence criterion met
 Total energy in the final basis set =     -517.3406893133
    9    -517.3406206174      2.27e-07  Convergence criterion met
 Total energy in the final basis set =     -517.3406206174

             Standard Nuclear Orientation (Angstroms)
    I     Atom           X                Y                Z
 ----------------------------------------------------------------
    1      S       1.7027456503    -0.0002399448     0.0560081696
    2      C      -0.1097438120     0.0000348225    -0.3512596154
    3      C      -0.8039533245    -1.2726686176     0.1367163315
    4      C      -0.8035729216     1.2729270319     0.1367647615
    5      H      -0.0931372996     0.0000532090    -1.4477021189
    6      H      -1.8497161166    -1.2854468092    -0.1935467675
    7      H      -0.3087207711    -2.1681962963    -0.2458981180
    8      H      -0.8002385281    -1.3243071646     1.2312749604
    9      H      -1.8493265350     1.2860448854    -0.1935170059
   10      H      -0.3080586841     2.1683220408    -0.2457957411
   11      H      -0.7998622845     1.3245093752     1.2313264111
   12      H       1.5534856268    -0.0002315324     1.4480287327
 ----------------------------------------------------------------

    9    -517.3406213388      2.27e-07  Convergence criterion met
 Total energy in the final basis set =     -517.3406213388

                    Orbital Energies (a.u.)
 --------------------------------------------------------------

 Alpha MOs
 -- Occupied --
-88.871 -10.228 -10.185 -10.185  -7.932  -5.897  -5.894  -5.887
 -0.815  -0.699  -0.693  -0.578  -0.462  -0.443  -0.417  -0.392
 -0.386  -0.353  -0.343  -0.312  -0.233

 Beta MOs
 -- Occupied --
-88.871 -10.228 -10.185 -10.185  -7.932  -5.897  -5.894  -5.887
 -0.815  -0.699  -0.693  -0.578  -0.462  -0.443  -0.417  -0.392
 -0.386  -0.353  -0.343  -0.312  -0.233

          Ground-State Mulliken Net Atomic Charges

     Atom                 Charge (a.u.)    Spin (a.u.)
  --------------------------------------------------------
      1 S                    -0.055736       0.000000
      2 C                    -0.213331       0.000000
      3 C                    -0.296006      -0.000000
      4 C                    -0.296007       0.000000
      5 H                     0.135616      -0.000000
      6 H                     0.106135      -0.000000
      7 H                     0.123314       0.000000
      8 H                     0.106619      -0.000000
      9 H                     0.106136       0.000000
     10 H                     0.123314       0.000000
     11 H                     0.106619      -0.000000
     12 H                     0.053326      -0.000000
  --------------------------------------------------------
  Sum of atomic charges =    -0.000000

                    Cartesian Multipole Moments
 -----------------------------------------------------------------
    Charge (ESU x 10^10)
                 0.0000
    Dipole Moment (Debye)
         X      -1.7792      Y       0.0003      Z       0.4157
       Tot       1.8271
    Quadrupole Moments (Debye-Ang)
        XX     -37.3668     XY       0.0003     YY     -35.2952
        XZ       1.5866     YZ      -0.0003     ZZ     -31.7088

 Final energy is   -517.340621338811
 **  OPTIMIZATION CONVERGED  **
 Total job time:  12.65s(wall), 141.63s(cpu)
        *  Thank you very much for using Q-Chem.  Have a nice day.  *
