 Q-Chem 5.1, Q-Chem, Inc., Pleasanton, CA (2018)
 Q-Chem 5.1.1 for Intel X86 EM64T Linux

User input:
--------------------------------------------------------------

$comment
potential surface scanner
$end

$rem
JOBTYPE  PES_SCAN
UNRESTRICTED TRUE
SYM_IGNORE  TRUE
GEOM_OPT_MAX_CYCLES 400
SCF_MAX_CYCLES 400
METHOD   B3LYP
BASIS   6-31G**
PDB_PRINT 2
SCF_CONVERGENCE 6
THRESH 14
SCF_PRINT 1
$end
$molecule
0 1
S 1.662423 -0.000201 -0.338563
C -0.155945 0.000054 -0.470163
C -0.795037 -1.273907 0.086231
C -0.794680 1.274183 0.086259
H -0.265374 0.000078 -1.571444
H -1.872063 -1.281071 -0.117023
H -0.349147 -2.170582 -0.349949
H -0.648880 -1.314451 1.171427
H -1.871702 1.281664 -0.117004
H -0.348529 2.170741 -0.349893
H -0.648522 1.314659 1.171457
H 1.617355 -0.000371 2.361061
$end
$scan
stre 1 12 2.800000 2.801000 0.100000
$end
--------------------------------------------------------------

   11    -517.1935598780      4.17e-07  Convergence criterion met
 Total energy in the final basis set =     -517.1935598780
   11    -517.1862839681      1.86e-07  Convergence criterion met
 Total energy in the final basis set =     -517.1862839681
   11    -517.1861836074      1.78e-07  Convergence criterion met
 Total energy in the final basis set =     -517.1861836074
   11    -517.1862232679      1.78e-07  Convergence criterion met
 Total energy in the final basis set =     -517.1862232679
   11    -517.1862249018      1.77e-07  Convergence criterion met
 Total energy in the final basis set =     -517.1862249018

             Standard Nuclear Orientation (Angstroms)
    I     Atom           X                Y                Z
 ----------------------------------------------------------------
    1      S       1.6590591668    -0.0001994256    -0.3745343389
    2      C      -0.1592549438     0.0000552116    -0.4804081999
    3      C      -0.7916328921    -1.2738344282     0.0836033186
    4      C      -0.7912764813     1.2741096184     0.0836314851
    5      H      -0.2854604130     0.0000817919    -1.5805761492
    6      H      -1.8702780688    -1.2828634408    -0.1111493077
    7      H      -0.3477074339    -2.1707039578    -0.3538399280
    8      H      -0.6366829509    -1.3107548377     1.1677905134
    9      H      -1.8699178188     1.2834550163    -0.1111295592
   10      H      -0.3470899463     2.1708636966    -0.3537840009
   11      H      -0.6363261773     1.3109594683     1.1678204958
   12      H       1.6064669593    -0.0003727129     2.4249716710
 ----------------------------------------------------------------

   11    -517.1862285886      1.76e-07  Convergence criterion met
 Total energy in the final basis set =     -517.1862285886

                    Orbital Energies (a.u.)
 --------------------------------------------------------------

 Alpha MOs
 -- Occupied --
-88.903 -10.238 -10.188 -10.188  -7.960  -5.926  -5.922  -5.913
 -0.822  -0.696  -0.690  -0.567  -0.468  -0.440  -0.421  -0.394
 -0.362  -0.359  -0.332  -0.268  -0.239

 Beta MOs
 -- Occupied --
-88.903 -10.238 -10.188 -10.188  -7.960  -5.926  -5.922  -5.913
 -0.822  -0.696  -0.690  -0.567  -0.468  -0.440  -0.421  -0.394
 -0.362  -0.359  -0.332  -0.268  -0.239

          Ground-State Mulliken Net Atomic Charges

     Atom                 Charge (a.u.)    Spin (a.u.)
  --------------------------------------------------------
      1 S                    -0.018278       0.000000
      2 C                    -0.232353      -0.000000
      3 C                    -0.292298      -0.000000
      4 C                    -0.292298       0.000000
      5 H                     0.149031       0.000000
      6 H                     0.106838      -0.000000
      7 H                     0.123362       0.000000
      8 H                     0.119757       0.000000
      9 H                     0.106838       0.000000
     10 H                     0.123361       0.000000
     11 H                     0.119758      -0.000000
     12 H                    -0.013716      -0.000000
  --------------------------------------------------------
  Sum of atomic charges =     0.000000

                    Cartesian Multipole Moments
 -----------------------------------------------------------------
    Charge (ESU x 10^10)
                -0.0000
    Dipole Moment (Debye)
         X      -2.0375      Y       0.0003      Z      -0.4480
       Tot       2.0861
    Quadrupole Moments (Debye-Ang)
        XX     -37.5146     XY       0.0003     YY     -35.5355
        XZ       0.3674     YZ      -0.0002     ZZ     -32.6589

 Final energy is   -517.186228588600
 **  OPTIMIZATION CONVERGED  **
 Total job time:  21.89s(wall), 232.27s(cpu)
        *  Thank you very much for using Q-Chem.  Have a nice day.  *
