 Q-Chem 5.1, Q-Chem, Inc., Pleasanton, CA (2018)
 Q-Chem 5.1.1 for Intel X86 EM64T Linux

User input:
--------------------------------------------------------------

$comment
potential surface scanner
$end

$rem
JOBTYPE  PES_SCAN
UNRESTRICTED TRUE
SYM_IGNORE  TRUE
GEOM_OPT_MAX_CYCLES 400
SCF_MAX_CYCLES 400
METHOD   B3LYP
BASIS   6-31G**
PDB_PRINT 2
SCF_CONVERGENCE 6
THRESH 14
SCF_PRINT 1
$end
$molecule
0 1
S 1.696259 -0.000236 -0.068162
C -0.124156 0.000038 -0.385479
C -0.803705 -1.272593 0.121404
C -0.803326 1.272852 0.121451
H -0.140927 0.000061 -1.485051
H -1.859358 -1.284222 -0.175141
H -0.320890 -2.168654 -0.275318
H -0.761623 -1.320356 1.215195
H -1.858970 1.284824 -0.175115
H -0.320227 2.168784 -0.275216
H -0.761253 1.320547 1.215246
H 1.588072 -0.000247 1.728584
$end
$scan
stre 1 12 1.900000 1.901000 0.100000
$end
--------------------------------------------------------------

    9    -517.2949522321      4.66e-07  Convergence criterion met
 Total energy in the final basis set =     -517.2949522321
    9    -517.2811975115      4.05e-07  Convergence criterion met
 Total energy in the final basis set =     -517.2811975115
    9    -517.2808209015      4.13e-07  Convergence criterion met
 Total energy in the final basis set =     -517.2808209015

             Standard Nuclear Orientation (Angstroms)
    I     Atom           X                Y                Z
 ----------------------------------------------------------------
    1      S       1.6929998452    -0.0002342973    -0.0982170795
    2      C      -0.1280191769     0.0000382833    -0.3943507790
    3      C      -0.8034825467    -1.2726689856     0.1174533020
    4      C      -0.8031032390     1.2729278931     0.1175006601
    5      H      -0.1533924193     0.0000624590    -1.4946114312
    6      H      -1.8615754811    -1.2841259225    -0.1701521002
    7      H      -0.3239820404    -2.1687749043    -0.2830905732
    8      H      -0.7510576484    -1.3193071807     1.2107938343
    9      H      -1.8611871881     1.2847283467    -0.1701261983
   10      H      -0.3233167943     2.1689058809    -0.2829873958
   11      H      -0.7506861376     1.3194930975     1.2108449060
   12      H       1.5966988266    -0.0002466700     1.7993408547
 ----------------------------------------------------------------

    9    -517.2808214439      4.15e-07  Convergence criterion met
 Total energy in the final basis set =     -517.2808214439

                    Orbital Energies (a.u.)
 --------------------------------------------------------------

 Alpha MOs
 -- Occupied --
-88.892 -10.231 -10.185 -10.185  -7.949  -5.915  -5.911  -5.903
 -0.815  -0.693  -0.686  -0.568  -0.464  -0.437  -0.418  -0.392
 -0.365  -0.355  -0.333  -0.310  -0.235

 Beta MOs
 -- Occupied --
-88.892 -10.231 -10.185 -10.185  -7.949  -5.915  -5.911  -5.903
 -0.815  -0.693  -0.686  -0.568  -0.464  -0.437  -0.418  -0.392
 -0.365  -0.355  -0.333  -0.310  -0.235

          Ground-State Mulliken Net Atomic Charges

     Atom                 Charge (a.u.)    Spin (a.u.)
  --------------------------------------------------------
      1 S                    -0.047698      -0.000000
      2 C                    -0.218088      -0.000000
      3 C                    -0.291848       0.000000
      4 C                    -0.291849      -0.000000
      5 H                     0.137980       0.000000
      6 H                     0.105871      -0.000000
      7 H                     0.122478      -0.000000
      8 H                     0.111066      -0.000000
      9 H                     0.105871       0.000000
     10 H                     0.122478       0.000000
     11 H                     0.111065      -0.000000
     12 H                     0.032674      -0.000000
  --------------------------------------------------------
  Sum of atomic charges =     0.000000

                    Cartesian Multipole Moments
 -----------------------------------------------------------------
    Charge (ESU x 10^10)
                 0.0000
    Dipole Moment (Debye)
         X      -1.8143      Y       0.0003      Z       0.0774
       Tot       1.8160
    Quadrupole Moments (Debye-Ang)
        XX     -37.4342     XY       0.0002     YY     -35.5902
        XZ       1.0318     YZ      -0.0002     ZZ     -32.0263

 Final energy is   -517.280821443943
 **  OPTIMIZATION CONVERGED  **
 Total job time:  12.73s(wall), 140.53s(cpu)
        *  Thank you very much for using Q-Chem.  Have a nice day.  *
