 Q-Chem 5.1, Q-Chem, Inc., Pleasanton, CA (2018)
 Q-Chem 5.1.1 for Intel X86 EM64T Linux

User input:
--------------------------------------------------------------

$comment
potential surface scanner
$end

$rem
JOBTYPE  PES_SCAN
UNRESTRICTED TRUE
SYM_IGNORE  TRUE
GEOM_OPT_MAX_CYCLES 400
SCF_MAX_CYCLES 400
METHOD   B3LYP
BASIS   6-31G**
PDB_PRINT 2
SCF_CONVERGENCE 6
THRESH 14
SCF_PRINT 1
$end
$molecule
0 1
S 1.657900 -0.000200 0.107500
C -0.098900 0.000100 -0.384900
C -0.779700 -1.258900 0.138700
C -0.779300 1.259100 0.138700
H -0.135800 0.000100 -1.479400
H -1.829100 -1.282800 -0.175600
H -0.301500 -2.163300 -0.253500
H -0.763000 -1.307700 1.233500
H -1.828700 1.283400 -0.175500
H -0.300800 2.163400 -0.253400
H -0.762600 1.307800 1.233400
H 1.451400 -0.000200 1.432900
$end
$scan
stre 1 12 3.700000 3.701000 0.100000
$end
--------------------------------------------------------------

    9    -517.3397527088      2.29e-07  Convergence criterion met
 Total energy in the final basis set =     -517.3397527088
    9    -517.3334161693      2.50e-07  Convergence criterion met
 Total energy in the final basis set =     -517.3334161693
    9    -517.3165452430      4.07e-07  Convergence criterion met
 Total energy in the final basis set =     -517.3165452430
    9    -517.2957023336      3.92e-07  Convergence criterion met
 Total energy in the final basis set =     -517.2957023336
    9    -517.2744242627      4.57e-07  Convergence criterion met
 Total energy in the final basis set =     -517.2744242627
    9    -517.2544160229      7.44e-07  Convergence criterion met
 Total energy in the final basis set =     -517.2544160229
   10    -517.2361561121      1.77e-07  Convergence criterion met
 Total energy in the final basis set =     -517.2361561121
   10    -517.2198772011      4.01e-07  Convergence criterion met
    8    -517.2976040281      8.52e-07  Convergence criterion met
 Total energy in the final basis set =     -517.2976040281
    8    -517.2976099703      8.52e-07  Convergence criterion met
 Total energy in the final basis set =     -517.2976099703
    8    -517.2976119454      8.51e-07  Convergence criterion met
 Total energy in the final basis set =     -517.2976119454
    8    -517.2976133948      8.51e-07  Convergence criterion met
 Total energy in the final basis set =     -517.2976133948
    8    -517.2976139308      8.51e-07  Convergence criterion met
 Total energy in the final basis set =     -517.2976139308
    8    -517.2976140780      8.51e-07  Convergence criterion met
 Total energy in the final basis set =     -517.2976140780

             Standard Nuclear Orientation (Angstroms)
    I     Atom           X                Y                Z
 ----------------------------------------------------------------
    1      S       1.2721137601     0.3296844319     0.5431259932
    2      C      -0.2347134691     0.4310294496    -0.0933700842
    3      C      -1.1153228819    -0.7751281447    -0.2901769204
    4      C      -0.8417452657     1.7402711292    -0.5252499010
    5      H      -1.4103480983    -0.8579896614    -1.3445156638
    6      H      -2.0455012516    -0.6566455926     0.2814492947
    7      H      -0.6190083618    -1.6944298961     0.0188796289
    8      H       1.7322034364    -2.0923372525     2.1915574518
    9      H      -1.1041828962     1.6987118991    -1.5906928682
   10      H      -0.1645001017     2.5761865690    -0.3537641237
   11      H      -1.7807694656     1.9167503272     0.0157791655
   12      H       1.8416745954    -2.6153032589     2.7093780271
 ----------------------------------------------------------------

    8    -517.2976142679      8.51e-07  Convergence criterion met
 Total energy in the final basis set =     -517.2976142679

                    Orbital Energies (a.u.)
 --------------------------------------------------------------

 Alpha MOs
 -- Occupied --
-88.857 -10.269 -10.202 -10.202  -7.919  -5.883  -5.882  -5.874
 -0.835  -0.714  -0.707  -0.530  -0.456  -0.447  -0.444  -0.413
 -0.406  -0.378  -0.357  -0.285  -0.219

 Beta MOs
 -- Occupied --
-88.857 -10.269 -10.202 -10.202  -7.919  -5.883  -5.882  -5.874
 -0.835  -0.714  -0.707  -0.530  -0.456  -0.447  -0.444  -0.413
 -0.406  -0.378  -0.357  -0.285  -0.219

          Ground-State Mulliken Net Atomic Charges

     Atom                 Charge (a.u.)    Spin (a.u.)
  --------------------------------------------------------
      1 S                    -0.125200      -0.000000
      2 C                    -0.012310      -0.000000
      3 C                    -0.335576       0.000000
      4 C                    -0.334995      -0.000000
      5 H                     0.131119      -0.000000
      6 H                     0.132857      -0.000000
      7 H                     0.147065      -0.000000
      8 H                     0.022695      -0.000000
      9 H                     0.131907       0.000000
     10 H                     0.145895       0.000000
     11 H                     0.131691       0.000000
     12 H                    -0.035148       0.000000
  --------------------------------------------------------
  Sum of atomic charges =    -0.000000

                    Cartesian Multipole Moments
 -----------------------------------------------------------------
    Charge (ESU x 10^10)
                 0.0000
    Dipole Moment (Debye)
         X      -2.9063      Y       0.3911      Z      -1.3635
       Tot       3.2340
    Quadrupole Moments (Debye-Ang)
        XX     -35.0921     XY      -0.7861     YY     -34.1204
        XZ      -0.6548     YZ      -0.1581     ZZ     -34.6581

 Final energy is   -517.297614267876
 **  OPTIMIZATION CONVERGED  **
 Total job time:  443.90s(wall), 5117.31s(cpu)
        *  Thank you very much for using Q-Chem.  Have a nice day.  *
